INSANE!
85680 
    1POPC   NC3    1  10.124   3.332  19.298 -0.0763 -0.1779  0.0268
    1POPC   PO4    2   9.979   3.661  19.109 -0.1001  0.0298 -0.1154
    1POPC   GL1    3   9.891   3.844  18.818  0.1325 -0.1930 -0.2817
    1POPC   GL2    4  10.134   3.803  18.642 -0.1036 -0.2659  0.0671
    1POPC   C1A    5   9.657   3.755  18.481 -0.1253  0.0566 -0.2719
    1POPC   D2A    6   9.271   3.840  18.238 -0.0129  0.2691  0.0107
    1POPC   C3A    7   8.996   3.793  17.877 -0.0342  0.0620  0.0473
    1POPC   C4A    8   8.880   3.697  17.480  0.0580  0.0007  0.0835
    1POPC   C1B    9  10.140   3.504  18.375 -0.1013  0.1215 -0.1410
    1POPC   C2B   10   9.864   3.434  18.017 -0.2374 -0.3266  0.1678
    1POPC   C3B   11   9.909   3.236  17.620 -0.2934  0.0770 -0.2052
    1POPC   C4B   12   9.998   3.293  17.177  0.2265 -0.2484  0.2547
    2POPC   NC3   13  17.772   1.537  19.476  0.2878  0.0334 -0.2377
    2POPC   PO4   14  17.576   1.853  19.501  0.0446 -0.0111  0.4443
    2POPC   GL1   15  17.479   1.878  19.053  0.2573  0.3155 -0.6103
    2POPC   GL2   16  17.795   1.809  19.022 -0.1018  0.3709  0.0284
    2POPC   C1A   17  17.601   2.161  18.729  0.2249  0.0007  0.1526
    2POPC   D2A   18  17.852   2.408  18.433  0.1051  0.3021  0.0087
    2POPC   C3A   19  17.961   2.202  18.058 -0.4159 -0.0559 -0.0523
    2POPC   C4A   20  17.960   1.867  17.747  0.1037 -0.1149 -0.1524
    2POPC   C1B   21  18.033   1.868  18.643  0.1395 -0.0614  0.0211
    2POPC   C2B   22  18.269   2.254  18.632 -0.0484  0.1190  0.1394
    2POPC   C3B   23  18.365   2.487  18.246  0.1489  0.1682 -0.2979
    2POPC   C4B   24  18.350   2.401  17.809  0.0908 -0.0384  0.0919
    3POPC   NC3   25  17.661   4.300  19.192 -0.0236 -0.1770  0.0814
    3POPC   PO4   26  17.263   4.275  19.202 -0.0074 -0.0325 -0.1234
    3POPC   GL1   27  17.343   4.112  18.826 -0.0317  0.0978  0.2592
    3POPC   GL2   28  17.112   4.205  18.574  0.0786  0.3506  0.1596
    3POPC   C1A   29  17.651   3.806  18.765 -0.0124  0.1382  0.0729
    3POPC   D2A   30  18.134   3.885  18.664 -0.2579 -0.3607  0.1570
    3POPC   C3A   31  18.554   3.709  18.722  0.3663 -0.2417 -0.2576
    3POPC   C4A   32  18.831   3.602  19.003  0.0057 -0.1620  0.0038
    3POPC   C1B   33  17.107   4.098  18.119 -0.1147  0.4676  0.4071
    3POPC   C2B   34  16.998   3.820  17.757 -0.0654  0.2994 -0.0683
    3POPC   C3B   35  16.844   3.904  17.309 -0.0723 -0.2345  0.0824
    3POPC   C4B   36  16.503   4.262  17.256  0.2839  0.0605  0.0529
    4POPC   NC3   37  22.099   5.410  19.781  0.0988 -0.0664  0.2250
    4POPC   PO4   38  21.796   5.510  19.546 -0.1760  0.2290 -0.1983
    4POPC   GL1   39  21.705   5.251  19.225 -0.1094 -0.2208  0.0086
    4POPC   GL2   40  21.896   5.076  19.153 -0.0044  0.3909  0.0325
    4POPC   C1A   41  21.659   5.331  18.751  0.0052  0.1270  0.1309
    4POPC   D2A   42  21.349   5.126  18.448  0.0116  0.0510  0.1641
    4POPC   C3A   43  21.417   5.169  18.004 -0.0360  0.2570 -0.0636
    4POPC   C4A   44  21.445   5.024  17.540  0.1488 -0.3933  0.4167
    4POPC   C1B   45  22.074   5.045  18.669  0.0682 -0.0647  0.1649
    4POPC   C2B   46  21.936   5.323  18.288  0.0602  0.2433  0.0422
    4POPC   C3B   47  21.874   5.175  17.832  0.1834 -0.1485 -0.2541
    4POPC   C4B   48  21.808   5.326  17.400 -0.0651  0.1320  0.2242
    5POPC   NC3   49  12.942  18.470  18.980 -0.2975  0.2397 -0.2075
    5POPC   PO4   50  12.578  18.506  18.903  0.0031 -0.0513 -0.0544
    5POPC   GL1   51  12.433  18.585  18.490 -0.0121 -0.1125 -0.4897
    5POPC   GL2   52  12.246  18.760  18.627 -0.0037 -0.4667  0.1191
    5POPC   C1A   53  12.216  18.421  18.120 -0.3751 -0.1398  0.1068
    5POPC   D2A   54  12.044  18.336  17.705  0.0974 -0.2213  0.0175
    5POPC   C3A   55  11.600  18.200  17.675  0.1222  0.0295  0.1548
    5POPC   C4A   56  11.248  17.960  17.695  0.1709  0.0563 -0.0624
    5POPC   C1B   57  12.019  18.892  18.246 -0.0192 -0.0398  0.2142
    5POPC   C2B   58  12.266  18.825  17.824 -0.0454 -0.2057  0.3905
    5POPC   C3B   59  12.187  18.819  17.384  0.1206  0.1601 -0.2038
    5POPC   C4B   60  12.231  18.611  16.970 -0.1786 -0.0335  0.2127
    6POPC   NC3   61  22.333   2.572  19.061 -0.1127  0.1606 -0.0030
    6POPC   PO4   62  22.708   2.668  18.948  0.0898 -0.2033  0.0811
    6POPC   GL1   63  22.691   2.880  18.540 -0.1024 -0.0019  0.1267
    6POPC   GL2   64  22.394   2.734  18.557 -0.0255  0.0936  0.3218
    6POPC   C1A   65  22.620   3.006  18.095  0.0289 -0.0479  0.0724
    6POPC   D2A   66  22.573   3.377  17.805 -0.4923  0.0379 -0.3884
    6POPC   C3A   67  22.241   3.437  17.495 -0.1845  0.2939 -0.2264
    6POPC   C4A   68  22.310   3.161  17.115 -0.0843 -0.1840  0.1117
    6POPC   C1B   69  22.240   2.540  18.186  0.1168  0.0403  0.1075
    6POPC   C2B   70  22.273   2.277  17.799 -0.0639 -0.3511  0.0151
    6POPC   C3B   71  22.453   2.389  17.417  0.0532  0.4166  0.1062
    6POPC   C4B   72  22.804   2.440  17.068  0.0304 -0.1941  0.1769
    7POPC   NC3   73   2.602  12.384  19.400 -0.2250 -0.1264 -0.0250
    7POPC   PO4   74   2.588  12.665  19.663 -0.0550  0.1011  0.0273
    7POPC   GL1   75   2.436  12.985  19.290 -0.1185 -0.2065 -0.0712
    7POPC   GL2   76   2.147  13.092  19.217 -0.1491  0.2683  0.2100
    7POPC   C1A   77   2.462  13.054  18.809 -0.2789 -0.2840 -0.0875
    7POPC   D2A   78   2.694  13.213  18.424 -0.4958  0.0919  0.1133
    7POPC   C3A   79   2.693  13.090  17.983 -0.1821  0.4822  0.1269
    7POPC   C4A   80   2.630  12.996  17.557  0.0381 -0.1359 -0.3787
    7POPC   C1B   81   2.015  13.279  18.827 -0.1840 -0.1894 -0.0561
    7POPC   C2B   82   1.857  13.530  18.474  0.0282 -0.0539 -0.4518
    7POPC   C3B   83   1.425  13.422  18.306 -0.3279 -0.1008 -0.2229
    7POPC   C4B   84   1.002  13.369  18.367  0.1439 -0.5648  0.2829
    8POPC   NC3   85  21.612  15.845  20.040  0.5364  0.1253  0.3010
    8POPC   PO4   86  21.696  15.765  19.636  0.0408  0.0993  0.2280
    8POPC   GL1   87  22.017  15.956  19.577 -0.3452 -0.0185  0.0003
    8POPC   GL2   88  22.021  16.024  19.264 -0.0724  0.0909 -0.0536
    8POPC   C1A   89  22.352  16.303  19.540 -0.1034  0.0542 -0.1883
    8POPC   D2A   90  22.667  16.486  19.311  0.3536 -0.0517 -0.0821
    8POPC   C3A   91  22.971  16.646  19.019 -0.0541 -0.2264  0.3585
    8POPC   C4A   92  23.091  17.097  19.044 -0.0174 -0.1543 -0.0447
    8POPC   C1B   93  22.234  16.356  19.056 -0.2236  0.2704  0.2268
    8POPC   C2B   94  22.393  16.590  18.719  0.1101 -0.3593  0.0410
    8POPC   C3B   95  22.547  16.566  18.265  0.1045 -0.0471 -0.0454
    8POPC   C4B   96  22.713  16.433  17.920  0.3541 -0.0257 -0.2606
    9POPC   NC3   97   4.807   0.642  18.972  0.1087  0.1863 -0.0995
    9POPC   PO4   98   4.592   0.892  19.178 -0.0308  0.0849 -0.0140
    9POPC   GL1   99   4.479   1.172  18.961  0.1781 -0.1158 -0.0501
    9POPC   GL2  100   4.818   1.235  18.889 -0.0389 -0.0473 -0.1107
    9POPC   C1A  101   4.175   1.307  18.646  0.2859  0.1428 -0.2357
    9POPC   D2A  102   4.072   1.013  18.257  0.0767 -0.0068 -0.1681
    9POPC   C3A  103   4.169   1.223  17.807 -0.0752  0.1288  0.3261
    9POPC   C4A  104   4.447   1.323  17.417 -0.0252 -0.1322  0.0280
    9POPC   C1B  105   4.690   1.294  18.401 -0.0241  0.0040 -0.3224
    9POPC   C2B  106   4.619   1.014  18.040 -0.0823 -0.1807  0.0057
    9POPC   C3B  107   4.518   0.868  17.639 -0.1518  0.2132  0.3007
    9POPC   C4B  108   4.223   0.714  17.372  0.0398 -0.0801 -0.0603
   10POPC   NC3  109   1.019   3.691  19.035  0.0400  0.2472 -0.1606
   10POPC   PO4  110   1.295   3.437  19.162 -0.0238  0.0519 -0.1601
   10POPC   GL1  111   1.342   3.427  18.786  0.2123 -0.0451 -0.1222
   10POPC   GL2  112   1.381   3.672  18.644  0.0703  0.0907  0.0006
   10POPC   C1A  113   1.545   3.146  18.466  0.3703 -0.3587 -0.1503
   10POPC   D2A  114   1.568   2.691  18.318 -0.2154  0.0511 -0.3450
   10POPC   C3A  115   1.578   2.496  17.893  0.3654 -0.4251  0.0478
   10POPC   C4A  116   1.777   2.588  17.490 -0.3719 -0.0405 -0.0707
   10POPC   C1B  117   1.565   3.705  18.301  0.0782 -0.0451  0.1449
   10POPC   C2B  118   1.873   3.600  17.940 -0.0676 -0.1656  0.1361
   10POPC   C3B  119   2.127   3.285  17.723 -0.0657  0.0347 -0.2609
   10POPC   C4B  120   2.034   3.002  17.358 -0.2021  0.0274 -0.2312
   11POPC   NC3  121  26.851   0.663  19.191 -0.3138 -0.0793  0.1442
   11POPC   PO4  122  26.768   0.254  19.172 -0.1208 -0.0017  0.0821
   11POPC   GL1  123  26.780   0.208  18.788  0.0951 -0.0924  0.3913
   11POPC   GL2  124  26.984   0.446  18.739  0.4729 -0.3096 -0.0274
   11POPC   C1A  125  26.520   0.144  18.397  0.3564 -0.1157 -0.0368
   11POPC   D2A  126  26.300  -0.168  18.128 -0.1141  0.0525 -0.1912
   11POPC   C3A  127  25.909  -0.121  17.865 -0.3151 -0.1584 -0.1520
   11POPC   C4A  128  25.649   0.049  17.503 -0.1723 -0.0046  0.0914
   11POPC   C1B  129  26.928   0.680  18.399  0.0915  0.2342  0.0848
   11POPC   C2B  130  26.961   0.665  17.935  0.0443 -0.1632 -0.1568
   11POPC   C3B  131  27.142   0.615  17.492 -0.1089 -0.0531  0.0306
   11POPC   C4B  132  27.354   0.448  17.188 -0.1090  0.0399  0.2467
   12POPC   NC3  133  31.183  23.922  19.255 -0.2280 -0.1685 -0.0011
   12POPC   PO4  134  30.957  24.101  18.995 -0.0563 -0.0279 -0.0537
   12POPC   GL1  135  31.078  23.999  18.592  0.4523 -0.0894  0.3980
   12POPC   GL2  136  30.785  23.912  18.527  0.0261  0.4877  0.1563
   12POPC   C1A  137  31.235  23.850  18.195 -0.0225  0.1237 -0.0730
   12POPC   D2A  138  31.400  23.604  17.849 -0.1243  0.1977  0.3104
   12POPC   C3A  139  31.162  23.458  17.452 -0.2590  0.0170  0.0200
   12POPC   C4A  140  31.019  23.626  17.056 -0.0876  0.1832  0.1341
   12POPC   C1B  141  30.814  24.170  18.183 -0.0388 -0.2639 -0.1035
   12POPC   C2B  142  30.640  24.259  17.790  0.0689  0.2662  0.1366
   12POPC   C3B  143  30.459  24.056  17.461 -0.0184 -0.2897  0.0204
   12POPC   C4B  144  30.570  23.752  17.174  0.0307  0.0391 -0.0814
   13POPC   NC3  145  27.453  11.400  19.512  0.0924  0.0624 -0.1952
   13POPC   PO4  146  27.757  11.492  19.343 -0.0220  0.1876  0.1554
   13POPC   GL1  147  28.128  11.474  19.198  0.1351  0.0657  0.0502
   13POPC   GL2  148  28.053  11.315  18.978  0.1493 -0.0508  0.4423
   13POPC   C1A  149  28.340  11.729  18.841 -0.2434  0.2145 -0.0844
   13POPC   D2A  150  28.718  11.880  18.521  0.1003 -0.0665 -0.2330
   13POPC   C3A  151  28.639  11.888  18.058  0.0655 -0.2934 -0.1797
   13POPC   C4A  152  28.564  12.167  17.741  0.1400 -0.3558  0.0501
   13POPC   C1B  153  28.119  11.434  18.503  0.2256  0.2610 -0.1924
   13POPC   C2B  154  28.123  11.611  18.081 -0.3077  0.1086  0.1037
   13POPC   C3B  155  28.193  11.759  17.696 -0.1274  0.0077  0.1038
   13POPC   C4B  156  28.499  11.888  17.360 -0.3206  0.5064 -0.1719
   14POPC   NC3  157  10.584   5.039  19.284 -0.1562 -0.0502  0.0114
   14POPC   PO4  158  10.502   5.389  19.345  0.1668 -0.1042 -0.0272
   14POPC   GL1  159  10.408   5.473  18.895  0.1867 -0.1030 -0.2039
   14POPC   GL2  160  10.559   5.224  18.842  0.0063 -0.3169  0.2062
   14POPC   C1A  161  10.147   5.324  18.517 -0.1140 -0.1413 -0.1154
   14POPC   D2A  162  10.007   5.054  18.152  0.0556 -0.0213 -0.2816
   14POPC   C3A  163   9.708   5.164  17.781  0.2508  0.1537  0.0930
   14POPC   C4A  164   9.421   5.295  17.389 -0.3138 -0.2404  0.2954
   14POPC   C1B  165  10.546   5.002  18.413  0.3185  0.1242 -0.0326
   14POPC   C2B  166  10.443   4.927  17.994 -0.0368 -0.1341 -0.0173
   14POPC   C3B  167  10.132   4.712  17.711 -0.0360  0.0797  0.1643
   14POPC   C4B  168   9.883   4.635  17.358  0.2275  0.0874  0.1526
   15POPC   NC3  169  30.042  10.517  19.046  0.0710  0.0870 -0.0462
   15POPC   PO4  170  30.363  10.536  19.260  0.1750 -0.1489  0.2528
   15POPC   GL1  171  30.519  10.733  18.949  0.1781  0.2284  0.0482
   15POPC   GL2  172  30.492  11.022  18.976 -0.1960 -0.0577 -0.1686
   15POPC   C1A  173  30.721  10.713  18.558  0.2063 -0.1332  0.0635
   15POPC   D2A  174  30.817  10.784  18.110 -0.4699  0.2035 -0.0509
   15POPC   C3A  175  30.946  10.573  17.722 -0.3159 -0.1265  0.1802
   15POPC   C4A  176  30.768  10.593  17.309 -0.3194  0.3810 -0.1432
   15POPC   C1B  177  30.711  11.233  18.603 -0.0750 -0.0572 -0.1190
   15POPC   C2B  178  30.623  11.368  18.161 -0.2604  0.1676  0.1145
   15POPC   C3B  179  30.636  11.416  17.721 -0.2746 -0.0611 -0.3407
   15POPC   C4B  180  30.947  11.620  17.514  0.1011  0.0492  0.0888
   16POPC   NC3  181   7.301  24.591  19.163  0.1131 -0.1417 -0.0427
   16POPC   PO4  182   7.370  24.243  19.260  0.0804  0.1883  0.1088
   16POPC   GL1  183   7.267  24.083  18.949  0.0334 -0.1224  0.4980
   16POPC   GL2  184   7.408  23.972  18.743 -0.0243  0.1871 -0.0310
   16POPC   C1A  185   6.915  23.845  18.724  0.1438 -0.0676 -0.0651
   16POPC   D2A  186   6.610  23.501  18.657 -0.0721 -0.2451 -0.1354
   16POPC   C3A  187   6.676  23.135  18.333  0.0274  0.0290  0.2239
   16POPC   C4A  188   6.724  22.759  18.145  0.0563 -0.2096 -0.2527
   16POPC   C1B  189   7.367  23.969  18.290  0.2816 -0.2157  0.1200
   16POPC   C2B  190   7.242  23.747  17.928  0.3892 -0.0384 -0.0815
   16POPC   C3B  191   7.177  23.483  17.554 -0.0630 -0.1377 -0.2616
   16POPC   C4B  192   6.888  23.527  17.188  0.2045 -0.0250  0.0146
   17POPC   NC3  193  12.215  11.112  19.994 -0.2719 -0.1178 -0.0840
   17POPC   PO4  194  12.102  11.044  19.676  0.1260  0.0696  0.0323
   17POPC   GL1  195  12.254  11.169  19.282 -0.0951 -0.1886  0.2998
   17POPC   GL2  196  12.182  11.430  19.263 -0.1760 -0.0365 -0.0463
   17POPC   C1A  197  12.634  11.165  19.122 -0.2980 -0.1395  0.0124
   17POPC   D2A  198  13.061  11.350  19.251  0.0792  0.2933  0.2379
   17POPC   C3A  199  13.112  11.717  18.942 -0.0356  0.0275 -0.2987
   17POPC   C4A  200  13.125  11.833  18.480  0.0877 -0.0419  0.2576
   17POPC   C1B  201  12.229  11.431  18.874 -0.1719  0.2485 -0.1629
   17POPC   C2B  202  12.246  11.393  18.414 -0.1302  0.0262 -0.2315
   17POPC   C3B  203  12.446  11.256  18.029  0.0015 -0.0267 -0.2160
   17POPC   C4B  204  12.697  11.289  17.701 -0.0627 -0.0629  0.1513
   18POPC   NC3  205  14.531  18.254  18.903 -0.0234  0.3557  0.0822
   18POPC   PO4  206  14.163  18.232  18.787 -0.2710 -0.1682  0.1822
   18POPC   GL1  207  14.008  18.552  18.584  0.1352  0.0330  0.0484
   18POPC   GL2  208  14.275  18.627  18.557 -0.2410 -0.1764 -0.2312
   18POPC   C1A  209  13.709  18.617  18.158 -0.0414 -0.2209  0.2581
   18POPC   D2A  210  13.480  18.655  17.741  0.2537 -0.0394  0.2058
   18POPC   C3A  211  13.456  18.377  17.377 -0.1216  0.0375  0.0638
   18POPC   C4A  212  13.645  18.105  17.089  0.0152 -0.0148 -0.1947
   18POPC   C1B  213  14.541  18.445  18.295  0.3019  0.0098  0.1890
   18POPC   C2B  214  14.578  18.520  17.846  0.3517  0.1554 -0.1725
   18POPC   C3B  215  14.654  18.678  17.449  0.3057  0.1776 -0.0861
   18POPC   C4B  216  14.657  18.598  16.993 -0.1919 -0.1108 -0.0910
   19POPC   NC3  217   3.645  28.322  19.435  0.0191 -0.1278 -0.0081
   19POPC   PO4  218   3.857  28.051  19.655 -0.0414  0.1473 -0.1459
   19POPC   GL1  219   3.880  28.071  19.150  0.0974  0.0261  0.1006
   19POPC   GL2  220   3.937  27.957  18.969 -0.3025 -0.0516 -0.0995
   19POPC   C1A  221   3.582  28.314  18.933 -0.1570 -0.2224  0.4557
   19POPC   D2A  222   3.455  28.552  18.559  0.2323  0.1935  0.0660
   19POPC   C3A  223   3.683  28.497  18.182 -0.1358 -0.0025 -0.1118
   19POPC   C4A  224   3.824  28.306  17.780  0.0928  0.0889  0.1196
   19POPC   C1B  225   4.110  27.709  18.600  0.2502  0.1313  0.0849
   19POPC   C2B  226   4.205  27.607  18.140 -0.1568  0.0525  0.0015
   19POPC   C3B  227   4.188  27.378  17.763  0.0031 -0.0744  0.2733
   19POPC   C4B  228   4.157  27.400  17.325 -0.0085  0.0010 -0.0481
   20POPC   NC3  229   5.697   6.575  18.837  0.0999 -0.1431  0.0606
   20POPC   PO4  230   5.578   6.299  19.077 -0.2327  0.1969 -0.1699
   20POPC   GL1  231   5.506   5.882  19.111  0.1840  0.1647 -0.2876
   20POPC   GL2  232   5.551   5.709  18.910 -0.0953  0.2335  0.1676
   20POPC   C1A  233   5.098   5.756  18.862 -0.0661  0.0276  0.0672
   20POPC   D2A  234   4.987   5.743  18.452  0.1451  0.2528 -0.1749
   20POPC   C3A  235   5.020   6.164  18.189  0.2411  0.2555 -0.0947
   20POPC   C4A  236   4.763   6.328  17.853 -0.0438 -0.0493 -0.0196
   20POPC   C1B  237   5.512   5.636  18.466  0.2118  0.1569  0.0390
   20POPC   C2B  238   5.324   5.377  18.175 -0.0119  0.1126 -0.0025
   20POPC   C3B  239   5.211   5.225  17.750  0.0037 -0.3575  0.1484
   20POPC   C4B  240   4.792   5.216  17.428 -0.0220 -0.0004 -0.1290
   21POPC   NC3  241  11.324   2.709  19.051  0.2381  0.2940  0.1765
   21POPC   PO4  242  11.564   3.006  19.000 -0.0575 -0.0195  0.0812
   21POPC   GL1  243  11.470   2.825  18.652 -0.1558 -0.0240  0.3067
   21POPC   GL2  244  11.380   3.067  18.507 -0.3860  0.2731  0.1822
   21POPC   C1A  245  11.310   2.466  18.445 -0.0169  0.1708 -0.4207
   21POPC   D2A  246  11.182   2.024  18.385 -0.1178  0.2372 -0.2516
   21POPC   C3A  247  11.181   2.179  17.974 -0.0468  0.0507 -0.0025
   21POPC   C4A  248  11.122   2.445  17.642 -0.0557 -0.3690 -0.0799
   21POPC   C1B  249  11.256   3.174  18.122  0.1561  0.2915  0.0798
   21POPC   C2B  250  10.949   3.311  17.836 -0.1344 -0.0219  0.0378
   21POPC   C3B  251  10.612   3.459  17.631 -0.1120  0.1110  0.1923
   21POPC   C4B  252  10.337   3.676  17.363  0.0727  0.2494  0.1467
   22POPC   NC3  253  26.139  19.949  19.714 -0.0082 -0.3129 -0.2087
   22POPC   PO4  254  26.132  19.685  19.382 -0.1256 -0.0850 -0.0529
   22POPC   GL1  255  26.132  19.736  18.963  0.2048  0.2913 -0.5068
   22POPC   GL2  256  26.419  19.617  18.855 -0.1751 -0.2418 -0.0942
   22POPC   C1A  257  26.116  20.066  18.656  0.1780 -0.2331  0.1005
   22POPC   D2A  258  26.250  20.103  18.179  0.2550  0.4585 -0.1376
   22POPC   C3A  259  26.668  20.209  18.064  0.0050  0.0620  0.0882
   22POPC   C4A  260  27.085  20.101  18.138  0.0849 -0.0664 -0.2649
   22POPC   C1B  261  26.558  19.410  18.508 -0.1496  0.1304  0.0421
   22POPC   C2B  262  26.430  19.151  18.135 -0.1226  0.2156 -0.1604
   22POPC   C3B  263  26.366  18.864  17.758 -0.1714 -0.0886 -0.1994
   22POPC   C4B  264  26.440  18.709  17.343 -0.2198  0.0348  0.1229
   23POPC   NC3  265  17.308   1.050  19.213 -0.1560  0.1646  0.2393
   23POPC   PO4  266  16.911   1.060  19.256 -0.0746  0.2979  0.1921
   23POPC   GL1  267  16.932   1.288  18.996  0.2864  0.2503 -0.1130
   23POPC   GL2  268  17.001   1.579  19.004 -0.1391 -0.1936  0.0819
   23POPC   C1A  269  17.048   1.228  18.561 -0.1959 -0.1855  0.3189
   23POPC   D2A  270  17.344   1.199  18.190 -0.2831  0.2906 -0.0943
   23POPC   C3A  271  17.189   1.228  17.777 -0.0465 -0.2852 -0.0399
   23POPC   C4A  272  16.994   1.245  17.386 -0.1076  0.3307 -0.0325
   23POPC   C1B  273  17.365   1.460  18.867  0.4403 -0.5431 -0.4482
   23POPC   C2B  274  17.631   1.489  18.527 -0.2063 -0.0122  0.0144
   23POPC   C3B  275  17.683   1.859  18.314 -0.0459 -0.0659  0.2007
   23POPC   C4B  276  17.458   2.278  18.246 -0.2099  0.0012  0.0140
   24POPC   NC3  277  27.547  31.347  18.918  0.0269 -0.1124  0.0469
   24POPC   PO4  278  27.451  31.624  19.193 -0.2392 -0.0822 -0.2598
   24POPC   GL1  279  27.146  31.694  18.931  0.2644  0.0152 -0.4244
   24POPC   GL2  280  27.316  31.859  18.686  0.1559  0.0080 -0.2123
   24POPC   C1A  281  26.942  31.700  18.468 -0.2033  0.0298 -0.0875
   24POPC   D2A  282  27.092  31.751  18.095 -0.1027  0.0679 -0.1815
   24POPC   C3A  283  26.718  31.835  17.842  0.2013 -0.3170  0.0836
   24POPC   C4A  284  26.676  32.037  17.454 -0.2065 -0.1315  0.1959
   24POPC   C1B  285  27.394  32.225  18.427  0.2021 -0.0743  0.0438
   24POPC   C2B  286  27.411  32.204  17.989  0.1245 -0.0280  0.1799
   24POPC   C3B  287  27.238  31.874  17.676  0.1545  0.0447  0.1947
   24POPC   C4B  288  27.164  31.761  17.196  0.1015  0.3806  0.0284
   25POPC   NC3  289   5.862  14.715  19.394  0.0212  0.1176  0.2992
   25POPC   PO4  290   5.651  15.008  19.310 -0.1654 -0.2486  0.0425
   25POPC   GL1  291   6.016  15.127  19.205 -0.0936  0.1606  0.2497
   25POPC   GL2  292   6.088  14.886  18.980  0.0519 -0.0753 -0.2662
   25POPC   C1A  293   6.240  15.464  18.867  0.2129  0.1766 -0.1123
   25POPC   D2A  294   6.554  15.682  18.608 -0.0187 -0.0644  0.1132
   25POPC   C3A  295   6.685  15.567  18.155 -0.0769 -0.0131  0.0794
   25POPC   C4A  296   6.589  15.429  17.737 -0.0567 -0.0779 -0.0317
   25POPC   C1B  297   5.825  14.644  18.720 -0.1291  0.1653 -0.1112
   25POPC   C2B  298   5.808  14.641  18.284  0.0018  0.1137  0.3784
   25POPC   C3B  299   5.771  14.626  17.809  0.2171 -0.1990  0.0313
   25POPC   C4B  300   5.437  14.668  17.458 -0.2089  0.0753  0.2797
   26POPC   NC3  301   4.964   2.270  19.265  0.0233 -0.1248 -0.0751
   26POPC   PO4  302   5.292   2.051  19.406  0.0525 -0.0352  0.1029
   26POPC   GL1  303   5.467   2.227  19.132  0.0104  0.1516  0.2101
   26POPC   GL2  304   5.343   2.155  18.855 -0.0362 -0.0874  0.2525
   26POPC   C1A  305   5.792   2.211  18.813 -0.3797 -0.2305  0.0294
   26POPC   D2A  306   6.201   2.490  18.758 -0.2128  0.0535  0.0086
   26POPC   C3A  307   6.545   2.510  18.392  0.2421  0.0897 -0.1381
   26POPC   C4A  308   6.571   2.241  18.013  0.0774 -0.0932 -0.2622
   26POPC   C1B  309   5.517   1.816  18.607  0.2423  0.0465  0.2043
   26POPC   C2B  310   5.618   1.769  18.209 -0.3272 -0.0473  0.3329
   26POPC   C3B  311   5.692   1.661  17.778  0.0633  0.0098 -0.0721
   26POPC   C4B  312   5.465   1.516  17.456 -0.2527  0.1518 -0.2266
   27POPC   NC3  313  27.628  27.788  19.358  0.1011  0.2853  0.1543
   27POPC   PO4  314  28.035  27.867  19.441  0.2331 -0.0017  0.1181
   27POPC   GL1  315  28.089  27.478  19.148 -0.3560  0.1292 -0.3637
   27POPC   GL2  316  28.087  27.616  18.888 -0.1103  0.0500  0.2751
   27POPC   C1A  317  28.176  27.133  18.851 -0.1355  0.1161 -0.0917
   27POPC   D2A  318  28.179  27.022  18.392  0.0153  0.3169 -0.1708
   27POPC   C3A  319  28.242  27.211  17.950  0.0811  0.0108  0.0316
   27POPC   C4A  320  28.032  27.276  17.548 -0.1029 -0.0509 -0.1376
   27POPC   C1B  321  28.216  27.501  18.462 -0.1045 -0.2024  0.1071
   27POPC   C2B  322  28.437  27.665  18.044 -0.0985  0.1139  0.1838
   27POPC   C3B  323  28.495  27.629  17.605 -0.2215 -0.0897  0.1658
   27POPC   C4B  324  28.634  27.563  17.149  0.0202 -0.0423  0.0245
   28POPC   NC3  325   2.001  10.587  19.178 -0.1541 -0.1334  0.1403
   28POPC   PO4  326   1.741  10.884  19.353 -0.0085 -0.1007  0.3514
   28POPC   GL1  327   1.496  10.912  19.105  0.0343 -0.3080  0.0297
   28POPC   GL2  328   1.367  10.788  18.920  0.0989  0.1781  0.1398
   28POPC   C1A  329   1.489  11.218  18.723 -0.0783 -0.1272  0.0457
   28POPC   D2A  330   1.408  11.141  18.303 -0.0691 -0.2887 -0.2760
   28POPC   C3A  331   1.604  10.860  18.008  0.2661  0.3047 -0.1051
   28POPC   C4A  332   1.549  10.519  17.744  0.1854 -0.0273 -0.3901
   28POPC   C1B  333   1.625  10.653  18.566 -0.0516 -0.0740 -0.2235
   28POPC   C2B  334   2.018  10.723  18.350 -0.1363  0.0493 -0.0177
   28POPC   C3B  335   2.070  10.591  17.888 -0.0576  0.0902  0.0810
   28POPC   C4B  336   2.341  10.719  17.553  0.0334 -0.2552  0.2619
   29POPC   NC3  337   6.875  23.276  20.254 -0.0398 -0.0756 -0.0404
   29POPC   PO4  338   6.741  23.305  19.890  0.1951  0.2014  0.4283
   29POPC   GL1  339   6.777  22.994  19.671  0.3098  0.1101 -0.0765
   29POPC   GL2  340   6.913  22.781  19.788  0.1268  0.0654  0.1139
   29POPC   C1A  341   6.522  22.816  19.289 -0.2176  0.2332 -0.1150
   29POPC   D2A  342   6.428  22.505  19.035  0.2238 -0.0143  0.3713
   29POPC   C3A  343   6.673  22.166  18.921 -0.0479 -0.0350  0.0178
   29POPC   C4A  344   6.955  21.878  18.672 -0.1475  0.0134 -0.1072
   29POPC   C1B  345   7.309  22.764  19.591  0.1508  0.2709  0.1545
   29POPC   C2B  346   7.652  22.821  19.325 -0.0765  0.2219  0.1313
   29POPC   C3B  347   7.734  22.957  18.890 -0.0148  0.1067 -0.1825
   29POPC   C4B  348   7.818  22.991  18.410 -0.1408  0.5192  0.1774
   30POPC   NC3  349  12.274  19.564  19.425 -0.3135  0.1562 -0.3045
   30POPC   PO4  350  11.895  19.710  19.524  0.1090  0.0206  0.2207
   30POPC   GL1  351  11.862  19.775  19.239  0.2859  0.0398  0.3003
   30POPC   GL2  352  11.866  19.552  18.967  0.0773  0.0367 -0.1854
   30POPC   C1A  353  11.895  20.002  18.809  0.2998  0.1702  0.0981
   30POPC   D2A  354  12.025  20.107  18.370  0.0223  0.3287 -0.2435
   30POPC   C3A  355  11.785  19.985  17.952  0.0035  0.0127  0.0137
   30POPC   C4A  356  11.730  19.847  17.536  0.1176  0.0135  0.0811
   30POPC   C1B  357  11.718  19.640  18.490 -0.3165  0.0950  0.5105
   30POPC   C2B  358  11.489  19.640  18.082 -0.1087 -0.1839  0.2385
   30POPC   C3B  359  11.146  19.607  17.752  0.2974 -0.0385 -0.1007
   30POPC   C4B  360  10.920  19.185  17.708 -0.1712  0.3639  0.0170
   31POPC   NC3  361  25.075  22.885  19.059 -0.0873  0.1553 -0.0172
   31POPC   PO4  362  24.796  22.653  19.192 -0.0210 -0.1377  0.0855
   31POPC   GL1  363  24.816  22.467  18.853 -0.0537  0.0315  0.0261
   31POPC   GL2  364  24.739  22.733  18.677 -0.0692  0.0041  0.2689
   31POPC   C1A  365  24.840  22.177  18.503 -0.1406 -0.0985  0.1453
   31POPC   D2A  366  24.767  22.133  18.052 -0.0002  0.0738 -0.1847
   31POPC   C3A  367  24.716  21.952  17.628  0.2453 -0.1274  0.0077
   31POPC   C4A  368  24.833  21.719  17.284 -0.0149 -0.2343 -0.1835
   31POPC   C1B  369  24.709  23.145  18.454  0.2991  0.1169  0.2466
   31POPC   C2B  370  24.881  23.399  18.076 -0.0180  0.2394 -0.2058
   31POPC   C3B  371  24.926  23.496  17.619 -0.0063  0.1531 -0.2387
   31POPC   C4B  372  24.998  23.247  17.178 -0.1352  0.1010  0.1042
   32POPC   NC3  373  19.449   5.426  19.795 -0.2538  0.1432 -0.0943
   32POPC   PO4  374  19.445   5.676  19.480  0.1354 -0.0738 -0.0411
   32POPC   GL1  375  19.251   5.809  19.068 -0.0134 -0.0360  0.0084
   32POPC   GL2  376  19.281   6.068  19.099 -0.2128 -0.2758 -0.1984
   32POPC   C1A  377  19.103   5.922  18.650 -0.1275 -0.1471 -0.1835
   32POPC   D2A  378  18.999   6.057  18.216 -0.3716 -0.0974 -0.2621
   32POPC   C3A  379  19.223   5.994  17.829 -0.0059 -0.2116 -0.0766
   32POPC   C4A  380  19.569   5.931  17.549 -0.1326 -0.3824 -0.1102
   32POPC   C1B  381  19.657   6.006  18.806  0.0204  0.3443 -0.0944
   32POPC   C2B  382  19.744   6.387  18.547  0.3348 -0.4265  0.1563
   32POPC   C3B  383  19.996   6.511  18.187 -0.0144 -0.3015 -0.2099
   32POPC   C4B  384  20.269   6.700  17.873 -0.3050  0.1207 -0.0367
   33POPC   NC3  385  16.266  24.743  18.785  0.1154 -0.0211 -0.0569
   33POPC   PO4  386  15.959  24.950  19.005  0.0039  0.1897  0.1267
   33POPC   GL1  387  16.055  25.093  18.686 -0.0218 -0.4902 -0.2005
   33POPC   GL2  388  15.905  25.117  18.425 -0.0315 -0.1300 -0.1156
   33POPC   C1A  389  16.191  25.460  18.374 -0.0943  0.2042 -0.1687
   33POPC   D2A  390  16.298  25.411  17.939  0.0800  0.1961  0.0229
   33POPC   C3A  391  15.971  25.331  17.671 -0.1963  0.0454  0.1761
   33POPC   C4A  392  15.592  25.445  17.413 -0.1756 -0.0509  0.0820
   33POPC   C1B  393  16.039  24.918  18.041  0.0050 -0.2038 -0.0670
   33POPC   C2B  394  16.110  24.511  17.907 -0.0063 -0.1522  0.0914
   33POPC   C3B  395  16.068  24.351  17.476 -0.0978 -0.0286 -0.2225
   33POPC   C4B  396  15.968  23.965  17.312  0.0170  0.1526  0.2068
   34POPC   NC3  397   1.692   9.964  19.538  0.0714 -0.0593  0.1962
   34POPC   PO4  398   1.911  10.123  19.272  0.0301  0.0945  0.1819
   34POPC   GL1  399   1.999  10.026  18.869  0.2139 -0.0097 -0.0787
   34POPC   GL2  400   1.779  10.205  18.713 -0.1604 -0.3342 -0.2655
   34POPC   C1A  401   2.283   9.903  18.471  0.1477 -0.1061 -0.0984
   34POPC   D2A  402   2.286   9.858  18.034  0.3585 -0.0634 -0.0062
   34POPC   C3A  403   2.206   9.822  17.593  0.0426 -0.0806  0.2278
   34POPC   C4A  404   2.448  10.146  17.374  0.0955  0.2483  0.1742
   34POPC   C1B  405   1.885  10.239  18.250 -0.2025  0.0809 -0.0113
   34POPC   C2B  406   1.911  10.124  17.818  0.0373 -0.3161  0.2292
   34POPC   C3B  407   1.911  10.300  17.404  0.0642 -0.0525 -0.0579
   34POPC   C4B  408   1.991  10.671  17.085  0.0090 -0.1515 -0.1220
   35POPC   NC3  409   1.054  30.632  18.955  0.4000  0.1737  0.0176
   35POPC   PO4  410   0.921  30.812  19.262 -0.2728  0.0553 -0.0976
   35POPC   GL1  411   0.826  30.998  18.918 -0.0623  0.1993  0.4031
   35POPC   GL2  412   0.898  31.226  18.928 -0.0102 -0.1798  0.0810
   35POPC   C1A  413   0.982  30.911  18.474  0.4710 -0.1518 -0.2080
   35POPC   D2A  414   1.144  30.958  18.068  0.0469 -0.3326  0.0183
   35POPC   C3A  415   0.906  30.754  17.686 -0.0685  0.2615  0.0929
   35POPC   C4A  416   0.600  30.653  17.308 -0.0807  0.0471 -0.0393
   35POPC   C1B  417   0.700  31.379  18.542 -0.0928 -0.1598 -0.1675
   35POPC   C2B  418   0.429  31.377  18.166 -0.0640 -0.0198 -0.1226
   35POPC   C3B  419   0.201  31.347  17.752  0.1019  0.0988 -0.0708
   35POPC   C4B  420  -0.156  31.406  17.477  0.1748 -0.1123  0.4794
   36POPC   NC3  421  16.359  30.796  19.311 -0.0696  0.1317  0.0364
   36POPC   PO4  422  16.305  30.402  19.324  0.0323 -0.2113  0.1657
   36POPC   GL1  423  16.491  30.412  18.884  0.0126  0.1144 -0.0189
   36POPC   GL2  424  16.221  30.368  18.762  0.1926  0.1220 -0.1245
   36POPC   C1A  425  16.631  30.155  18.486 -0.0591  0.0101 -0.0130
   36POPC   D2A  426  16.683  30.057  18.028  0.1361 -0.1273  0.1606
   36POPC   C3A  427  16.871  30.288  17.609  0.1373 -0.0027 -0.0426
   36POPC   C4A  428  16.973  30.559  17.254  0.1092  0.2568  0.0547
   36POPC   C1B  429  16.307  30.582  18.369 -0.0217  0.1225  0.0123
   36POPC   C2B  430  16.500  30.508  17.959 -0.0047 -0.6141  0.0424
   36POPC   C3B  431  16.643  30.807  17.661  0.1207  0.1609  0.1987
   36POPC   C4B  432  16.973  31.071  17.493 -0.1383 -0.2745 -0.3417
   37POPC   NC3  433  26.368  27.589  19.605  0.2424  0.0066  0.4884
   37POPC   PO4  434  26.678  27.380  19.562  0.0177  0.0180 -0.4314
   37POPC   GL1  435  26.500  27.285  19.250 -0.0453 -0.3416 -0.1521
   37POPC   GL2  436  26.462  27.531  19.045 -0.1597  0.3675 -0.0054
   37POPC   C1A  437  26.250  27.086  18.878 -0.0600 -0.0639  0.2185
   37POPC   D2A  438  26.256  27.047  18.395 -0.1577  0.0980 -0.0725
   37POPC   C3A  439  25.959  27.256  18.156 -0.1768  0.1425  0.4121
   37POPC   C4A  440  25.558  27.224  17.884  0.0995  0.3016 -0.0247
   37POPC   C1B  441  26.698  27.599  18.688 -0.1236 -0.1163 -0.0316
   37POPC   C2B  442  26.868  27.682  18.229 -0.0786 -0.0386 -0.1244
   37POPC   C3B  443  26.710  27.453  17.803 -0.1967  0.0504 -0.0648
   37POPC   C4B  444  26.410  27.206  17.901  0.0079 -0.0627 -0.1708
   38POPC   NC3  445   6.772  27.190  19.157  0.0016 -0.3021 -0.0355
   38POPC   PO4  446   7.104  26.962  19.100 -0.0294 -0.1372 -0.1449
   38POPC   GL1  447   7.036  27.073  18.743 -0.0597 -0.0062 -0.4900
   38POPC   GL2  448   6.807  26.841  18.710 -0.0921 -0.0466  0.0512
   38POPC   C1A  449   7.070  27.223  18.266 -0.0875  0.1661  0.1418
   38POPC   D2A  450   7.025  27.138  17.818 -0.0063  0.0023  0.2916
   38POPC   C3A  451   6.583  26.950  17.598  0.0547 -0.0479 -0.3666
   38POPC   C4A  452   6.159  26.764  17.606  0.1124  0.0258 -0.0645
   38POPC   C1B  453   6.385  26.729  18.663 -0.1440 -0.1535 -0.1088
   38POPC   C2B  454   6.164  27.082  18.408 -0.2668 -0.0197 -0.2671
   38POPC   C3B  455   6.088  27.244  17.948 -0.0349  0.1614 -0.0928
   38POPC   C4B  456   6.115  27.494  17.589 -0.0879  0.1447 -0.2460
   39POPC   NC3  457  21.248  22.220  19.234 -0.1424  0.0883 -0.0316
   39POPC   PO4  458  20.946  22.444  19.318  0.0867  0.0518 -0.2143
   39POPC   GL1  459  20.958  22.384  18.913  0.1778 -0.3561 -0.1340
   39POPC   GL2  460  21.162  22.654  18.927  0.3896 -0.1559 -0.1756
   39POPC   C1A  461  20.642  22.218  18.632 -0.1551 -0.1836  0.3048
   39POPC   D2A  462  20.459  21.865  18.427  0.3189  0.1159  0.1681
   39POPC   C3A  463  20.495  21.836  17.961 -0.2187  0.0314  0.2813
   39POPC   C4A  464  20.459  21.502  17.641 -0.0465  0.2187 -0.0837
   39POPC   C1B  465  21.214  22.879  18.517  0.0023 -0.3131 -0.0532
   39POPC   C2B  466  21.228  22.851  18.081  0.2182 -0.4546  0.0490
   39POPC   C3B  467  21.173  22.541  17.715  0.1846 -0.4293 -0.0528
   39POPC   C4B  468  21.388  22.230  17.384  0.1469 -0.0269  0.1763
   40POPC   NC3  469  12.950  10.993  19.574 -0.0668 -0.1109 -0.3427
   40POPC   PO4  470  12.567  10.930  19.695  0.2037  0.0220 -0.3822
   40POPC   GL1  471  12.679  10.771  19.331  0.1311 -0.2633  0.1864
   40POPC   GL2  472  12.411  10.719  19.216 -0.1368  0.1560 -0.4528
   40POPC   C1A  473  12.919  10.772  18.949 -0.0569  0.3400 -0.2454
   40POPC   D2A  474  12.941  10.872  18.510  0.3205  0.0129  0.1228
   40POPC   C3A  475  12.911  11.255  18.242 -0.0557  0.2853  0.1436
   40POPC   C4A  476  12.718  11.650  18.076 -0.1424 -0.0477  0.2322
   40POPC   C1B  477  12.412  10.815  18.790 -0.2260 -0.1360  0.0864
   40POPC   C2B  478  12.443  10.877  18.326  0.3439  0.0660 -0.1596
   40POPC   C3B  479  12.808  10.817  18.000 -0.2300 -0.0128  0.1226
   40POPC   C4B  480  13.213  11.038  17.897 -0.1321  0.0341 -0.1763
   41POPC   NC3  481  28.605   6.435  19.263  0.0116 -0.2014  0.0865
   41POPC   PO4  482  28.709   6.783  19.096  0.2375 -0.1373  0.3489
   41POPC   GL1  483  28.788   6.802  18.681  0.3531 -0.6247 -0.2118
   41POPC   GL2  484  28.956   6.836  18.523  0.0366  0.2932  0.0688
   41POPC   C1A  485  28.548   6.702  18.283  0.2426  0.3622  0.1226
   41POPC   D2A  486  28.382   6.715  17.838  0.2145  0.2579 -0.0544
   41POPC   C3A  487  28.564   7.002  17.516  0.0993  0.0725 -0.3012
   41POPC   C4A  488  28.666   7.118  17.049 -0.1094 -0.2896 -0.2221
   41POPC   C1B  489  29.016   6.516  18.196  0.1718  0.0454 -0.5771
   41POPC   C2B  490  28.830   6.555  17.795  0.1574  0.1218  0.0456
   41POPC   C3B  491  29.022   6.366  17.362 -0.0869  0.1115  0.2134
   41POPC   C4B  492  29.145   6.211  16.995 -0.0373 -0.0536 -0.1774
   42POPC   NC3  493   1.042   7.914  19.159 -0.0282 -0.0503 -0.0761
   42POPC   PO4  494   0.683   7.879  19.382  0.1671 -0.0893  0.1729
   42POPC   GL1  495   0.627   7.989  18.890  0.1914  0.0545  0.0726
   42POPC   GL2  496   0.523   7.755  18.822  0.0515  0.2638 -0.0894
   42POPC   C1A  497   0.844   8.294  18.604 -0.2663  0.0589  0.2399
   42POPC   D2A  498   0.849   8.322  18.111  0.2279  0.0734 -0.3215
   42POPC   C3A  499   0.981   8.420  17.694 -0.1682  0.2544  0.1984
   42POPC   C4A  500   1.339   8.665  17.656  0.0065 -0.0795 -0.1900
   42POPC   C1B  501   0.673   7.885  18.453 -0.2738 -0.0129  0.1422
   42POPC   C2B  502   0.657   7.652  18.062  0.1975 -0.1363  0.0839
   42POPC   C3B  503   0.941   7.257  17.881  0.0878 -0.0132 -0.1649
   42POPC   C4B  504   1.239   7.150  17.557  0.6227 -0.0225 -0.0405
   43POPC   NC3  505  16.511   1.041  19.466 -0.0407  0.0186 -0.1357
   43POPC   PO4  506  16.521   1.378  19.241  0.0608  0.1834  0.0865
   43POPC   GL1  507  16.480   1.306  18.864  0.2668 -0.0963  0.2548
   43POPC   GL2  508  16.590   1.539  18.759  0.1856 -0.1078  0.1801
   43POPC   C1A  509  16.607   0.971  18.601 -0.0605 -0.0501 -0.1390
   43POPC   D2A  510  16.629   0.767  18.167  0.1103 -0.0261  0.0225
   43POPC   C3A  511  16.777   0.859  17.772  0.0384 -0.0585 -0.3759
   43POPC   C4A  512  17.064   0.639  17.537 -0.3369 -0.4147  0.4699
   43POPC   C1B  513  16.601   1.339  18.312 -0.0162  0.1661 -0.1371
   43POPC   C2B  514  16.618   1.340  17.825 -0.0348 -0.1338 -0.0638
   43POPC   C3B  515  16.472   1.104  17.416 -0.0037 -0.1056 -0.2457
   43POPC   C4B  516  16.662   0.850  17.219  0.2733 -0.0012 -0.0594
   44POPC   NC3  517  23.375  30.861  19.263 -0.1034  0.0916  0.4432
   44POPC   PO4  518  23.222  31.200  19.428  0.0519 -0.3982 -0.1524
   44POPC   GL1  519  23.181  31.423  19.130  0.0889 -0.0164  0.0150
   44POPC   GL2  520  23.226  31.699  19.073 -0.1117 -0.1228  0.1188
   44POPC   C1A  521  22.977  31.420  18.708  0.0937 -0.1048  0.0526
   44POPC   D2A  522  22.970  31.374  18.270 -0.2433 -0.1530  0.0436
   44POPC   C3A  523  22.823  30.957  18.161 -0.2104 -0.0384 -0.0060
   44POPC   C4A  524  22.896  30.756  17.712 -0.1539 -0.2367  0.0561
   44POPC   C1B  525  23.256  31.807  18.607  0.3356 -0.0798  0.0166
   44POPC   C2B  526  23.177  31.836  18.131 -0.0343 -0.0204  0.2044
   44POPC   C3B  527  23.187  31.688  17.688 -0.1392 -0.1755  0.0208
   44POPC   C4B  528  23.396  31.397  17.391 -0.1516  0.1671 -0.0203
   45POPC   NC3  529   5.797  10.213  18.872 -0.0381 -0.0894  0.0425
   45POPC   PO4  530   5.942   9.883  18.874 -0.0219  0.2386  0.0562
   45POPC   GL1  531   6.051   9.839  18.438 -0.0418 -0.0531  0.0351
   45POPC   GL2  532   5.835   9.933  18.336  0.0205  0.0620 -0.0688
   45POPC   C1A  533   6.153   9.905  17.972 -0.1371  0.2202  0.2528
   45POPC   D2A  534   6.075   9.970  17.501  0.1892 -0.1159 -0.1382
   45POPC   C3A  535   5.962  10.221  17.127 -0.2505  0.3902  0.0110
   45POPC   C4A  536   6.108  10.144  16.731 -0.0188  0.0480  0.1425
   45POPC   C1B  537   5.660   9.960  17.890  0.1591 -0.3209  0.1562
   45POPC   C2B  538   5.692  10.233  17.555 -0.2057 -0.0698  0.3086
   45POPC   C3B  539   5.403  10.292  17.212  0.1203  0.2302  0.1000
   45POPC   C4B  540   4.946  10.212  17.085  0.0335  0.1082  0.0382
   46POPC   NC3  541   1.480  14.204  19.286 -0.1157 -0.1889  0.2116
   46POPC   PO4  542   1.429  14.460  18.948 -0.3926  0.0207  0.1636
   46POPC   GL1  543   1.639  14.468  18.602  0.0415  0.1660 -0.2436
   46POPC   GL2  544   1.549  14.692  18.355  0.0274 -0.0644  0.0142
   46POPC   C1A  545   1.926  14.147  18.434 -0.4252 -0.0504  0.1904
   46POPC   D2A  546   2.044  13.815  18.129  0.1184  0.4911 -0.3349
   46POPC   C3A  547   2.038  13.877  17.671 -0.1054 -0.0767 -0.1255
   46POPC   C4A  548   1.861  13.923  17.229 -0.1209  0.0317 -0.1250
   46POPC   C1B  549   1.440  14.225  18.258  0.2003  0.2915  0.0177
   46POPC   C2B  550   1.574  13.827  18.026 -0.0365 -0.3343 -0.1724
   46POPC   C3B  551   1.833  13.480  17.855 -0.0293  0.0547  0.2795
   46POPC   C4B  552   2.261  13.354  17.740 -0.2973 -0.1406  0.0498
   47POPC   NC3  553   5.321  27.035  20.053 -0.0858 -0.2164 -0.1147
   47POPC   PO4  554   5.311  27.372  19.826  0.0180 -0.0189  0.1135
   47POPC   GL1  555   5.568  27.403  19.488 -0.2867  0.1330  0.0050
   47POPC   GL2  556   5.719  27.641  19.399  0.1583  0.2300 -0.2383
   47POPC   C1A  557   5.699  27.256  19.077  0.0316  0.1993  0.1603
   47POPC   D2A  558   5.837  27.435  18.679 -0.0916  0.1024 -0.2149
   47POPC   C3A  559   6.200  27.567  18.392  0.0721  0.0416  0.1768
   47POPC   C4A  560   6.202  27.911  18.020 -0.2685 -0.0882  0.2273
   47POPC   C1B  561   6.018  27.704  19.054  0.1634 -0.2926  0.2643
   47POPC   C2B  562   5.963  27.922  18.668  0.1564 -0.0887  0.3703
   47POPC   C3B  563   5.768  27.886  18.255 -0.0181  0.0213 -0.1916
   47POPC   C4B  564   5.716  27.671  17.832  0.5569 -0.0779  0.2896
   48POPC   NC3  565  22.967  28.971  19.950 -0.2732 -0.2831  0.0477
   48POPC   PO4  566  23.132  28.818  19.599 -0.0223  0.2041  0.2156
   48POPC   GL1  567  23.159  28.775  19.198  0.4632 -0.0685  0.0180
   48POPC   GL2  568  22.950  28.826  19.093 -0.3150  0.1425 -0.1914
   48POPC   C1A  569  23.354  28.938  18.790  0.1789  0.1132  0.1541
   48POPC   D2A  570  23.266  29.249  18.455 -0.0270 -0.0286 -0.2681
   48POPC   C3A  571  23.162  29.571  18.743  0.3818 -0.1117 -0.0230
   48POPC   C4A  572  22.790  29.835  18.870 -0.2077  0.0431 -0.0041
   48POPC   C1B  573  22.869  29.118  18.744 -0.3496 -0.1240  0.0311
   48POPC   C2B  574  22.760  29.462  18.468 -0.0366 -0.0376  0.1747
   48POPC   C3B  575  22.749  29.781  18.169  0.0971  0.1984  0.0617
   48POPC   C4B  576  22.541  29.990  17.822 -0.3647  0.1019 -0.1066
   49POPC   NC3  577  22.076  21.491  19.806  0.2415  0.1032 -0.0367
   49POPC   PO4  578  22.249  21.221  19.590 -0.2877 -0.0510 -0.1145
   49POPC   GL1  579  22.030  20.933  19.334  0.2348 -0.3767 -0.0618
   49POPC   GL2  580  21.946  20.829  19.584 -0.1620 -0.3529  0.2412
   49POPC   C1A  581  22.235  20.654  19.009  0.1479  0.2365 -0.0667
   49POPC   D2A  582  22.509  20.741  18.706 -0.3231 -0.0517 -0.1539
   49POPC   C3A  583  22.747  20.350  18.636  0.0519  0.0169  0.0395
   49POPC   C4A  584  22.662  19.991  18.371 -0.0524  0.3207  0.0753
   49POPC   C1B  585  21.993  20.412  19.327  0.0744  0.3042  0.3985
   49POPC   C2B  586  21.985  20.023  18.978  0.2390 -0.0583  0.0310
   49POPC   C3B  587  21.878  19.573  18.786 -0.1148 -0.0999 -0.6069
   49POPC   C4B  588  21.936  19.133  18.667 -0.0147  0.0250 -0.1429
   50POPC   NC3  589  25.252   1.146  19.459  0.2733  0.3701  0.0234
   50POPC   PO4  590  24.938   0.984  19.217  0.1651 -0.1240 -0.0887
   50POPC   GL1  591  24.928   0.893  18.826 -0.2367  0.2966  0.3489
   50POPC   GL2  592  25.188   0.766  18.740 -0.1132  0.0602 -0.0524
   50POPC   C1A  593  24.614   0.985  18.529 -0.1666 -0.0021 -0.0807
   50POPC   D2A  594  24.348   1.386  18.416  0.1153  0.1643  0.1296
   50POPC   C3A  595  24.070   1.196  18.094 -0.0955  0.0368 -0.0238
   50POPC   C4A  596  23.875   1.179  17.700  0.0500  0.2378  0.0168
   50POPC   C1B  597  25.061   0.557  18.375  0.2813 -0.3460 -0.0908
   50POPC   C2B  598  24.959   0.250  17.981  0.1301 -0.0243 -0.0192
   50POPC   C3B  599  25.036   0.116  17.567 -0.0999 -0.2093 -0.1746
   50POPC   C4B  600  24.898  -0.083  17.319  0.1324 -0.3250 -0.0734
   51POPC   NC3  601  10.285  23.586  19.096 -0.1138  0.1640  0.1121
   51POPC   PO4  602  10.212  23.214  19.224  0.2560  0.0149  0.1769
   51POPC   GL1  603  10.235  23.138  18.821  0.1085  0.2109 -0.0777
   51POPC   GL2  604  10.027  23.105  18.547  0.2608  0.0552  0.0863
   51POPC   C1A  605  10.484  23.164  18.410 -0.0761  0.1724 -0.1391
   51POPC   D2A  606  10.781  23.327  18.113  0.1129  0.1140 -0.0730
   51POPC   C3A  607  10.997  23.322  17.691 -0.1383  0.0331  0.1651
   51POPC   C4A  608  11.357  23.310  17.432 -0.2582 -0.1352  0.0989
   51POPC   C1B  609   9.717  23.178  18.250  0.0094  0.0350 -0.2455
   51POPC   C2B  610   9.708  23.084  17.808 -0.2599 -0.0236 -0.2472
   51POPC   C3B  611   9.863  22.684  17.575  0.0100 -0.2427  0.1274
   51POPC   C4B  612  10.129  22.269  17.597 -0.0267 -0.0027 -0.2088
   52POPC   NC3  613  15.454  22.199  19.099  0.1702 -0.3616  0.1487
   52POPC   PO4  614  15.693  21.909  19.197 -0.1301 -0.1754 -0.3807
   52POPC   GL1  615  15.771  22.066  18.757 -0.2004  0.0463 -0.0789
   52POPC   GL2  616  15.870  21.900  18.642 -0.1071  0.0089  0.2672
   52POPC   C1A  617  15.566  22.084  18.295 -0.1493 -0.1069 -0.0945
   52POPC   D2A  618  15.649  22.133  17.842  0.0269 -0.1448  0.2423
   52POPC   C3A  619  15.959  21.957  17.570 -0.0190 -0.0066 -0.0954
   52POPC   C4A  620  15.834  21.657  17.257 -0.3159 -0.1866  0.0242
   52POPC   C1B  621  15.942  21.751  18.219 -0.0449 -0.1042  0.0160
   52POPC   C2B  622  16.083  21.511  17.800  0.0764  0.0425  0.0957
   52POPC   C3B  623  15.959  21.113  17.614 -0.0294 -0.1951 -0.2243
   52POPC   C4B  624  15.739  20.874  17.243 -0.0040 -0.1847 -0.1676
   53POPC   NC3  625  15.262  10.578  18.874 -0.1936  0.2156 -0.0371
   53POPC   PO4  626  14.901  10.469  18.873 -0.0883 -0.2437 -0.0790
   53POPC   GL1  627  14.934  10.464  18.482 -0.1121  0.0198  0.0493
   53POPC   GL2  628  14.679  10.468  18.428 -0.3080  0.1587  0.2725
   53POPC   C1A  629  15.052  10.589  18.045  0.2631 -0.0466  0.1068
   53POPC   D2A  630  15.015  10.443  17.640  0.1769 -0.0043 -0.3792
   53POPC   C3A  631  14.944  10.653  17.200 -0.3004  0.0899 -0.2651
   53POPC   C4A  632  15.204  10.953  16.973  0.1079 -0.0731  0.4161
   53POPC   C1B  633  14.582  10.227  18.039 -0.2683 -0.1067  0.2909
   53POPC   C2B  634  14.199  10.230  17.770 -0.0514  0.0406 -0.0954
   53POPC   C3B  635  14.148  10.249  17.292  0.1983 -0.2236  0.0588
   53POPC   C4B  636  14.325  10.180  16.862  0.0852 -0.0559 -0.0921
   54POPC   NC3  637   6.556  14.874  19.756  0.0286  0.0440  0.3702
   54POPC   PO4  638   6.311  14.830  19.477 -0.1171 -0.1286  0.2778
   54POPC   GL1  639   6.481  15.093  19.287  0.4073  0.0880  0.1781
   54POPC   GL2  640   6.814  15.047  19.281 -0.0287  0.1125 -0.3296
   54POPC   C1A  641   6.578  15.100  18.803  0.0648  0.0848  0.2333
   54POPC   D2A  642   6.779  14.809  18.448 -0.5001  0.2849  0.2422
   54POPC   C3A  643   6.964  15.086  18.090  0.0615 -0.0418  0.1548
   54POPC   C4A  644   7.102  15.523  17.930 -0.0214  0.1753 -0.2813
   54POPC   C1B  645   6.885  14.640  19.002  0.0802  0.0704  0.3105
   54POPC   C2B  646   6.871  14.222  18.971  0.2102  0.1900  0.0654
   54POPC   C3B  647   6.895  13.783  18.744 -0.2645 -0.0640  0.0177
   54POPC   C4B  648   7.082  13.694  18.298 -0.0239 -0.0171  0.1386
   55POPC   NC3  649   6.114  28.991  19.178 -0.0099  0.0817 -0.1156
   55POPC   PO4  650   5.903  28.894  19.458  0.1706 -0.0021 -0.3215
   55POPC   GL1  651   5.841  28.560  19.250 -0.0887 -0.0909  0.3746
   55POPC   GL2  652   5.589  28.596  19.095 -0.1889  0.1703 -0.1509
   55POPC   C1A  653   5.923  28.474  18.792  0.0097  0.1116  0.1641
   55POPC   D2A  654   6.028  28.585  18.334 -0.2283  0.2877  0.0629
   55POPC   C3A  655   5.873  28.317  17.985  0.0892  0.0830  0.3071
   55POPC   C4A  656   5.959  28.053  17.570  0.0919  0.0300 -0.2554
   55POPC   C1B  657   5.427  28.763  18.705 -0.0267 -0.1395  0.2167
   55POPC   C2B  658   5.529  28.949  18.257  0.3217  0.1053 -0.0432
   55POPC   C3B  659   5.503  29.049  17.824 -0.0703 -0.2052 -0.0911
   55POPC   C4B  660   5.541  28.983  17.405  0.2969  0.3181  0.4240
   56POPC   NC3  661   0.452  17.704  19.312 -0.2331  0.2054  0.0594
   56POPC   PO4  662   0.846  17.746  19.307  0.2333 -0.0651 -0.2198
   56POPC   GL1  663   0.887  17.633  18.984 -0.1574 -0.1047 -0.1763
   56POPC   GL2  664   0.722  17.842  18.838 -0.0138  0.2584 -0.0222
   56POPC   C1A  665   1.137  17.786  18.610  0.2185 -0.1195  0.0411
   56POPC   D2A  666   1.096  17.682  18.141 -0.1829 -0.3442  0.0613
   56POPC   C3A  667   1.142  17.159  18.108  0.2300  0.1290 -0.3151
   56POPC   C4A  668   1.276  16.789  18.385  0.0754  0.3321 -0.1179
   56POPC   C1B  669   0.718  17.912  18.331  0.2420 -0.1390 -0.2892
   56POPC   C2B  670   0.792  18.055  17.909 -0.0268  0.0046 -0.3544
   56POPC   C3B  671   0.551  17.799  17.615  0.1633 -0.2278  0.0247
   56POPC   C4B  672   0.467  17.418  17.360 -0.1650 -0.0605  0.0611
   57POPC   NC3  673  12.443   0.785  18.817 -0.0809  0.0215 -0.3798
   57POPC   PO4  674  12.503   0.393  18.840  0.0292 -0.1032  0.0481
   57POPC   GL1  675  12.429   0.400  18.368  0.3092  0.0355 -0.0629
   57POPC   GL2  676  12.440   0.701  18.317  0.0351 -0.2460 -0.2705
   57POPC   C1A  677  12.590   0.315  17.959  0.0220 -0.0319 -0.2125
   57POPC   D2A  678  12.792   0.108  17.637 -0.0529 -0.0186 -0.1531
   57POPC   C3A  679  12.755   0.101  17.171 -0.2644  0.1031 -0.0024
   57POPC   C4A  680  12.520   0.364  16.955  0.2621  0.1150  0.0172
   57POPC   C1B  681  12.098   0.548  17.985 -0.1063 -0.1989 -0.1597
   57POPC   C2B  682  11.947   0.734  17.560  0.0111  0.0633 -0.2836
   57POPC   C3B  683  11.876   1.019  17.207 -0.1451 -0.2604  0.2545
   57POPC   C4B  684  11.583   1.348  17.067 -0.1078  0.1141  0.1033
   58POPC   NC3  685   9.434  30.982  19.511  0.0738  0.0056 -0.1354
   58POPC   PO4  686   9.340  30.642  19.323  0.1747 -0.1027  0.0688
   58POPC   GL1  687   9.220  30.842  18.982  0.1564 -0.0792 -0.0426
   58POPC   GL2  688   9.331  31.099  19.041  0.2228  0.2255 -0.1456
   58POPC   C1A  689   9.165  30.546  18.565 -0.1355 -0.0658 -0.2985
   58POPC   D2A  690   9.233  30.358  18.128 -0.1910  0.0310 -0.1002
   58POPC   C3A  691   9.385  30.524  17.750 -0.0785  0.0928  0.0946
   58POPC   C4A  692   9.370  30.448  17.332 -0.4715 -0.0356  0.1867
   58POPC   C1B  693   9.496  31.094  18.599  0.1689  0.0432  0.2093
   58POPC   C2B  694   9.661  30.938  18.167 -0.1685 -0.1006 -0.4323
   58POPC   C3B  695   9.668  31.218  17.783  0.0700 -0.2447  0.0289
   58POPC   C4B  696   9.750  31.512  17.429  0.2096 -0.1134  0.0550
   59POPC   NC3  697  24.530  24.298  19.284  0.0953  0.0121 -0.0039
   59POPC   PO4  698  24.263  23.968  19.270  0.3006 -0.1330  0.0002
   59POPC   GL1  699  24.262  24.084  18.829  0.0459  0.3222 -0.0381
   59POPC   GL2  700  24.076  23.919  18.736  0.0449  0.3579  0.4079
   59POPC   C1A  701  24.541  24.336  18.566 -0.1732  0.1075 -0.0136
   59POPC   D2A  702  24.798  24.546  18.258 -0.1290 -0.0244 -0.1416
   59POPC   C3A  703  24.668  24.474  17.833  0.1431  0.1515 -0.0926
   59POPC   C4A  704  24.724  24.519  17.375 -0.0000 -0.2546  0.2117
   59POPC   C1B  705  24.238  23.987  18.317  0.1517  0.2325  0.0037
   59POPC   C2B  706  24.154  24.146  17.874 -0.1502  0.0846 -0.1725
   59POPC   C3B  707  24.213  24.366  17.437 -0.1742 -0.0118  0.0491
   59POPC   C4B  708  24.358  24.828  17.239 -0.0110 -0.0715 -0.0388
   60POPC   NC3  709  20.466  17.008  18.612  0.0429 -0.2574 -0.2868
   60POPC   PO4  710  20.563  17.386  18.674 -0.2212  0.2299  0.0221
   60POPC   GL1  711  20.583  17.368  18.301 -0.2868  0.2743  0.1300
   60POPC   GL2  712  20.491  17.609  18.250 -0.1483 -0.5183 -0.1205
   60POPC   C1A  713  20.780  17.091  17.989 -0.1082  0.2421 -0.0815
   60POPC   D2A  714  20.972  17.083  17.577 -0.1225 -0.3465 -0.2501
   60POPC   C3A  715  20.821  16.989  17.185 -0.1472  0.1482 -0.1572
   60POPC   C4A  716  20.539  17.059  16.860  0.0624  0.1131  0.0910
   60POPC   C1B  717  20.749  17.573  17.842 -0.0028 -0.2292 -0.1767
   60POPC   C2B  718  21.215  17.555  17.749  0.1035  0.1428  0.1239
   60POPC   C3B  719  21.469  17.209  17.535 -0.0039  0.0585  0.0091
   60POPC   C4B  720  21.849  17.067  17.290 -0.0345  0.0261 -0.1470
   61POPC   NC3  721  30.983  27.036  19.403 -0.2547 -0.2033 -0.0617
   61POPC   PO4  722  30.997  26.783  19.722 -0.1490 -0.2289  0.1477
   61POPC   GL1  723  31.186  26.671  19.348  0.1491  0.1653  0.0774
   61POPC   GL2  724  31.390  26.508  19.441 -0.0982  0.0731  0.2438
   61POPC   C1A  725  31.132  26.832  18.914  0.0955 -0.2180  0.1111
   61POPC   D2A  726  30.946  26.904  18.500  0.2026 -0.1060  0.0772
   61POPC   C3A  727  31.033  26.688  18.108 -0.2744  0.0821  0.2271
   61POPC   C4A  728  31.381  26.733  17.859 -0.0648 -0.2122  0.0189
   61POPC   C1B  729  31.428  26.496  18.981 -0.2298  0.2764 -0.3435
   61POPC   C2B  730  31.374  26.644  18.529 -0.1074 -0.1539 -0.0150
   61POPC   C3B  731  31.397  27.033  18.309  0.0966 -0.0537 -0.4208
   61POPC   C4B  732  31.119  27.172  17.955  0.0519 -0.0837  0.0041
   62POPC   NC3  733   6.590  11.723  19.397 -0.1159 -0.2836 -0.1983
   62POPC   PO4  734   6.513  11.433  19.140 -0.1291 -0.0483 -0.1887
   62POPC   GL1  735   6.320  11.306  18.786 -0.0571  0.0985 -0.0964
   62POPC   GL2  736   6.352  11.496  18.585 -0.1490  0.1294  0.6539
   62POPC   C1A  737   6.155  11.112  18.391 -0.0627  0.0759 -0.2103
   62POPC   D2A  738   6.049  11.207  17.974 -0.0446  0.2790 -0.0552
   62POPC   C3A  739   5.663  11.304  17.781 -0.0719 -0.0301  0.2925
   62POPC   C4A  740   5.346  11.534  17.619 -0.0676 -0.1700 -0.1688
   62POPC   C1B  741   6.444  11.948  18.439  0.0493  0.2942  0.0178
   62POPC   C2B  742   6.409  12.329  18.208 -0.1934 -0.0849  0.2529
   62POPC   C3B  743   6.631  12.785  18.203  0.1416  0.2271 -0.1910
   62POPC   C4B  744   6.944  13.074  18.037 -0.0359  0.1553 -0.1744
   63POPC   NC3  745  28.955  18.745  19.029 -0.1893  0.0724  0.4743
   63POPC   PO4  746  28.818  19.071  19.062  0.2280 -0.1341 -0.2281
   63POPC   GL1  747  28.573  19.035  18.716  0.2721  0.0098  0.0505
   63POPC   GL2  748  28.544  18.715  18.699  0.1192 -0.0365  0.1399
   63POPC   C1A  749  28.524  18.912  18.237 -0.0525  0.1133  0.0105
   63POPC   D2A  750  28.727  18.531  17.989  0.4572  0.0210  0.0338
   63POPC   C3A  751  28.803  18.579  17.531 -0.0541  0.1951  0.0466
   63POPC   C4A  752  29.033  18.715  17.168 -0.1187 -0.2088 -0.0138
   63POPC   C1B  753  28.958  18.729  18.422  0.0034 -0.1734 -0.3147
   63POPC   C2B  754  28.972  18.969  18.013 -0.0390  0.1662 -0.1575
   63POPC   C3B  755  29.139  18.952  17.601  0.0324 -0.1515 -0.3317
   63POPC   C4B  756  29.356  19.117  17.256  0.0527 -0.0831 -0.0008
   64POPC   NC3  757  26.848  16.440  19.609  0.0627 -0.0632 -0.4192
   64POPC   PO4  758  26.760  16.721  19.377 -0.1041 -0.1367  0.1715
   64POPC   GL1  759  26.766  16.434  19.080  0.0498 -0.0743 -0.2498
   64POPC   GL2  760  26.590  16.270  18.970  0.0882  0.2058 -0.1890
   64POPC   C1A  761  26.954  16.430  18.655 -0.4108  0.2636 -0.0348
   64POPC   D2A  762  27.037  16.508  18.192  0.0203 -0.1720  0.0857
   64POPC   C3A  763  27.258  16.610  17.845 -0.0749  0.0617  0.3612
   64POPC   C4A  764  27.359  16.856  17.411  0.0817 -0.0785  0.0030
   64POPC   C1B  765  26.536  16.120  18.535  0.1172  0.1496 -0.3610
   64POPC   C2B  766  26.733  16.137  18.132  0.1994  0.2442  0.2120
   64POPC   C3B  767  27.092  16.077  17.907 -0.2370  0.1423  0.1834
   64POPC   C4B  768  27.254  15.695  17.652 -0.2169 -0.0269  0.0153
   65POPC   NC3  769   4.855  31.469  19.280 -0.4385 -0.0091  0.1466
   65POPC   PO4  770   4.505  31.257  19.185 -0.1807 -0.0268  0.2148
   65POPC   GL1  771   4.581  31.275  18.801 -0.2422  0.2945  0.0147
   65POPC   GL2  772   4.888  31.069  18.890  0.1478 -0.0731 -0.0678
   65POPC   C1A  773   4.320  31.207  18.408 -0.1428 -0.0012  0.1401
   65POPC   D2A  774   4.277  31.275  17.976 -0.0325  0.2835 -0.0254
   65POPC   C3A  775   4.482  31.560  17.668 -0.1890 -0.3315  0.1197
   65POPC   C4A  776   4.374  32.038  17.609 -0.1282  0.0829 -0.2960
   65POPC   C1B  777   4.939  31.122  18.406 -0.1292 -0.1198 -0.0497
   65POPC   C2B  778   4.826  31.294  17.955 -0.4386  0.1230  0.1167
   65POPC   C3B  779   4.913  31.374  17.505  0.1855 -0.0200 -0.0984
   65POPC   C4B  780   5.155  31.602  17.169 -0.2126  0.0802 -0.1095
   66POPC   NC3  781  26.912   6.621  19.045  0.1176 -0.2094  0.0116
   66POPC   PO4  782  26.836   6.834  19.379  0.0158  0.0032  0.0461
   66POPC   GL1  783  26.628   6.975  19.064 -0.2689  0.1460  0.2468
   66POPC   GL2  784  26.294   7.033  19.009  0.2078  0.1235 -0.1074
   66POPC   C1A  785  26.631   6.920  18.607  0.0726 -0.0134  0.0678
   66POPC   D2A  786  26.830   6.712  18.280 -0.3650 -0.2917 -0.3161
   66POPC   C3A  787  26.856   6.979  17.932  0.2709  0.0121  0.1793
   66POPC   C4A  788  26.856   7.055  17.479  0.0978  0.2883  0.3926
   66POPC   C1B  789  26.122   6.950  18.560  0.1037 -0.0060  0.1351
   66POPC   C2B  790  26.341   6.953  18.183 -0.0472  0.3105  0.1392
   66POPC   C3B  791  26.411   7.220  17.765 -0.0286  0.2924 -0.0828
   66POPC   C4B  792  26.384   7.208  17.314 -0.1711  0.1143  0.1608
   67POPC   NC3  793   8.776  10.297  19.311 -0.2389  0.0905 -0.0062
   67POPC   PO4  794   8.510  10.031  19.400 -0.0237  0.3122 -0.2246
   67POPC   GL1  795   8.746   9.951  19.002 -0.1429 -0.0788  0.0876
   67POPC   GL2  796   8.567  10.019  18.786 -0.1367  0.1130 -0.0915
   67POPC   C1A  797   9.007   9.845  18.627 -0.1108  0.1802  0.2437
   67POPC   D2A  798   9.238   9.756  18.276 -0.2115 -0.0858  0.2529
   67POPC   C3A  799   9.174  10.160  18.025  0.1008  0.3057  0.1764
   67POPC   C4A  800   9.052  10.289  17.594  0.0204 -0.1985  0.1406
   67POPC   C1B  801   8.328  10.136  18.412 -0.1572 -0.1130 -0.1046
   67POPC   C2B  802   8.163  10.258  18.007 -0.1836 -0.1632 -0.1016
   67POPC   C3B  803   8.050  10.347  17.600  0.0001  0.2437 -0.3886
   67POPC   C4B  804   7.888  10.358  17.200  0.0265  0.0856 -0.0920
   68POPC   NC3  805   3.213  17.573  19.066 -0.0843 -0.0308  0.2245
   68POPC   PO4  806   3.241  17.202  19.254  0.0300 -0.1650  0.1599
   68POPC   GL1  807   3.438  17.188  18.858  0.0600  0.4194  0.0333
   68POPC   GL2  808   3.654  17.310  18.885  0.0976  0.0579 -0.0776
   68POPC   C1A  809   3.234  17.301  18.463  0.0887  0.0947 -0.4691
   68POPC   D2A  810   3.335  17.500  18.036 -0.3794 -0.2090  0.0988
   68POPC   C3A  811   3.274  17.538  17.523  0.4325  0.0970  0.1864
   68POPC   C4A  812   3.255  17.716  17.043 -0.0223  0.2324 -0.0630
   68POPC   C1B  813   3.839  17.378  18.426 -0.2124 -0.1166  0.0244
   68POPC   C2B  814   3.911  17.378  17.950  0.2414 -0.0678  0.0066
   68POPC   C3B  815   3.774  17.237  17.571  0.0144 -0.2008  0.0311
   68POPC   C4B  816   3.478  17.045  17.292 -0.0712 -0.3308  0.0118
   69POPC   NC3  817   6.588  15.338  20.544  0.0944  0.0217  0.0906
   69POPC   PO4  818   6.693  15.265  20.181  0.0938  0.4140  0.1411
   69POPC   GL1  819   7.014  15.207  19.959  0.2866 -0.3853  0.1157
   69POPC   GL2  820   7.015  14.977  19.782  0.0785  0.4906  0.1777
   69POPC   C1A  821   7.141  15.370  19.517 -0.2628 -0.1418 -0.1053
   69POPC   D2A  822   7.315  15.472  19.133  0.0552  0.0463  0.2314
   69POPC   C3A  823   7.223  15.124  18.811  0.1498  0.2110 -0.0929
   69POPC   C4A  824   6.929  15.320  18.563  0.0493 -0.0356  0.1610
   69POPC   C1B  825   7.401  14.971  19.481 -0.1031  0.0210 -0.2435
   69POPC   C2B  826   7.715  15.033  19.204  0.3668 -0.0964  0.4372
   69POPC   C3B  827   8.135  15.107  18.993  0.0107  0.2153 -0.2669
   69POPC   C4B  828   8.113  15.238  18.542  0.0763 -0.0427 -0.2636
   70POPC   NC3  829  27.212   0.260  19.412 -0.1739 -0.0489  0.1129
   70POPC   PO4  830  27.403   0.609  19.423 -0.1142 -0.3195  0.0396
   70POPC   GL1  831  27.418   0.422  18.993 -0.3275 -0.0479 -0.1897
   70POPC   GL2  832  27.362   0.692  18.944 -0.3739 -0.5431  0.2937
   70POPC   C1A  833  27.770   0.552  18.707 -0.1976 -0.2047  0.0786
   70POPC   D2A  834  27.853   0.541  18.261 -0.3694 -0.0357  0.1311
   70POPC   C3A  835  27.851   0.715  17.867  0.0334  0.0247  0.0529
   70POPC   C4A  836  27.763   0.504  17.459 -0.0191 -0.0064 -0.2522
   70POPC   C1B  837  27.331   0.945  18.573  0.2405  0.1380  0.0830
   70POPC   C2B  838  27.400   0.953  18.108  0.0702 -0.0656 -0.0445
   70POPC   C3B  839  27.459   0.941  17.656 -0.0288 -0.0360  0.0267
   70POPC   C4B  840  27.423   0.910  17.173  0.0689  0.1408  0.0325
   71POPC   NC3  841   3.288   2.428  19.457  0.0639  0.1414  0.0378
   71POPC   PO4  842   3.564   2.517  19.209 -0.0610  0.1024  0.0377
   71POPC   GL1  843   3.663   2.548  18.837  0.0511 -0.3507 -0.1353
   71POPC   GL2  844   3.579   2.241  18.776  0.0903 -0.0998  0.0238
   71POPC   C1A  845   4.040   2.471  18.559  0.2147  0.1585  0.2934
   71POPC   D2A  846   4.460   2.282  18.366  0.1008  0.0036 -0.3790
   71POPC   C3A  847   4.528   2.413  17.945 -0.0791  0.1339  0.3280
   71POPC   C4A  848   4.421   2.283  17.477  0.0433 -0.1852 -0.2016
   71POPC   C1B  849   3.534   2.555  18.432 -0.1585  0.1928  0.0325
   71POPC   C2B  850   3.723   2.569  18.020 -0.1938  0.0982 -0.2514
   71POPC   C3B  851   3.967   2.536  17.573  0.0983  0.2075 -0.0935
   71POPC   C4B  852   4.082   2.570  17.135 -0.1333 -0.0818  0.0829
   72POPC   NC3  853  22.550  26.582  19.303  0.0854  0.0962 -0.2186
   72POPC   PO4  854  22.150  26.537  19.334  0.0329 -0.0595 -0.1069
   72POPC   GL1  855  22.002  26.480  18.989  0.3006  0.0221 -0.1565
   72POPC   GL2  856  21.720  26.395  18.860 -0.2613 -0.1883 -0.2385
   72POPC   C1A  857  22.085  26.819  18.678 -0.1453  0.0195  0.1599
   72POPC   D2A  858  22.098  26.998  18.241 -0.2073  0.1405  0.1349
   72POPC   C3A  859  22.032  27.006  17.785  0.0988 -0.0875 -0.0884
   72POPC   C4A  860  22.067  27.184  17.335  0.0200  0.0305 -0.0951
   72POPC   C1B  861  22.003  26.370  18.509  0.1646  0.1675  0.0263
   72POPC   C2B  862  21.981  26.484  18.143  0.2075 -0.0951  0.0633
   72POPC   C3B  863  21.920  26.565  17.713 -0.0423 -0.0826  0.0529
   72POPC   C4B  864  22.205  26.708  17.373 -0.1571 -0.0394 -0.1649
   73POPC   NC3  865  14.298  26.190  19.425  0.0065 -0.0879 -0.1264
   73POPC   PO4  866  14.643  26.207  19.582 -0.0644 -0.0862 -0.5006
   73POPC   GL1  867  14.726  26.494  19.342 -0.1617  0.3871  0.2059
   73POPC   GL2  868  14.502  26.614  19.161  0.1247 -0.1631 -0.2301
   73POPC   C1A  869  15.106  26.647  19.056  0.0366 -0.1391  0.2834
   73POPC   D2A  870  15.372  26.597  18.747 -0.2333 -0.4025 -0.1013
   73POPC   C3A  871  15.615  26.875  18.570 -0.0407 -0.0211  0.3163
   73POPC   C4A  872  15.664  26.852  18.119 -0.0481 -0.0919  0.1115
   73POPC   C1B  873  14.483  26.919  18.784  0.1012  0.0144 -0.0106
   73POPC   C2B  874  14.601  27.313  18.490 -0.0398  0.0450  0.2215
   73POPC   C3B  875  14.571  27.579  18.051  0.1432  0.0486 -0.1042
   73POPC   C4B  876  14.819  27.781  17.694  0.1033 -0.0158 -0.0709
   74POPC   NC3  877  14.716  11.998  19.454  0.0606 -0.3239  0.2653
   74POPC   PO4  878  14.404  11.942  19.637 -0.0099  0.1323  0.0611
   74POPC   GL1  879  14.121  12.171  19.381 -0.1829  0.4568 -0.2986
   74POPC   GL2  880  14.337  12.219  19.153  0.0358  0.0940  0.0757
   74POPC   C1A  881  13.908  12.188  18.945  0.0064  0.3203 -0.0756
   74POPC   D2A  882  13.478  12.195  18.759 -0.0750  0.2781  0.2204
   74POPC   C3A  883  13.435  12.277  18.299  0.0134 -0.1424 -0.1680
   74POPC   C4A  884  13.405  12.278  17.817 -0.0770 -0.3157 -0.1485
   74POPC   C1B  885  14.305  12.283  18.759 -0.1937  0.1957  0.2767
   74POPC   C2B  886  14.069  12.132  18.435  0.1289 -0.1129  0.4182
   74POPC   C3B  887  13.904  12.166  18.025 -0.0543  0.3509 -0.2837
   74POPC   C4B  888  13.755  11.934  17.649  0.2634 -0.0635 -0.1171
   75POPC   NC3  889  14.431  29.202  19.472  0.3256  0.0631 -0.1469
   75POPC   PO4  890  14.058  29.185  19.530 -0.1401  0.0162 -0.0179
   75POPC   GL1  891  14.126  29.134  19.115  0.1390  0.2640  0.1629
   75POPC   GL2  892  14.009  28.850  19.046  0.1782  0.0144  0.1899
   75POPC   C1A  893  13.877  29.249  18.720 -0.2112  0.1457 -0.0942
   75POPC   D2A  894  13.788  29.068  18.327  0.1438 -0.0301 -0.1323
   75POPC   C3A  895  14.106  28.886  18.004  0.0096  0.1545 -0.3648
   75POPC   C4A  896  14.041  28.889  17.521 -0.2216  0.1337 -0.0970
   75POPC   C1B  897  13.974  28.657  18.618  0.1015  0.0355  0.3968
   75POPC   C2B  898  13.761  28.517  18.217 -0.0758  0.0668  0.0166
   75POPC   C3B  899  13.667  28.539  17.782  0.0495 -0.1451 -0.1569
   75POPC   C4B  900  13.250  28.716  17.567  0.1104 -0.2215 -0.2570
   76POPC   NC3  901  15.056  19.456  19.200 -0.3372 -0.0622 -0.1253
   76POPC   PO4  902  14.693  19.396  19.081  0.0629 -0.1930 -0.2180
   76POPC   GL1  903  14.987  19.353  18.681 -0.1298 -0.0200 -0.2971
   76POPC   GL2  904  14.807  19.478  18.575  0.3339 -0.1251  0.0102
   76POPC   C1A  905  15.323  19.428  18.366 -0.1242  0.0503  0.4032
   76POPC   D2A  906  15.700  19.487  18.071 -0.0076  0.1761 -0.2831
   76POPC   C3A  907  15.928  19.578  17.694  0.3130  0.1504 -0.0652
   76POPC   C4A  908  16.210  19.553  17.357 -0.2239  0.1916  0.1797
   76POPC   C1B  909  14.605  19.411  18.150  0.0687 -0.1956 -0.1954
   76POPC   C2B  910  14.533  19.744  17.825  0.1407  0.6073 -0.1312
   76POPC   C3B  911  14.481  20.095  17.567  0.2045 -0.0585  0.0805
   76POPC   C4B  912  14.420  20.520  17.334 -0.0752  0.0575 -0.2253
   77POPC   NC3  913   2.408  16.044  19.107 -0.2149 -0.1755  0.1408
   77POPC   PO4  914   2.807  15.936  19.059 -0.1943  0.2566 -0.0436
   77POPC   GL1  915   2.845  15.986  18.666  0.2081  0.1710  0.0710
   77POPC   GL2  916   2.578  16.116  18.595 -0.0077  0.2792 -0.2010
   77POPC   C1A  917   3.007  15.959  18.243 -0.2701 -0.3002  0.2238
   77POPC   D2A  918   3.062  15.655  17.859 -0.1101 -0.0219  0.0369
   77POPC   C3A  919   2.966  15.756  17.432 -0.0141  0.3179  0.0785
   77POPC   C4A  920   2.896  15.538  17.039  0.2013  0.2338 -0.0759
   77POPC   C1B  921   2.498  16.056  18.188 -0.2224  0.1274  0.1154
   77POPC   C2B  922   2.499  16.000  17.737  0.3484 -0.3165 -0.0660
   77POPC   C3B  923   2.342  16.109  17.300  0.1206  0.1616  0.1105
   77POPC   C4B  924   2.198  16.122  16.851  0.3333  0.1427 -0.0112
   78POPC   NC3  925  25.904  17.144  18.906 -0.2334  0.1998 -0.1093
   78POPC   PO4  926  25.875  16.769  19.049 -0.1132  0.2665 -0.1295
   78POPC   GL1  927  25.747  16.648  18.691 -0.0393  0.1646 -0.1995
   78POPC   GL2  928  25.571  16.890  18.616 -0.2142  0.2746  0.2471
   78POPC   C1A  929  25.719  16.655  18.234  0.0953 -0.0753  0.2194
   78POPC   D2A  930  25.659  16.613  17.793 -0.1364  0.1134 -0.1899
   78POPC   C3A  931  25.369  16.936  17.829 -0.0635  0.3029  0.2986
   78POPC   C4A  932  25.293  17.304  18.026 -0.2134 -0.0019 -0.2998
   78POPC   C1B  933  25.726  17.168  18.302  0.1759  0.0597  0.0819
   78POPC   C2B  934  25.808  17.179  17.891 -0.0809  0.1514 -0.1635
   78POPC   C3B  935  25.721  17.019  17.497 -0.1367 -0.0412 -0.0951
   78POPC   C4B  936  25.959  16.719  17.172  0.1735  0.2164  0.0164
   79POPC   NC3  937  29.732   4.171  19.358  0.1298 -0.1512 -0.0412
   79POPC   PO4  938  29.695   3.807  19.267 -0.0600 -0.0932  0.0027
   79POPC   GL1  939  29.556   3.611  19.026  0.0374  0.3992 -0.0756
   79POPC   GL2  940  29.208   3.667  19.127 -0.3555  0.0167  0.0815
   79POPC   C1A  941  29.606   3.319  18.605  0.1073 -0.0965 -0.2273
   79POPC   D2A  942  29.448   3.179  18.184 -0.0630  0.3782  0.1037
   79POPC   C3A  943  29.835   3.010  17.931 -0.2105 -0.1016 -0.2295
   79POPC   C4A  944  30.197   3.107  17.620 -0.0120 -0.3084  0.1931
   79POPC   C1B  945  29.230   3.666  18.663 -0.1197 -0.0384  0.2527
   79POPC   C2B  946  29.476   3.667  18.275 -0.2352 -0.0248 -0.0465
   79POPC   C3B  947  29.749   3.512  17.931  0.0253 -0.0956  0.0093
   79POPC   C4B  948  29.748   3.359  17.494 -0.1190  0.1886  0.2203
   80POPC   NC3  949  18.566  19.891  19.338  0.1218 -0.0103 -0.2050
   80POPC   PO4  950  18.195  19.698  19.312 -0.0102 -0.4317  0.1663
   80POPC   GL1  951  18.016  19.785  18.967 -0.0237 -0.3286 -0.0759
   80POPC   GL2  952  17.871  20.025  19.111 -0.1614  0.0166  0.2020
   80POPC   C1A  953  18.078  19.770  18.518  0.1619  0.2399  0.2605
   80POPC   D2A  954  18.047  19.733  18.004  0.3578  0.0579 -0.0520
   80POPC   C3A  955  18.126  20.065  17.687  0.1349  0.0984 -0.1521
   80POPC   C4A  956  17.903  20.371  17.416  0.1441 -0.2879  0.0584
   80POPC   C1B  957  17.923  20.247  18.705 -0.0422  0.2399  0.0576
   80POPC   C2B  958  17.795  20.424  18.319  0.2040  0.2585  0.0827
   80POPC   C3B  959  17.772  20.518  17.834 -0.0248 -0.1402  0.0378
   80POPC   C4B  960  17.456  20.694  17.625  0.2884 -0.2625 -0.0185
   81POPC   NC3  961  28.891  30.076  19.075 -0.2708  0.1078 -0.3387
   81POPC   PO4  962  28.673  29.755  18.978 -0.0217 -0.1102  0.0095
   81POPC   GL1  963  28.741  29.990  18.622  0.0751  0.3813 -0.0829
   81POPC   GL2  964  28.449  30.098  18.662 -0.0897 -0.1000 -0.1355
   81POPC   C1A  965  29.106  29.912  18.358  0.1340  0.1326 -0.1126
   81POPC   D2A  966  29.180  29.977  17.925 -0.1992  0.2525  0.1687
   81POPC   C3A  967  29.180  29.836  17.517 -0.0329  0.0496 -0.0939
   81POPC   C4A  968  29.144  29.629  17.100  0.3056  0.0585 -0.3400
   81POPC   C1B  969  28.588  29.982  18.252  0.0124 -0.0359 -0.1415
   81POPC   C2B  970  28.703  29.835  17.838  0.1074  0.3036  0.0480
   81POPC   C3B  971  28.698  29.576  17.468  0.1643 -0.1284 -0.0868
   81POPC   C4B  972  28.550  29.814  17.055 -0.0729  0.1317 -0.4115
   82POPC   NC3  973   4.082   2.533  19.163  0.0729  0.2686  0.2068
   82POPC   PO4  974   4.066   2.888  19.382 -0.0847 -0.1915 -0.0234
   82POPC   GL1  975   4.211   3.066  19.061  0.2263 -0.0094 -0.1296
   82POPC   GL2  976   4.100   3.363  19.129 -0.0077 -0.1787  0.1002
   82POPC   C1A  977   4.152   2.938  18.599 -0.2324 -0.0756 -0.1975
   82POPC   D2A  978   3.959   2.873  18.225  0.1752 -0.1468 -0.0728
   82POPC   C3A  979   4.269   2.767  17.924 -0.1543 -0.0770  0.1636
   82POPC   C4A  980   4.583   2.738  17.595 -0.2625 -0.2061  0.1203
   82POPC   C1B  981   4.171   3.586  18.670  0.1269  0.1281  0.1038
   82POPC   C2B  982   4.353   3.859  18.361  0.0141 -0.2153 -0.0749
   82POPC   C3B  983   4.336   3.808  17.898 -0.0572  0.0118  0.1141
   82POPC   C4B  984   4.118   3.634  17.505 -0.3322  0.0276 -0.0006
   83POPC   NC3  985  23.838  10.838  19.158 -0.1292 -0.0944  0.5838
   83POPC   PO4  986  23.806  10.462  19.129  0.3757  0.1981 -0.0535
   83POPC   GL1  987  23.889  10.461  18.770 -0.3733  0.3067 -0.1534
   83POPC   GL2  988  23.751  10.717  18.654 -0.1904  0.0403 -0.0286
   83POPC   C1A  989  23.916  10.195  18.439  0.1546  0.2647  0.3989
   83POPC   D2A  990  23.595  10.137  18.082  0.2038  0.0086  0.2354
   83POPC   C3A  991  23.584  10.421  17.732  0.3970 -0.1347 -0.1401
   83POPC   C4A  992  23.747  10.613  17.349 -0.2068  0.1501  0.0447
   83POPC   C1B  993  23.476  10.580  18.274  0.0635 -0.1596 -0.2022
   83POPC   C2B  994  23.389  10.834  17.894  0.3188  0.0108  0.0715
   83POPC   C3B  995  23.530  11.239  17.652  0.0100 -0.0556 -0.1326
   83POPC   C4B  996  23.708  11.103  17.278 -0.1899 -0.0204  0.0194
   84POPC   NC3  997   0.833  23.978  19.408 -0.0444  0.1319  0.3074
   84POPC   PO4  998   0.799  23.782  19.066 -0.0547 -0.1006 -0.1027
   84POPC   GL1  999   0.701  23.512  18.846  0.0421 -0.2301  0.0747
   84POPC   GL2 1000   0.804  23.247  18.705 -0.0094 -0.2362  0.0148
   84POPC   C1A 1001   0.559  23.637  18.394 -0.2960 -0.0493  0.0905
   84POPC   D2A 1002   0.343  23.454  18.050 -0.0279  0.0097  0.4391
   84POPC   C3A 1003   0.217  23.390  17.593  0.1297 -0.1470  0.0931
   84POPC   C4A 1004   0.143  23.476  17.122  0.1749 -0.0099  0.1165
   84POPC   C1B 1005   0.934  23.304  18.291  0.2740  0.1637  0.3015
   84POPC   C2B 1006   0.778  23.357  17.842 -0.0164  0.0478 -0.0214
   84POPC   C3B 1007   0.890  23.172  17.417  0.1468 -0.5210 -0.1498
   84POPC   C4B 1008   0.523  23.047  17.225 -0.1939  0.3624  0.2400
   85POPC   NC3 1009   6.841  31.704  19.635  0.0558  0.2617 -0.0956
   85POPC   PO4 1010   6.720  32.061  19.474  0.3476  0.6722 -0.2590
   85POPC   GL1 1011   6.856  31.959  19.202  0.2267  0.2418 -0.1263
   85POPC   GL2 1012   6.734  32.118  18.974 -0.1903  0.2314  0.3251
   85POPC   C1A 1013   7.188  31.985  18.838  0.0101 -0.0845  0.0406
   85POPC   D2A 1014   7.254  31.860  18.377  0.1108 -0.1114  0.0454
   85POPC   C3A 1015   7.263  31.837  17.936 -0.0660  0.4867 -0.3469
   85POPC   C4A 1016   7.361  31.464  17.771 -0.0241 -0.0705  0.1424
   85POPC   C1B 1017   6.466  31.994  18.587  0.0571  0.1778 -0.1149
   85POPC   C2B 1018   6.406  32.016  18.153 -0.1915 -0.1980 -0.0268
   85POPC   C3B 1019   6.423  31.883  17.676  0.1103  0.2531 -0.0630
   85POPC   C4B 1020   6.643  31.558  17.390  0.0229  0.1127  0.2973
   86POPC   NC3 1021   2.972  23.019  18.876 -0.0073 -0.3539  0.2823
   86POPC   PO4 1022   3.018  22.679  19.038  0.0938  0.0331 -0.1099
   86POPC   GL1 1023   3.126  22.645  18.657 -0.2020 -0.0219 -0.3488
   86POPC   GL2 1024   3.417  22.738  18.760  0.0458  0.0791 -0.0370
   86POPC   C1A 1025   3.114  22.292  18.388  0.0855 -0.1714 -0.0016
   86POPC   D2A 1026   2.926  22.010  17.974 -0.1590  0.0954 -0.1809
   86POPC   C3A 1027   2.870  21.543  17.824 -0.1026  0.2383 -0.1581
   86POPC   C4A 1028   2.968  21.186  17.633  0.1266  0.1898 -0.1225
   86POPC   C1B 1029   3.460  22.790  18.268 -0.0443 -0.2861  0.2889
   86POPC   C2B 1030   3.300  22.761  17.844 -0.1765  0.1181  0.1336
   86POPC   C3B 1031   3.404  22.715  17.407  0.0475 -0.1119 -0.0150
   86POPC   C4B 1032   3.750  22.660  17.150 -0.0709 -0.1591  0.1314
   87POPC   NC3 1033  26.706   8.989  19.997 -0.0456  0.3289  0.1933
   87POPC   PO4 1034  26.856   8.636  19.879  0.0246 -0.0472 -0.1231
   87POPC   GL1 1035  26.967   8.660  19.431  0.1413 -0.0670  0.0142
   87POPC   GL2 1036  26.774   8.655  19.322 -0.2190 -0.3242 -0.1107
   87POPC   C1A 1037  27.134   8.963  19.189 -0.1996  0.0851  0.0575
   87POPC   D2A 1038  26.994   9.384  19.001 -0.0692  0.0017  0.0587
   87POPC   C3A 1039  26.785   9.703  18.702  0.0469 -0.3201  0.0861
   87POPC   C4A 1040  26.661  10.017  18.415 -0.0419  0.1192  0.0327
   87POPC   C1B 1041  26.719   8.991  18.965  0.1655  0.2387  0.2203
   87POPC   C2B 1042  26.842   9.221  18.581  0.1709  0.1557  0.1390
   87POPC   C3B 1043  26.995   9.519  18.214  0.2483 -0.1643 -0.0073
   87POPC   C4B 1044  27.094   9.578  17.751  0.0404  0.0336  0.2825
   88POPC   NC3 1045   9.327  11.273  18.884  0.1503  0.1282 -0.3054
   88POPC   PO4 1046   9.559  11.038  19.117 -0.2418 -0.1225  0.1359
   88POPC   GL1 1047   9.723  10.896  18.755 -0.0897 -0.3426  0.1166
   88POPC   GL2 1048   9.786  11.166  18.633 -0.2095 -0.3850 -0.3041
   88POPC   C1A 1049   9.710  10.636  18.394 -0.3522  0.0410 -0.1460
   88POPC   D2A 1050   9.815  10.527  18.012 -0.0854 -0.0668 -0.1752
   88POPC   C3A 1051  10.027  10.816  17.688 -0.2198  0.1102  0.0405
   88POPC   C4A 1052  10.403  10.784  17.488  0.0741  0.0936  0.0679
   88POPC   C1B 1053   9.996  11.112  18.172 -0.1302  0.0007 -0.2505
   88POPC   C2B 1054  10.317  11.205  17.819 -0.0133 -0.1989  0.1397
   88POPC   C3B 1055  10.502  11.271  17.388  0.1646  0.0744 -0.1871
   88POPC   C4B 1056  10.785  11.384  17.043 -0.2960 -0.2975 -0.0222
   89POPC   NC3 1057  10.959   5.597  19.191 -0.2901  0.3168  0.2216
   89POPC   PO4 1058  11.049   5.214  19.043 -0.0957 -0.0419  0.2203
   89POPC   GL1 1059  11.033   5.336  18.634 -0.2690  0.1685 -0.0216
   89POPC   GL2 1060  10.916   5.596  18.669 -0.1999 -0.1027  0.0098
   89POPC   C1A 1061  10.888   5.346  18.188 -0.2345  0.3448  0.3712
   89POPC   D2A 1062  10.910   5.182  17.734  0.1069 -0.1718 -0.1463
   89POPC   C3A 1063  11.108   4.750  17.742  0.1869  0.5507 -0.0833
   89POPC   C4A 1064  11.476   4.450  17.864  0.0258 -0.1276  0.0949
   89POPC   C1B 1065  10.537   5.581  18.453 -0.1992 -0.1393 -0.0601
   89POPC   C2B 1066  10.373   5.457  18.064  0.0412  0.0486 -0.2447
   89POPC   C3B 1067  10.169   5.251  17.731 -0.1625 -0.1791 -0.0114
   89POPC   C4B 1068  10.007   5.109  17.252  0.0425  0.0416 -0.0851
   90POPC   NC3 1069  29.312  16.025  19.440 -0.1738  0.0978 -0.0817
   90POPC   PO4 1070  29.715  15.965  19.601  0.3322  0.1136  0.2203
   90POPC   GL1 1071  29.777  16.142  19.199  0.0949  0.1934  0.0567
   90POPC   GL2 1072  29.626  15.998  19.034 -0.2076  0.1874  0.1065
   90POPC   C1A 1073  29.736  16.511  18.902  0.0856  0.0965 -0.2468
   90POPC   D2A 1074  29.633  16.944  18.668 -0.1142  0.1666 -0.0723
   90POPC   C3A 1075  29.556  16.813  18.204 -0.0483 -0.2835 -0.0021
   90POPC   C4A 1076  29.241  16.878  17.835 -0.1235  0.1270 -0.1167
   90POPC   C1B 1077  29.908  16.026  18.704  0.0897  0.0244  0.0699
   90POPC   C2B 1078  30.022  16.013  18.251 -0.0113  0.1514  0.0861
   90POPC   C3B 1079  29.984  16.096  17.840 -0.2058 -0.0434 -0.2592
   90POPC   C4B 1080  29.910  15.960  17.367 -0.2094  0.0350 -0.1153
   91POPC   NC3 1081  27.972   3.650  19.669 -0.0090  0.1322 -0.0473
   91POPC   PO4 1082  27.689   3.501  19.454  0.1691  0.5004 -0.2074
   91POPC   GL1 1083  27.777   3.330  19.028 -0.0592 -0.3263  0.1320
   91POPC   GL2 1084  28.054   3.325  19.052 -0.1120 -0.0195 -0.1869
   91POPC   C1A 1085  27.768   3.573  18.643 -0.1197  0.0279  0.0092
   91POPC   D2A 1086  28.060   3.666  18.286  0.3176 -0.1922 -0.0327
   91POPC   C3A 1087  28.170   3.491  17.883 -0.1287  0.0104  0.3985
   91POPC   C4A 1088  28.061   3.364  17.486  0.0198  0.1566 -0.2413
   91POPC   C1B 1089  27.993   3.137  18.631  0.2037  0.0335 -0.1528
   91POPC   C2B 1090  27.792   3.275  18.203 -0.0072 -0.3084  0.0291
   91POPC   C3B 1091  27.616   3.289  17.776  0.0472  0.4108  0.1127
   91POPC   C4B 1092  27.599   3.528  17.412  0.2912  0.3690  0.0680
   92POPC   NC3 1093  28.422   4.140  19.140  0.0717 -0.0440 -0.1296
   92POPC   PO4 1094  28.071   4.297  19.259  0.0341 -0.1972 -0.0968
   92POPC   GL1 1095  27.987   4.304  18.893 -0.1337 -0.3271 -0.0347
   92POPC   GL2 1096  28.071   4.076  18.789  0.2103  0.0967 -0.0941
   92POPC   C1A 1097  27.985   4.764  18.799 -0.1494  0.1657  0.5736
   92POPC   D2A 1098  27.741   5.117  18.680  0.0543 -0.4046 -0.0181
   92POPC   C3A 1099  27.695   5.414  18.340  0.2303 -0.1527  0.3473
   92POPC   C4A 1100  27.570   5.548  17.874 -0.2041  0.0346 -0.3178
   92POPC   C1B 1101  28.142   4.140  18.345 -0.2318  0.0222 -0.1163
   92POPC   C2B 1102  28.039   4.147  17.924 -0.1479  0.0346  0.0580
   92POPC   C3B 1103  28.267   4.130  17.552  0.2768 -0.2723  0.0803
   92POPC   C4B 1104  28.284   3.840  17.184  0.0481 -0.1869  0.0147
   93POPC   NC3 1105  25.280   3.617  19.305  0.1283  0.0849  0.0621
   93POPC   PO4 1106  25.674   3.669  19.133  0.3576  0.1588  0.1938
   93POPC   GL1 1107  25.765   3.839  18.813 -0.0077 -0.0302 -0.0825
   93POPC   GL2 1108  25.876   3.593  18.651  0.2053  0.0388 -0.1803
   93POPC   C1A 1109  25.700   3.941  18.384 -0.1729  0.0375  0.0899
   93POPC   D2A 1110  25.417   3.968  17.993 -0.1646  0.1073  0.0166
   93POPC   C3A 1111  25.273   3.652  17.699  0.2697  0.2234 -0.1193
   93POPC   C4A 1112  25.274   3.311  17.365  0.1242  0.0268 -0.0570
   93POPC   C1B 1113  25.882   3.559  18.167  0.0263  0.0745  0.2093
   93POPC   C2B 1114  25.780   3.793  17.728  0.0007  0.1347  0.1361
   93POPC   C3B 1115  25.519   4.032  17.415  0.1050  0.1653  0.0832
   93POPC   C4B 1116  25.390   4.334  17.085 -0.0191 -0.2345  0.0944
   94POPC   NC3 1117  14.287  31.528  19.177 -0.1136  0.1772 -0.0871
   94POPC   PO4 1118  14.439  31.561  18.858  0.1425  0.3260  0.3008
   94POPC   GL1 1119  14.586  31.642  18.520 -0.3171 -0.1235 -0.3351
   94POPC   GL2 1120  14.797  31.546  18.317  0.4168 -0.1983  0.3308
   94POPC   C1A 1121  14.500  31.914  18.134 -0.0201 -0.0683  0.0409
   94POPC   D2A 1122  14.268  32.204  17.855  0.2599  0.0460  0.0265
   94POPC   C3A 1123  14.069  32.342  17.432 -0.1922  0.1611  0.1493
   94POPC   C4A 1124  14.054  32.368  16.980 -0.0560 -0.0597 -0.0390
   94POPC   C1B 1125  14.929  31.724  17.856  0.0136 -0.2990  0.1015
   94POPC   C2B 1126  14.648  31.889  17.533 -0.1314 -0.1370 -0.0581
   94POPC   C3B 1127  14.556  32.200  17.234 -0.1065 -0.2430  0.0434
   94POPC   C4B 1128  14.549  32.159  16.766 -0.1043  0.0484 -0.2083
   95POPC   NC3 1129   8.460  28.685  18.791 -0.1855  0.0968 -0.0053
   95POPC   PO4 1130   8.748  28.592  18.989  0.3972  0.0829  0.3210
   95POPC   GL1 1131   8.880  28.870  18.729  0.0487 -0.0346 -0.0708
   95POPC   GL2 1132   9.186  28.938  18.702  0.1590 -0.1748 -0.0392
   95POPC   C1A 1133   8.698  28.983  18.367  0.1291  0.2939 -0.0611
   95POPC   D2A 1134   8.793  29.185  17.983 -0.1022  0.0290 -0.0806
   95POPC   C3A 1135   8.535  29.283  17.574 -0.0471  0.0223 -0.3591
   95POPC   C4A 1136   8.543  29.590  17.232  0.2441  0.0730 -0.0989
   95POPC   C1B 1137   9.158  28.886  18.340 -0.0624 -0.2510  0.2513
   95POPC   C2B 1138   9.262  28.942  17.862  0.0951  0.0862 -0.1296
   95POPC   C3B 1139   9.391  29.052  17.456  0.1851 -0.4332 -0.2160
   95POPC   C4B 1140   9.775  29.233  17.244  0.2015  0.0766  0.1482
   96POPC   NC3 1141   6.618  14.161  19.598 -0.0910  0.0642  0.0405
   96POPC   PO4 1142   6.237  14.093  19.557 -0.2012 -0.0039 -0.1151
   96POPC   GL1 1143   6.149  14.355  19.297  0.1580 -0.1103  0.0707
   96POPC   GL2 1144   6.465  14.460  19.166  0.0867 -0.0743  0.3412
   96POPC   C1A 1145   6.042  14.247  18.855  0.2303  0.3749  0.1156
   96POPC   D2A 1146   6.197  14.304  18.397  0.1890 -0.2384 -0.0559
   96POPC   C3A 1147   6.389  14.613  18.066  0.1731  0.0631 -0.1797
   96POPC   C4A 1148   6.480  15.042  18.059 -0.1820  0.2005  0.1579
   96POPC   C1B 1149   6.419  14.641  18.737  0.0827 -0.2257  0.1446
   96POPC   C2B 1150   6.177  14.918  18.447  0.0758 -0.1865 -0.1995
   96POPC   C3B 1151   6.252  15.376  18.402  0.0016 -0.0059 -0.0071
   96POPC   C4B 1152   6.123  15.849  18.256 -0.0098  0.0576  0.1837
   97POPC   NC3 1153  18.016  16.437  19.579  0.1068 -0.0123  0.2858
   97POPC   PO4 1154  18.138  16.148  19.314  0.0427 -0.1376 -0.1261
   97POPC   GL1 1155  18.227  16.293  18.907  0.0195  0.0272  0.1372
   97POPC   GL2 1156  18.502  16.388  18.837 -0.3179  0.3368 -0.2886
   97POPC   C1A 1157  18.099  16.646  18.652  0.0284 -0.1558  0.1008
   97POPC   D2A 1158  18.220  17.031  18.502 -0.3133 -0.2754 -0.2457
   97POPC   C3A 1159  18.155  17.035  18.014  0.0404  0.1994 -0.0469
   97POPC   C4A 1160  18.228  16.832  17.581 -0.1219 -0.3649  0.1143
   97POPC   C1B 1161  18.347  16.118  18.460 -0.0558 -0.0419 -0.0746
   97POPC   C2B 1162  18.345  16.038  17.990 -0.2757 -0.2520 -0.0871
   97POPC   C3B 1163  18.207  15.844  17.584  0.1814 -0.0222 -0.0229
   97POPC   C4B 1164  17.948  15.988  17.231  0.2149 -0.1048 -0.1290
   98POPC   NC3 1165  14.232  26.976  19.351 -0.2125 -0.0505 -0.1824
   98POPC   PO4 1166  13.997  26.640  19.359  0.0736 -0.0783 -0.0944
   98POPC   GL1 1167  14.075  26.654  18.987  0.0696  0.1394 -0.1912
   98POPC   GL2 1168  14.169  26.381  18.913 -0.0440  0.1275 -0.1047
   98POPC   C1A 1169  13.930  26.781  18.606 -0.2837 -0.2657  0.1634
   98POPC   D2A 1170  14.203  27.031  18.325 -0.0828 -0.3046  0.1034
   98POPC   C3A 1171  14.244  27.017  17.867  0.2601  0.0452 -0.2765
   98POPC   C4A 1172  14.443  26.690  17.616 -0.0480 -0.0271  0.1852
   98POPC   C1B 1173  14.316  26.507  18.504  0.0444 -0.0537  0.0853
   98POPC   C2B 1174  14.565  26.545  18.094  0.2669 -0.3203  0.1808
   98POPC   C3B 1175  14.946  26.602  17.779 -0.4264  0.3174 -0.0805
   98POPC   C4B 1176  15.432  26.717  17.703  0.1913 -0.0014  0.0455
   99POPC   NC3 1177  30.323  30.734  19.136  0.1866 -0.0514 -0.1681
   99POPC   PO4 1178  30.294  30.683  19.523 -0.1304  0.0536 -0.3158
   99POPC   GL1 1179  29.996  30.391  19.313 -0.0983  0.2693  0.0857
   99POPC   GL2 1180  29.770  30.436  19.126 -0.2557 -0.2462 -0.0632
   99POPC   C1A 1181  30.015  29.975  19.074  0.0179  0.2102 -0.0313
   99POPC   D2A 1182  29.903  29.696  18.672 -0.1970 -0.0802 -0.0464
   99POPC   C3A 1183  29.566  29.745  18.371 -0.1187  0.0511  0.0986
   99POPC   C4A 1184  29.566  29.668  17.917 -0.1158  0.2346 -0.1052
   99POPC   C1B 1185  30.102  30.533  18.739  0.0241 -0.1927  0.1850
   99POPC   C2B 1186  30.174  30.486  18.277  0.0388  0.3123 -0.2173
   99POPC   C3B 1187  30.007  30.604  17.844 -0.1474  0.0497 -0.2066
   99POPC   C4B 1188  30.133  30.959  17.530  0.1453 -0.0418  0.0026
  100POPC   NC3 1189   8.322  27.409  19.178 -0.0829  0.0034  0.2815
  100POPC   PO4 1190   8.480  27.777  19.257 -0.0594 -0.1002  0.0641
  100POPC   GL1 1191   8.469  27.774  18.869 -0.2787 -0.4523 -0.1604
  100POPC   GL2 1192   8.736  27.673  18.769  0.1545  0.0178 -0.0539
  100POPC   C1A 1193   8.385  27.783  18.457 -0.4256  0.2135 -0.2876
  100POPC   D2A 1194   8.337  27.806  18.063  0.0508 -0.2993 -0.1666
  100POPC   C3A 1195   8.484  27.840  17.604 -0.0761 -0.0004 -0.2762
  100POPC   C4A 1196   8.476  27.783  17.114  0.1270  0.0197  0.0849
  100POPC   C1B 1197   9.001  27.786  18.449  0.3678 -0.0138  0.2587
  100POPC   C2B 1198   8.844  27.644  18.051 -0.0271  0.1673 -0.0934
  100POPC   C3B 1199   8.870  27.405  17.636  0.1833  0.1376 -0.2007
  100POPC   C4B 1200   8.775  27.226  17.243 -0.2490 -0.1410 -0.0584
  101POPC   NC3 1201  25.977   9.560  19.383  0.2214 -0.2098 -0.0964
  101POPC   PO4 1202  26.125   9.949  19.282 -0.0753  0.2915  0.0405
  101POPC   GL1 1203  26.114  10.133  18.994 -0.0834 -0.2770  0.1118
  101POPC   GL2 1204  26.444  10.098  18.914 -0.0899  0.1294 -0.1260
  101POPC   C1A 1205  25.780  10.283  18.730  0.2306 -0.0953 -0.2492
  101POPC   D2A 1206  25.444  10.511  18.477 -0.1725  0.0299 -0.1243
  101POPC   C3A 1207  25.397  10.581  18.034 -0.0440 -0.1978  0.0220
  101POPC   C4A 1208  25.159  10.609  17.632 -0.3368 -0.0046 -0.2146
  101POPC   C1B 1209  26.230  10.187  18.533  0.1704  0.1119 -0.3967
  101POPC   C2B 1210  26.287  10.133  18.069 -0.0112  0.1159  0.1052
  101POPC   C3B 1211  26.077  10.133  17.656 -0.1310 -0.1796  0.1965
  101POPC   C4B 1212  25.884  10.503  17.480  0.0012  0.1053  0.1328
  102POPC   NC3 1213  11.472  31.319  19.321 -0.0066 -0.1267  0.1555
  102POPC   PO4 1214  11.271  30.969  19.423 -0.0268  0.0929  0.1659
  102POPC   GL1 1215  11.306  31.086  18.991 -0.0677  0.2950  0.2418
  102POPC   GL2 1216  11.044  31.078  18.873  0.2029 -0.2186  0.1695
  102POPC   C1A 1217  11.704  30.998  18.777 -0.1003  0.0460  0.1160
  102POPC   D2A 1218  11.830  30.948  18.371 -0.0097  0.0575  0.0523
  102POPC   C3A 1219  11.641  30.921  17.951 -0.0869 -0.0255 -0.1228
  102POPC   C4A 1220  11.545  31.112  17.515 -0.0964  0.3248  0.1913
  102POPC   C1B 1221  10.804  31.102  18.453  0.0113  0.0943  0.1202
  102POPC   C2B 1222  10.638  31.293  18.071 -0.0843  0.1862 -0.2708
  102POPC   C3B 1223  10.774  31.584  17.805 -0.2254 -0.0161  0.0810
  102POPC   C4B 1224  11.049  31.915  17.707 -0.0040  0.0465 -0.1225
  103POPC   NC3 1225  25.547   4.241  18.887 -0.1432  0.0027  0.1598
  103POPC   PO4 1226  25.273   4.481  18.911 -0.2508 -0.0464  0.1885
  103POPC   GL1 1227  25.199   4.581  18.551 -0.3510 -0.0528 -0.0088
  103POPC   GL2 1228  24.886   4.609  18.600  0.0967  0.1596  0.1514
  103POPC   C1A 1229  24.941   4.391  18.136 -0.2790  0.4060 -0.1924
  103POPC   D2A 1230  24.451   4.368  18.073  0.3877 -0.3010  0.3072
  103POPC   C3A 1231  24.428   3.967  17.836  0.2632 -0.3426  0.1498
  103POPC   C4A 1232  24.233   3.577  17.895 -0.0650 -0.0236  0.0011
  103POPC   C1B 1233  25.060   4.994  18.334 -0.1261  0.0964 -0.0168
  103POPC   C2B 1234  25.169   5.303  18.018  0.0899  0.1038  0.0218
  103POPC   C3B 1235  24.950   5.227  17.641 -0.3974 -0.2891 -0.1102
  103POPC   C4B 1236  24.662   4.990  17.384  0.1470 -0.3758  0.0575
  104POPC   NC3 1237  17.302  20.547  19.425 -0.1735 -0.2316  0.0329
  104POPC   PO4 1238  17.521  20.313  19.247 -0.0175  0.1110  0.2243
  104POPC   GL1 1239  17.466  20.182  18.844 -0.0249 -0.0965  0.0960
  104POPC   GL2 1240  17.316  19.941  18.875 -0.1557 -0.2575 -0.1429
  104POPC   C1A 1241  17.348  20.544  18.554  0.3762  0.0398 -0.1834
  104POPC   D2A 1242  17.429  20.765  18.183  0.0552  0.0692 -0.2086
  104POPC   C3A 1243  17.091  20.863  17.910  0.0497 -0.0662 -0.0888
  104POPC   C4A 1244  16.913  20.770  17.524 -0.1793  0.1023  0.2563
  104POPC   C1B 1245  17.504  20.004  18.446 -0.2749 -0.2382 -0.3227
  104POPC   C2B 1246  17.690  20.053  18.032  0.1071 -0.4193 -0.0905
  104POPC   C3B 1247  17.508  20.122  17.634  0.1209  0.0776  0.0106
  104POPC   C4B 1248  17.161  20.309  17.417 -0.2432 -0.1211 -0.1713
  105POPC   NC3 1249  17.895  21.822  19.514 -0.0143 -0.1199 -0.2852
  105POPC   PO4 1250  17.662  21.991  19.257  0.2724  0.0199 -0.2394
  105POPC   GL1 1251  17.703  21.861  18.825  0.2339 -0.3257 -0.0038
  105POPC   GL2 1252  17.742  21.628  18.732  0.1021 -0.1620  0.1636
  105POPC   C1A 1253  17.830  22.089  18.452  0.0702  0.1106 -0.2104
  105POPC   D2A 1254  17.717  22.082  18.019 -0.1162 -0.0300 -0.0385
  105POPC   C3A 1255  17.374  22.194  17.672  0.0893 -0.1040 -0.2736
  105POPC   C4A 1256  17.286  22.506  17.391 -0.1074  0.1694 -0.2619
  105POPC   C1B 1257  17.758  21.538  18.318 -0.0666  0.0695 -0.2303
  105POPC   C2B 1258  17.929  21.548  17.907  0.2152 -0.1303 -0.3094
  105POPC   C3B 1259  17.916  21.782  17.498 -0.2685  0.1181  0.0947
  105POPC   C4B 1260  17.670  22.032  17.251  0.2049  0.1439 -0.0816
  106POPC   NC3 1261  19.006  24.267  19.754  0.2006  0.0594  0.0246
  106POPC   PO4 1262  19.263  24.328  19.484  0.1777 -0.0717  0.1415
  106POPC   GL1 1263  19.221  24.438  19.093 -0.1841 -0.0427  0.1844
  106POPC   GL2 1264  19.077  24.156  19.010  0.0056 -0.1101 -0.1437
  106POPC   C1A 1265  19.507  24.559  18.740 -0.0314 -0.1084 -0.3677
  106POPC   D2A 1266  19.833  24.540  18.428  0.1055 -0.1286  0.1143
  106POPC   C3A 1267  19.898  24.343  18.028 -0.1169 -0.1093 -0.0414
  106POPC   C4A 1268  19.657  24.279  17.646  0.0266 -0.0893  0.2321
  106POPC   C1B 1269  19.024  24.584  18.781  0.1525 -0.0795  0.1395
  106POPC   C2B 1270  19.017  24.844  18.412 -0.0319  0.1586  0.2303
  106POPC   C3B 1271  19.086  24.848  18.001 -0.1236  0.1200  0.2412
  106POPC   C4B 1272  19.078  24.876  17.463 -0.1026  0.3857  0.2466
  107POPC   NC3 1273  15.628  28.003  19.789 -0.0285  0.0923 -0.2225
  107POPC   PO4 1274  15.435  27.716  19.656  0.0896  0.3256 -0.1099
  107POPC   GL1 1275  15.450  27.755  19.316  0.1606  0.2907  0.0524
  107POPC   GL2 1276  15.547  28.056  19.245  0.0574  0.1546 -0.2612
  107POPC   C1A 1277  15.208  27.687  18.955  0.1717  0.3732 -0.0370
  107POPC   D2A 1278  15.021  27.555  18.556 -0.2237  0.1500  0.1718
  107POPC   C3A 1279  15.082  27.511  18.055  0.1943  0.3661  0.1502
  107POPC   C4A 1280  15.321  27.173  17.798 -0.1923  0.0956 -0.1180
  107POPC   C1B 1281  15.700  28.153  18.841 -0.1057  0.2382 -0.0033
  107POPC   C2B 1282  15.571  28.358  18.372  0.1692 -0.0301 -0.2282
  107POPC   C3B 1283  15.312  28.173  18.072 -0.1067 -0.0030  0.0502
  107POPC   C4B 1284  14.919  27.927  18.141 -0.4223 -0.3404  0.1804
  108POPC   NC3 1285  25.559  30.981  18.764  0.1312 -0.1718  0.1377
  108POPC   PO4 1286  25.798  30.830  19.064  0.2064 -0.0460 -0.1831
  108POPC   GL1 1287  26.026  30.620  18.793  0.2328 -0.0795 -0.1902
  108POPC   GL2 1288  25.771  30.527  18.638  0.0275 -0.3656 -0.0372
  108POPC   C1A 1289  26.426  30.779  18.618  0.0785  0.2440  0.0110
  108POPC   D2A 1290  26.499  31.032  18.237  0.0885  0.2218 -0.0778
  108POPC   C3A 1291  26.845  31.318  18.047  0.0097 -0.2094  0.0608
  108POPC   C4A 1292  26.914  31.455  17.615 -0.2839 -0.1354  0.0192
  108POPC   C1B 1293  25.957  30.737  18.256  0.1527  0.2159  0.1753
  108POPC   C2B 1294  26.313  30.650  17.984  0.1205  0.2518 -0.0037
  108POPC   C3B 1295  26.377  30.378  17.627 -0.3404 -0.0658 -0.3014
  108POPC   C4B 1296  26.744  30.305  17.324  0.2736 -0.0967  0.3607
  109POPC   NC3 1297   2.512  16.616  19.238  0.0888 -0.3195 -0.1098
  109POPC   PO4 1298   2.827  16.422  19.200 -0.0532 -0.1832  0.1033
  109POPC   GL1 1299   2.855  16.371  18.830  0.2533 -0.1287 -0.2757
  109POPC   GL2 1300   2.698  16.573  18.709 -0.1989 -0.4254 -0.2312
  109POPC   C1A 1301   3.007  16.422  18.389 -0.4340 -0.2110  0.1047
  109POPC   D2A 1302   3.320  16.443  18.047  0.0360  0.2521  0.3278
  109POPC   C3A 1303   3.202  16.194  17.614 -0.1476  0.0510  0.1229
  109POPC   C4A 1304   3.517  16.192  17.350 -0.3597 -0.1239  0.2774
  109POPC   C1B 1305   2.820  16.889  18.462 -0.2407  0.0165  0.0375
  109POPC   C2B 1306   2.917  16.820  18.023 -0.0532 -0.0841 -0.2127
  109POPC   C3B 1307   2.743  16.812  17.618 -0.0438  0.0496 -0.0209
  109POPC   C4B 1308   2.588  16.897  17.207 -0.3659 -0.1817  0.2085
  110POPC   NC3 1309  13.577  22.864  19.381  0.1784  0.0744  0.2707
  110POPC   PO4 1310  13.878  23.046  19.597 -0.2582  0.1619 -0.1279
  110POPC   GL1 1311  13.992  23.093  19.207  0.2281  0.0065  0.1577
  110POPC   GL2 1312  13.951  22.867  18.996 -0.1487 -0.2859 -0.1986
  110POPC   C1A 1313  13.707  23.268  18.893 -0.0593 -0.3369  0.0625
  110POPC   D2A 1314  13.558  23.135  18.450 -0.0397 -0.0539  0.1847
  110POPC   C3A 1315  13.613  23.161  17.996 -0.2727 -0.1008 -0.1764
  110POPC   C4A 1316  13.820  23.073  17.626 -0.2703 -0.2700 -0.1096
  110POPC   C1B 1317  13.889  22.807  18.590 -0.0518 -0.0480 -0.1072
  110POPC   C2B 1318  13.733  22.724  18.200  0.3961  0.3109  0.0084
  110POPC   C3B 1319  13.744  22.571  17.757  0.0083  0.1031  0.0519
  110POPC   C4B 1320  13.723  22.278  17.381 -0.4621  0.1161 -0.0338
  111POPC   NC3 1321  21.327  13.091  19.222 -0.1764  0.0840  0.0798
  111POPC   PO4 1322  21.294  12.760  19.378 -0.1282  0.0646 -0.2081
  111POPC   GL1 1323  21.274  12.698  18.950  0.1149 -0.3931  0.2992
  111POPC   GL2 1324  21.572  12.670  19.030 -0.1681  0.2198  0.0126
  111POPC   C1A 1325  20.927  12.687  18.596 -0.3013  0.1245 -0.2224
  111POPC   D2A 1326  20.830  12.671  18.134 -0.0895  0.0705 -0.1078
  111POPC   C3A 1327  20.536  12.839  17.844 -0.2229  0.0239  0.1352
  111POPC   C4A 1328  20.108  12.711  17.648  0.0301 -0.0796 -0.0653
  111POPC   C1B 1329  21.572  12.789  18.579 -0.2290  0.0810 -0.1085
  111POPC   C2B 1330  21.308  12.814  18.215 -0.2092 -0.0888 -0.3683
  111POPC   C3B 1331  21.165  12.849  17.771 -0.1672  0.3228  0.2718
  111POPC   C4B 1332  20.884  12.859  17.409  0.2444 -0.0422 -0.1743
  112POPC   NC3 1333  25.383  27.194  19.606 -0.0271 -0.1131 -0.1262
  112POPC   PO4 1334  25.237  27.004  19.294  0.0194  0.2463 -0.0759
  112POPC   GL1 1335  25.169  26.936  18.903 -0.3347  0.0208  0.1106
  112POPC   GL2 1336  25.177  27.159  18.829  0.0751  0.0593 -0.0507
  112POPC   C1A 1337  24.796  26.727  18.733  0.0001  0.0256 -0.0077
  112POPC   D2A 1338  24.366  26.676  18.553  0.3756  0.3105  0.0136
  112POPC   C3A 1339  24.248  26.791  18.155 -0.2177  0.0828  0.0998
  112POPC   C4A 1340  24.198  26.630  17.772  0.0295 -0.1916  0.1139
  112POPC   C1B 1341  24.909  27.386  18.542  0.2216  0.1701  0.0557
  112POPC   C2B 1342  24.644  27.462  18.150  0.0793  0.1613 -0.1487
  112POPC   C3B 1343  24.398  27.189  17.900  0.0072 -0.2024  0.0112
  112POPC   C4B 1344  24.210  27.107  17.554 -0.2450 -0.1536 -0.1193
  113POPC   NC3 1345   5.382  26.068  19.781 -0.0976 -0.0019  0.1441
  113POPC   PO4 1346   5.433  26.378  19.555  0.4008 -0.1992 -0.1848
  113POPC   GL1 1347   5.236  26.460  19.243  0.1027 -0.0291 -0.2134
  113POPC   GL2 1348   5.067  26.229  19.261 -0.1909  0.1209  0.1529
  113POPC   C1A 1349   5.040  26.752  18.999  0.1467 -0.0346 -0.0396
  113POPC   D2A 1350   4.791  27.012  18.738 -0.2413  0.0136 -0.2065
  113POPC   C3A 1351   4.781  26.889  18.283  0.1692  0.2114 -0.0058
  113POPC   C4A 1352   4.691  26.739  17.787 -0.1853 -0.1856 -0.1370
  113POPC   C1B 1353   5.151  26.320  18.814 -0.1160 -0.1583  0.1226
  113POPC   C2B 1354   5.078  26.366  18.373 -0.0329  0.2815  0.0463
  113POPC   C3B 1355   4.980  26.353  17.962  0.2060 -0.0668  0.4537
  113POPC   C4B 1356   4.703  26.175  17.668  0.0042 -0.1930  0.0871
  114POPC   NC3 1357  19.073  10.039  19.512  0.1905  0.2821  0.1762
  114POPC   PO4 1358  18.730   9.994  19.305 -0.2592 -0.1349  0.0629
  114POPC   GL1 1359  18.629  10.312  19.005 -0.0363 -0.0028 -0.0581
  114POPC   GL2 1360  18.636  10.062  18.825 -0.0095  0.0504  0.1686
  114POPC   C1A 1361  18.670  10.584  18.653  0.3389  0.1220 -0.3468
  114POPC   D2A 1362  18.497  10.793  18.285 -0.0246  0.1609  0.3476
  114POPC   C3A 1363  18.249  10.697  17.912 -0.4401 -0.0102  0.2628
  114POPC   C4A 1364  18.042  10.576  17.507  0.0538  0.1056  0.0463
  114POPC   C1B 1365  18.690   9.925  18.409 -0.0926 -0.2325  0.2417
  114POPC   C2B 1366  18.431   9.800  18.041  0.0201 -0.1286  0.0357
  114POPC   C3B 1367  18.362   9.850  17.588  0.1013  0.0760 -0.0424
  114POPC   C4B 1368  18.352  10.187  17.201 -0.1881  0.3545 -0.1310
  115POPC   NC3 1369  13.907  17.556  18.571 -0.0363 -0.0136  0.0383
  115POPC   PO4 1370  13.767  17.841  18.753  0.2926 -0.0317  0.2109
  115POPC   GL1 1371  13.812  18.127  18.490  0.1783  0.3857  0.0261
  115POPC   GL2 1372  13.552  18.209  18.365  0.1013  0.0395 -0.3747
  115POPC   C1A 1373  14.116  18.219  18.132 -0.0606  0.1823  0.2900
  115POPC   D2A 1374  14.027  18.501  17.751  0.0688  0.1343  0.1037
  115POPC   C3A 1375  13.986  18.440  17.316 -0.2094 -0.0520  0.1260
  115POPC   C4A 1376  14.160  18.423  16.876 -0.0863  0.1451 -0.3393
  115POPC   C1B 1377  13.565  18.153  17.866 -0.2036 -0.1819  0.3512
  115POPC   C2B 1378  13.395  17.920  17.497  0.1915  0.1181 -0.2551
  115POPC   C3B 1379  13.240  17.783  17.101  0.1075 -0.0325  0.2219
  115POPC   C4B 1380  13.376  17.793  16.656  0.0029 -0.1263 -0.1494
  116POPC   NC3 1381  18.690  12.471  19.163  0.2369 -0.2076 -0.0757
  116POPC   PO4 1382  18.958  12.247  19.305  0.2374  0.2239 -0.1348
  116POPC   GL1 1383  19.119  12.140  18.900  0.0134 -0.1915 -0.0553
  116POPC   GL2 1384  19.281  11.849  18.909 -0.2091 -0.2407 -0.0683
  116POPC   C1A 1385  18.709  12.233  18.690 -0.4244 -0.0679 -0.2647
  116POPC   D2A 1386  18.281  12.136  18.597  0.3251  0.0878 -0.3372
  116POPC   C3A 1387  18.067  12.244  18.214 -0.2636 -0.2405  0.1520
  116POPC   C4A 1388  18.119  12.597  17.882  0.2751  0.1193 -0.1948
  116POPC   C1B 1389  19.022  11.875  18.517  0.1849  0.0796  0.2011
  116POPC   C2B 1390  18.688  12.014  18.206 -0.2657  0.0663 -0.0761
  116POPC   C3B 1391  18.464  12.002  17.822  0.0743  0.0497 -0.0655
  116POPC   C4B 1392  18.379  12.286  17.485  0.1796  0.0457 -0.0609
  117POPC   NC3 1393  11.389   6.089  19.281 -0.0770  0.1985  0.0992
  117POPC   PO4 1394  11.091   5.987  19.499 -0.1255 -0.0951  0.1740
  117POPC   GL1 1395  10.970   6.283  19.114  0.0025  0.0621 -0.0407
  117POPC   GL2 1396  11.015   6.072  18.937 -0.0417  0.0349 -0.0361
  117POPC   C1A 1397  10.713   6.469  18.851  0.2543  0.3408 -0.1262
  117POPC   D2A 1398  10.473   6.776  18.689 -0.1802  0.2368 -0.0882
  117POPC   C3A 1399  10.641   7.042  18.307  0.0881  0.0545  0.0092
  117POPC   C4A 1400  10.821   7.441  18.141 -0.2083 -0.1921 -0.0202
  117POPC   C1B 1401  11.069   6.224  18.476  0.1138 -0.0244 -0.2527
  117POPC   C2B 1402  10.835   6.558  18.240 -0.0108 -0.1546 -0.3582
  117POPC   C3B 1403  10.793   6.818  17.865  0.2232 -0.1661  0.0703
  117POPC   C4B 1404  10.589   7.228  17.773 -0.0843 -0.0220 -0.0508
  118POPC   NC3 1405  19.828  19.897  19.872 -0.0719 -0.1200  0.0556
  118POPC   PO4 1406  19.991  19.533  19.915  0.1255 -0.1431 -0.1658
  118POPC   GL1 1407  20.355  19.426  19.919  0.0248  0.0688  0.1334
  118POPC   GL2 1408  20.447  19.450  19.567 -0.3415  0.1750  0.0480
  118POPC   C1A 1409  20.587  19.035  19.835  0.0034  0.4150  0.1113
  118POPC   D2A 1410  20.827  18.686  20.000 -0.1346 -0.2232 -0.1988
  118POPC   C3A 1411  21.014  18.733  20.368 -0.3289 -0.0405 -0.2919
  118POPC   C4A 1412  21.204  18.628  20.776  0.2102 -0.0728  0.1440
  118POPC   C1B 1413  20.811  19.543  19.278  0.1528 -0.0951 -0.1098
  118POPC   C2B 1414  21.096  19.373  18.971 -0.2197  0.0306  0.0006
  118POPC   C3B 1415  21.466  19.408  18.683  0.0155 -0.0852  0.0843
  118POPC   C4B 1416  21.593  19.556  18.272 -0.1331 -0.0958  0.1116
  119POPC   NC3 1417  26.681  17.211  19.203  0.2033  0.0629  0.1174
  119POPC   PO4 1418  26.343  17.338  19.028 -0.0912  0.0539  0.1601
  119POPC   GL1 1419  26.359  17.261  18.626 -0.3652 -0.4611 -0.0076
  119POPC   GL2 1420  26.082  17.452  18.571 -0.3332 -0.0720  0.1428
  119POPC   C1A 1421  26.218  16.951  18.261  0.1248 -0.3181 -0.2157
  119POPC   D2A 1422  26.101  16.758  17.838  0.1838 -0.3103 -0.2417
  119POPC   C3A 1423  26.004  16.281  17.688  0.1868  0.0224 -0.2926
  119POPC   C4A 1424  25.759  15.827  17.707 -0.3919  0.2443  0.2168
  119POPC   C1B 1425  26.112  17.488  18.121 -0.1072 -0.1044  0.2927
  119POPC   C2B 1426  26.330  17.220  17.865  0.2594 -0.1845  0.3209
  119POPC   C3B 1427  26.356  17.033  17.413  0.3507 -0.1690  0.1339
  119POPC   C4B 1428  26.495  16.569  17.277  0.0896  0.1578 -0.3504
  120POPC   NC3 1429  19.110  25.442  19.595  0.2283 -0.1872 -0.1582
  120POPC   PO4 1430  19.025  25.544  19.242  0.0002  0.0525 -0.0540
  120POPC   GL1 1431  18.679  25.581  18.986 -0.2039  0.2226  0.1885
  120POPC   GL2 1432  18.550  25.333  19.112  0.1141 -0.1778  0.1071
  120POPC   C1A 1433  18.464  25.713  18.587  0.0604 -0.0748  0.0899
  120POPC   D2A 1434  18.454  26.037  18.220  0.0679 -0.0924 -0.2940
  120POPC   C3A 1435  18.061  26.177  17.976  0.1830  0.1329 -0.0592
  120POPC   C4A 1436  17.684  26.308  17.772 -0.0053 -0.0072 -0.1967
  120POPC   C1B 1437  18.214  25.247  18.828  0.1530 -0.2656 -0.3032
  120POPC   C2B 1438  18.133  25.211  18.376  0.1430 -0.0998 -0.0556
  120POPC   C3B 1439  17.809  25.150  18.103 -0.2010  0.0282 -0.2065
  120POPC   C4B 1440  17.809  24.862  17.727 -0.0357 -0.0829  0.0554
  121POPC   NC3 1441   3.059   7.068  19.873 -0.0500  0.3474  0.0615
  121POPC   PO4 1442   3.220   7.202  19.526 -0.0356 -0.0095 -0.0559
  121POPC   GL1 1443   2.991   6.941  19.392  0.1321  0.0718  0.2294
  121POPC   GL2 1444   2.884   7.033  19.135 -0.0094  0.0348 -0.3187
  121POPC   C1A 1445   2.716   6.559  19.413 -0.0252  0.0889 -0.2640
  121POPC   D2A 1446   2.399   6.307  19.615  0.1518 -0.2934  0.1920
  121POPC   C3A 1447   2.198   6.543  19.941  0.0518 -0.0765 -0.1406
  121POPC   C4A 1448   1.815   6.686  19.958 -0.4109  0.2479 -0.2129
  121POPC   C1B 1449   2.656   6.683  18.926  0.3230  0.2509 -0.1760
  121POPC   C2B 1450   2.513   6.318  18.669 -0.3685  0.0206 -0.2280
  121POPC   C3B 1451   2.318   5.935  18.539  0.1994  0.2488 -0.1372
  121POPC   C4B 1452   2.036   5.848  18.170  0.2832 -0.1929  0.1376
  122POPC   NC3 1453  22.746  14.558  19.610 -0.3135  0.0731 -0.1750
  122POPC   PO4 1454  22.379  14.703  19.598  0.0076 -0.1924 -0.1782
  122POPC   GL1 1455  22.599  15.043  19.446 -0.1992 -0.0366  0.1160
  122POPC   GL2 1456  22.842  15.055  19.574 -0.1147 -0.2684  0.0885
  122POPC   C1A 1457  22.870  15.377  19.181  0.0723 -0.0869  0.2997
  122POPC   D2A 1458  23.162  15.593  18.893 -0.2141 -0.1192  0.1960
  122POPC   C3A 1459  23.104  15.861  18.517  0.0427  0.0908  0.0942
  122POPC   C4A 1460  22.844  16.088  18.274 -0.0101  0.1649  0.4505
  122POPC   C1B 1461  22.741  15.490  19.728  0.0479 -0.1563  0.4504
  122POPC   C2B 1462  22.722  15.953  19.739 -0.1965  0.2112 -0.2841
  122POPC   C3B 1463  22.872  16.359  19.692 -0.0874 -0.2942  0.2044
  122POPC   C4B 1464  22.985  16.769  19.834  0.1066  0.5290 -0.0968
  123POPC   NC3 1465  31.177  30.938  19.311 -0.1692 -0.3355 -0.0681
  123POPC   PO4 1466  31.245  30.573  19.259  0.2200  0.1551  0.2636
  123POPC   GL1 1467  31.074  30.782  18.930  0.3971 -0.2506  0.0678
  123POPC   GL2 1468  30.832  30.729  19.005 -0.1095  0.2968  0.0064
  123POPC   C1A 1469  31.003  30.814  18.478  0.0546 -0.0600 -0.0658
  123POPC   D2A 1470  30.958  30.958  18.084 -0.2462  0.3477  0.3806
  123POPC   C3A 1471  30.890  30.633  17.773  0.1053  0.0957 -0.1568
  123POPC   C4A 1472  30.441  30.409  17.731 -0.0869  0.2409 -0.2313
  123POPC   C1B 1473  30.541  31.045  18.773  0.2035  0.1274 -0.0046
  123POPC   C2B 1474  30.704  31.268  18.410  0.0192  0.0149  0.0333
  123POPC   C3B 1475  30.776  31.491  17.999 -0.0303  0.2919 -0.2483
  123POPC   C4B 1476  30.708  31.731  17.675  0.0316 -0.1010  0.2182
  124POPC   NC3 1477   4.234   0.906  19.490 -0.2648  0.0530  0.1056
  124POPC   PO4 1478   3.988   0.673  19.323 -0.0002 -0.0850  0.1651
  124POPC   GL1 1479   4.044   0.636  18.887  0.0111 -0.3539 -0.0748
  124POPC   GL2 1480   4.234   0.819  18.835  0.0480  0.1886 -0.0477
  124POPC   C1A 1481   3.745   0.750  18.548  0.0612  0.1347 -0.3621
  124POPC   D2A 1482   3.590   0.623  18.145 -0.1518 -0.3437  0.1384
  124POPC   C3A 1483   3.810   0.270  17.988 -0.1401 -0.1923 -0.1721
  124POPC   C4A 1484   4.235   0.070  18.048  0.2421 -0.3104  0.2108
  124POPC   C1B 1485   4.537   0.772  18.522  0.1598 -0.2448  0.1033
  124POPC   C2B 1486   4.618   0.513  18.166  0.1599 -0.1952 -0.0894
  124POPC   C3B 1487   4.866   0.566  17.815  0.2331 -0.0713  0.2720
  124POPC   C4B 1488   5.124   0.788  17.451  0.1841 -0.0544 -0.1524
  125POPC   NC3 1489  24.035   4.711  18.997  0.0116  0.0173  0.0810
  125POPC   PO4 1490  24.060   5.074  19.185  0.0241  0.1612  0.1019
  125POPC   GL1 1491  24.084   5.148  18.771 -0.2552  0.2234  0.1231
  125POPC   GL2 1492  24.341   5.085  18.771 -0.1465  0.0220 -0.1161
  125POPC   C1A 1493  24.022   4.839  18.453  0.0102  0.1984 -0.0904
  125POPC   D2A 1494  24.063   4.649  18.038 -0.4074 -0.0246 -0.0023
  125POPC   C3A 1495  23.823   4.869  17.657  0.1789 -0.0734 -0.3176
  125POPC   C4A 1496  23.698   4.918  17.185  0.2005  0.2831  0.0462
  125POPC   C1B 1497  24.550   4.970  18.389 -0.1047 -0.0262  0.1780
  125POPC   C2B 1498  24.681   4.861  17.953 -0.0404  0.1665 -0.1355
  125POPC   C3B 1499  24.704   4.515  17.628 -0.3103 -0.2301 -0.1097
  125POPC   C4B 1500  24.915   4.524  17.205  0.0099  0.2018  0.1920
  126POPC   NC3 1501  27.069  20.236  19.522 -0.0558 -0.1093  0.1688
  126POPC   PO4 1502  27.095  19.881  19.334  0.1361 -0.1962  0.0741
  126POPC   GL1 1503  27.080  19.782  18.989 -0.1762  0.0018  0.1847
  126POPC   GL2 1504  26.899  19.569  18.860 -0.1976  0.1926  0.2227
  126POPC   C1A 1505  27.192  19.876  18.561  0.0369 -0.1305  0.0002
  126POPC   D2A 1506  27.331  19.674  18.151  0.1889  0.0006 -0.2169
  126POPC   C3A 1507  27.068  19.718  17.794 -0.4680 -0.2839  0.2342
  126POPC   C4A 1508  27.044  19.545  17.321 -0.1277  0.0093  0.0647
  126POPC   C1B 1509  27.080  19.425  18.482  0.4182  0.1059 -0.2499
  126POPC   C2B 1510  26.952  19.286  18.085 -0.0157 -0.3540 -0.0345
  126POPC   C3B 1511  26.675  19.246  17.673 -0.0146 -0.0647 -0.1954
  126POPC   C4B 1512  26.456  19.205  17.300  0.1494  0.1594 -0.0693
  127POPC   NC3 1513  23.675  25.646  19.386 -0.0610  0.2803 -0.1886
  127POPC   PO4 1514  23.430  25.309  19.287 -0.1961 -0.0255  0.0481
  127POPC   GL1 1515  23.435  25.136  18.872 -0.0923  0.2811 -0.0380
  127POPC   GL2 1516  23.333  24.906  18.970  0.0401 -0.4624  0.0314
  127POPC   C1A 1517  23.645  25.180  18.466 -0.0210 -0.2175  0.2192
  127POPC   D2A 1518  23.717  25.456  18.162 -0.0945 -0.3947  0.0726
  127POPC   C3A 1519  24.012  25.650  17.868 -0.1881  0.2436  0.0437
  127POPC   C4A 1520  24.068  25.702  17.407  0.0310 -0.0507 -0.1258
  127POPC   C1B 1521  23.635  24.601  18.838 -0.0219  0.0886  0.0815
  127POPC   C2B 1522  23.932  24.428  18.519 -0.1708 -0.0356  0.0094
  127POPC   C3B 1523  24.254  24.640  18.237  0.2090 -0.1555 -0.2498
  127POPC   C4B 1524  24.280  24.739  17.767  0.2766 -0.0656  0.1138
  128POPC   NC3 1525  19.500  14.434  19.759 -0.1977  0.1796 -0.2879
  128POPC   PO4 1526  19.329  14.196  19.472 -0.0882  0.0255  0.0967
  128POPC   GL1 1527  19.341  14.105  19.070 -0.0166 -0.5468 -0.0813
  128POPC   GL2 1528  19.195  13.842  19.065  0.0850 -0.1155  0.2196
  128POPC   C1A 1529  19.605  13.831  18.811 -0.1991  0.2152  0.0342
  128POPC   D2A 1530  20.042  13.614  18.900  0.0758  0.1696  0.1355
  128POPC   C3A 1531  20.121  13.196  18.896 -0.0239  0.1651  0.2452
  128POPC   C4A 1532  20.017  12.780  18.702  0.3394 -0.1364 -0.1779
  128POPC   C1B 1533  19.155  13.870  18.629 -0.2644  0.4073  0.2729
  128POPC   C2B 1534  19.395  13.778  18.315 -0.1976 -0.1161  0.1490
  128POPC   C3B 1535  19.685  13.403  18.128  0.1774 -0.2271 -0.0728
  128POPC   C4B 1536  19.916  13.269  17.738 -0.3829 -0.0996  0.0842
  129POPC   NC3 1537   4.396  19.868  19.654  0.0512  0.1389  0.1155
  129POPC   PO4 1538   4.456  20.235  19.576 -0.2172  0.2684 -0.3033
  129POPC   GL1 1539   4.615  20.083  19.238 -0.0572 -0.4926 -0.1510
  129POPC   GL2 1540   4.581  20.284  19.069  0.0123  0.2276 -0.1195
  129POPC   C1A 1541   4.542  19.915  18.824  0.0684 -0.1796 -0.0018
  129POPC   D2A 1542   4.288  20.049  18.456 -0.0793  0.2894  0.0127
  129POPC   C3A 1543   4.409  20.031  18.040  0.1094 -0.0188  0.2111
  129POPC   C4A 1544   4.544  19.766  17.686 -0.1215 -0.1253 -0.1588
  129POPC   C1B 1545   4.509  20.447  18.660 -0.2038 -0.0424 -0.2875
  129POPC   C2B 1546   4.701  20.433  18.188  0.1306  0.1037 -0.1276
  129POPC   C3B 1547   4.724  20.859  18.037  0.5013  0.0339  0.0545
  129POPC   C4B 1548   4.981  21.177  17.835 -0.2280 -0.1074  0.0675
  130POPC   NC3 1549  16.751   2.264  19.234  0.2829 -0.1267 -0.0724
  130POPC   PO4 1550  16.583   1.922  19.222  0.4108 -0.0062  0.3393
  130POPC   GL1 1551  16.806   2.014  18.869 -0.1400 -0.3288  0.0485
  130POPC   GL2 1552  17.117   2.055  18.892  0.0656  0.1180 -0.0844
  130POPC   C1A 1553  16.513   1.972  18.511 -0.2080 -0.0356 -0.0934
  130POPC   D2A 1554  16.325   2.176  18.119 -0.2423 -0.2404  0.1064
  130POPC   C3A 1555  15.979   2.006  17.880 -0.0407  0.1692  0.0246
  130POPC   C4A 1556  15.692   1.636  17.708 -0.1015  0.0821 -0.2775
  130POPC   C1B 1557  17.240   1.806  18.536 -0.0219 -0.0244 -0.1329
  130POPC   C2B 1558  17.306   1.653  18.095 -0.1681  0.2547  0.1884
  130POPC   C3B 1559  17.613   1.577  17.847  0.0005 -0.0908 -0.0965
  130POPC   C4B 1560  17.782   1.161  17.720  0.0100 -0.2461  0.1110
  131POPC   NC3 1561  23.834  26.629  19.684  0.0333  0.1172  0.2042
  131POPC   PO4 1562  23.905  26.767  19.321 -0.1803 -0.1484 -0.0157
  131POPC   GL1 1563  23.905  26.664  18.919  0.2010 -0.0558  0.7147
  131POPC   GL2 1564  23.688  26.502  18.790 -0.0340 -0.1078 -0.0209
  131POPC   C1A 1565  23.941  26.924  18.521  0.1146 -0.1650 -0.1105
  131POPC   D2A 1566  24.063  27.276  18.264 -0.4413  0.2450  0.0118
  131POPC   C3A 1567  23.811  27.305  17.836  0.2207 -0.2595  0.1663
  131POPC   C4A 1568  23.598  27.242  17.428  0.0372  0.2306 -0.1959
  131POPC   C1B 1569  23.892  26.443  18.355  0.1343 -0.1222  0.1714
  131POPC   C2B 1570  23.865  26.229  17.937 -0.0488 -0.2106  0.1260
  131POPC   C3B 1571  24.188  26.104  17.698  0.1776 -0.1041 -0.0300
  131POPC   C4B 1572  24.536  26.342  17.540 -0.0246 -0.3410 -0.0002
  132POPC   NC3 1573  24.003  29.587  19.456  0.0120 -0.0235 -0.2296
  132POPC   PO4 1574  24.153  29.889  19.659 -0.0790  0.0884  0.0053
  132POPC   GL1 1575  24.394  29.767  19.322  0.1027  0.0530  0.0864
  132POPC   GL2 1576  24.609  29.940  19.313  0.0145  0.2732 -0.1049
  132POPC   C1A 1577  24.215  29.539  18.957 -0.0888 -0.0568 -0.1139
  132POPC   D2A 1578  24.118  29.775  18.598  0.1590  0.3412  0.1082
  132POPC   C3A 1579  24.264  29.600  18.242  0.2632  0.0140  0.2902
  132POPC   C4A 1580  24.315  29.557  17.820 -0.1717 -0.2025  0.1389
  132POPC   C1B 1581  24.513  30.172  18.936  0.1408  0.0337  0.0198
  132POPC   C2B 1582  24.088  30.253  18.746 -0.1790 -0.0221  0.1652
  132POPC   C3B 1583  23.648  30.322  18.693  0.2377  0.0721 -0.0770
  132POPC   C4B 1584  23.210  30.550  18.756 -0.1310 -0.0307  0.2858
  133POPC   NC3 1585  20.897  12.531  19.179 -0.2480  0.1063 -0.3384
  133POPC   PO4 1586  21.175  12.254  19.193  0.1980 -0.0094  0.2788
  133POPC   GL1 1587  21.253  12.140  18.947  0.0126  0.2694 -0.1712
  133POPC   GL2 1588  21.336  12.337  18.726 -0.2296  0.1345  0.1718
  133POPC   C1A 1589  21.450  11.831  18.649 -0.0683  0.3254  0.0582
  133POPC   D2A 1590  21.609  11.854  18.202 -0.0185  0.1153  0.1960
  133POPC   C3A 1591  21.691  11.765  17.699 -0.0376 -0.3080  0.0009
  133POPC   C4A 1592  21.714  11.429  17.370 -0.0181  0.0136 -0.1648
  133POPC   C1B 1593  21.200  12.236  18.266 -0.1652  0.1364  0.0665
  133POPC   C2B 1594  21.123  12.270  17.780  0.0293 -0.0030  0.2361
  133POPC   C3B 1595  20.971  12.356  17.357  0.2336  0.2301 -0.1739
  133POPC   C4B 1596  20.926  12.084  16.955 -0.2987 -0.0232  0.2718
  134POPC   NC3 1597  15.423  23.852  19.282  0.0750 -0.0734  0.1718
  134POPC   PO4 1598  15.579  24.083  18.975 -0.0056  0.1532  0.0481
  134POPC   GL1 1599  15.663  24.181  18.548 -0.3534  0.0661  0.2803
  134POPC   GL2 1600  15.808  23.935  18.537 -0.0544 -0.3206  0.0043
  134POPC   C1A 1601  15.355  24.382  18.292 -0.1911 -0.1008 -0.1485
  134POPC   D2A 1602  14.959  24.284  18.048 -0.1016 -0.1184 -0.1697
  134POPC   C3A 1603  14.979  24.323  17.615 -0.2435 -0.1975 -0.0110
  134POPC   C4A 1604  15.185  24.231  17.259  0.1914 -0.3119 -0.1391
  134POPC   C1B 1605  15.762  24.061  18.058  0.1359 -0.1991 -0.0666
  134POPC   C2B 1606  15.608  24.386  17.723  0.0257  0.1806 -0.1776
  134POPC   C3B 1607  15.588  24.432  17.273 -0.1195 -0.0670 -0.0151
  134POPC   C4B 1608  15.345  24.562  16.914  0.0404  0.0144 -0.4259
  135POPC   NC3 1609   3.619   0.975  19.223  0.2791  0.0577  0.2041
  135POPC   PO4 1610   3.334   1.207  19.139 -0.2181  0.1492  0.4847
  135POPC   GL1 1611   3.311   1.198  18.758 -0.1452 -0.1256 -0.1868
  135POPC   GL2 1612   3.627   1.169  18.713 -0.0108 -0.0225 -0.0171
  135POPC   C1A 1613   3.262   1.568  18.436  0.3220  0.2442 -0.1180
  135POPC   D2A 1614   3.257   1.953  18.198  0.0445  0.1444 -0.1518
  135POPC   C3A 1615   3.650   2.089  17.930  0.3657 -0.0941 -0.1451
  135POPC   C4A 1616   4.107   2.127  17.918  0.1739  0.0591 -0.0992
  135POPC   C1B 1617   3.436   1.142  18.329 -0.0120  0.0529  0.1086
  135POPC   C2B 1618   3.698   1.048  17.912  0.1807 -0.1362 -0.0364
  135POPC   C3B 1619   3.841   1.038  17.452 -0.1383  0.0086 -0.3485
  135POPC   C4B 1620   4.109   1.069  17.058  0.0186 -0.0807 -0.0061
  136POPC   NC3 1621  24.943  15.933  18.990 -0.1440  0.2607 -0.2900
  136POPC   PO4 1622  24.991  16.293  19.157  0.2859  0.0502 -0.0918
  136POPC   GL1 1623  24.614  16.263  18.822 -0.0192  0.2665 -0.0095
  136POPC   GL2 1624  24.789  16.216  18.593  0.0398  0.0103 -0.2843
  136POPC   C1A 1625  24.349  16.572  18.582 -0.1715  0.4152  0.2769
  136POPC   D2A 1626  24.095  16.557  18.126 -0.3815  0.2360 -0.0495
  136POPC   C3A 1627  23.765  16.457  17.835 -0.2569 -0.1061 -0.0384
  136POPC   C4A 1628  23.479  16.731  17.587 -0.0770 -0.1077 -0.2441
  136POPC   C1B 1629  24.696  16.505  18.207 -0.0310  0.1899 -0.3428
  136POPC   C2B 1630  24.480  16.619  17.844 -0.1629 -0.2287  0.0307
  136POPC   C3B 1631  24.179  16.676  17.552  0.1650  0.1977 -0.0383
  136POPC   C4B 1632  23.818  16.578  17.249  0.1213 -0.3394  0.2326
  137POPC   NC3 1633  28.423  28.198  19.679  0.0306  0.1814 -0.0421
  137POPC   PO4 1634  28.278  28.435  19.411 -0.2208 -0.2784 -0.0177
  137POPC   GL1 1635  28.352  28.207  19.177  0.0547 -0.0010 -0.0023
  137POPC   GL2 1636  28.589  27.992  19.180  0.2540  0.2615 -0.0808
  137POPC   C1A 1637  28.560  28.251  18.770  0.0545  0.1778 -0.2262
  137POPC   D2A 1638  28.371  28.029  18.365 -0.2283  0.0452 -0.2052
  137POPC   C3A 1639  28.645  28.125  17.985  0.0914 -0.1253  0.0992
  137POPC   C4A 1640  28.930  27.971  17.624 -0.1965 -0.0060  0.1948
  137POPC   C1B 1641  28.565  27.758  18.766  0.2133 -0.0309 -0.1636
  137POPC   C2B 1642  28.787  27.653  18.372 -0.1187  0.1118 -0.3405
  137POPC   C3B 1643  29.078  27.822  18.057  0.1591 -0.0676  0.1485
  137POPC   C4B 1644  29.466  27.906  17.916  0.1474 -0.2797  0.2824
  138POPC   NC3 1645  20.268  22.313  19.742 -0.0635 -0.0691 -0.1374
  138POPC   PO4 1646  20.417  22.333  19.398 -0.3207  0.0515 -0.2606
  138POPC   GL1 1647  20.502  22.449  19.015  0.2452 -0.0945  0.2171
  138POPC   GL2 1648  20.600  22.777  19.038  0.0621  0.0275  0.1317
  138POPC   C1A 1649  20.264  22.715  18.658 -0.0790 -0.0356  0.1497
  138POPC   D2A 1650  20.208  22.744  18.175 -0.1598  0.1099  0.0606
  138POPC   C3A 1651  20.356  23.087  17.908 -0.4419 -0.0321  0.2827
  138POPC   C4A 1652  20.643  23.402  17.781 -0.1666  0.4277  0.0715
  138POPC   C1B 1653  20.785  22.710  18.615  0.0754  0.1490 -0.2117
  138POPC   C2B 1654  20.864  22.578  18.208 -0.0145 -0.3684  0.2340
  138POPC   C3B 1655  20.764  22.764  17.796  0.3620  0.2959 -0.0405
  138POPC   C4B 1656  20.842  22.882  17.355  0.1454  0.3602  0.0399
  139POPC   NC3 1657  19.323  12.781  19.700  0.0219  0.1822  0.0727
  139POPC   PO4 1658  19.037  12.749  19.429 -0.2431 -0.1232  0.3584
  139POPC   GL1 1659  19.139  12.969  19.053 -0.0177  0.1414 -0.1688
  139POPC   GL2 1660  19.025  12.759  18.888 -0.1625 -0.1470 -0.1231
  139POPC   C1A 1661  19.446  12.854  18.714  0.0109 -0.0912  0.1160
  139POPC   D2A 1662  19.695  12.629  18.418  0.0653  0.2257  0.0244
  139POPC   C3A 1663  19.722  12.879  17.993  0.0135 -0.3460 -0.1027
  139POPC   C4A 1664  19.571  12.843  17.539 -0.0148  0.2181  0.2545
  139POPC   C1B 1665  19.087  12.559  18.483  0.4371  0.3273  0.1500
  139POPC   C2B 1666  18.990  12.367  18.066 -0.1894 -0.2007 -0.2181
  139POPC   C3B 1667  18.911  12.202  17.638 -0.0923  0.1298  0.1570
  139POPC   C4B 1668  19.188  11.907  17.451  0.0237 -0.0417 -0.3125
  140POPC   NC3 1669   3.681  10.745  18.942  0.0340 -0.0776 -0.4546
  140POPC   PO4 1670   4.003  10.559  19.095 -0.2327 -0.0646 -0.0381
  140POPC   GL1 1671   4.141  10.506  18.682 -0.3630  0.0010 -0.1359
  140POPC   GL2 1672   3.983  10.729  18.547  0.0164 -0.1115 -0.0339
  140POPC   C1A 1673   4.287  10.238  18.382  0.0706 -0.0226 -0.1544
  140POPC   D2A 1674   4.390   9.805  18.227  0.2137  0.3422  0.1106
  140POPC   C3A 1675   4.576   9.813  17.816  0.1415  0.2106  0.0128
  140POPC   C4A 1676   4.716   9.870  17.392  0.3999  0.0480 -0.1954
  140POPC   C1B 1677   3.886  10.564  18.129  0.1060 -0.0760 -0.2589
  140POPC   C2B 1678   4.054  10.610  17.671  0.0217  0.0391  0.0906
  140POPC   C3B 1679   4.196  10.604  17.247  0.0535 -0.1490  0.1930
  140POPC   C4B 1680   4.275  10.904  16.893  0.2515  0.0094 -0.2856
  141POPC   NC3 1681  17.039  22.183  19.181  0.0802 -0.2166  0.0388
  141POPC   PO4 1682  16.629  22.202  19.052  0.1938  0.2549  0.1880
  141POPC   GL1 1683  16.545  22.139  18.645  0.1840  0.2124 -0.1149
  141POPC   GL2 1684  16.379  21.894  18.658 -0.1856 -0.1827 -0.0459
  141POPC   C1A 1685  16.182  22.210  18.347 -0.1843  0.1917 -0.0441
  141POPC   D2A 1686  15.924  22.450  18.122  0.2373 -0.0472  0.1091
  141POPC   C3A 1687  15.591  22.596  17.834 -0.0125 -0.1639 -0.1292
  141POPC   C4A 1688  15.258  22.904  17.974  0.0950  0.1030 -0.1044
  141POPC   C1B 1689  16.520  21.858  18.240  0.0473  0.0058  0.2668
  141POPC   C2B 1690  16.497  21.860  17.776  0.0288 -0.1031 -0.1404
  141POPC   C3B 1691  16.382  21.706  17.366 -0.0416 -0.2541  0.0333
  141POPC   C4B 1692  16.281  21.364  17.067  0.0170  0.1787  0.0886
  142POPC   NC3 1693  10.254   9.270  19.893 -0.2468 -0.0507 -0.2167
  142POPC   PO4 1694   9.978   9.529  20.057  0.1045  0.2416 -0.2991
  142POPC   GL1 1695   9.832   9.081  19.892 -0.1558  0.0009  0.2164
  142POPC   GL2 1696   9.872   8.978  20.128  0.1847 -0.0710  0.2668
  142POPC   C1A 1697  10.004   8.996  19.441 -0.0428  0.0836  0.1644
  142POPC   D2A 1698  10.250   9.026  19.057 -0.2366  0.1473 -0.1806
  142POPC   C3A 1699  10.717   8.851  19.066  0.2476  0.1208 -0.1373
  142POPC   C4A 1700  11.091   8.710  19.185  0.5425  0.4161 -0.2422
  142POPC   C1B 1701  10.113   8.677  19.919 -0.1998 -0.0237 -0.0826
  142POPC   C2B 1702  10.474   8.410  20.030 -0.1301  0.1829 -0.2029
  142POPC   C3B 1703  10.712   8.046  20.168 -0.3030 -0.0159  0.1698
  142POPC   C4B 1704  10.834   7.577  20.340 -0.1837 -0.4108 -0.0600
  143POPC   NC3 1705  27.386  28.484  19.640 -0.1744  0.1519 -0.0183
  143POPC   PO4 1706  27.158  28.790  19.675  0.1508  0.1428 -0.0227
  143POPC   GL1 1707  27.105  28.689  19.283  0.3663 -0.0814  0.1336
  143POPC   GL2 1708  26.965  28.385  19.361  0.3179  0.0409  0.1168
  143POPC   C1A 1709  26.978  28.530  18.868  0.0993  0.1250 -0.0146
  143POPC   D2A 1710  26.850  28.564  18.414 -0.0066  0.1863 -0.1330
  143POPC   C3A 1711  26.817  28.559  17.918 -0.0517 -0.1143  0.2576
  143POPC   C4A 1712  26.863  28.718  17.544  0.1651 -0.1240  0.0824
  143POPC   C1B 1713  27.368  28.248  19.171  0.1479 -0.0532  0.0392
  143POPC   C2B 1714  27.642  27.986  18.891 -0.3323 -0.0657 -0.1502
  143POPC   C3B 1715  28.077  28.112  18.772 -0.2213  0.2141 -0.0026
  143POPC   C4B 1716  28.193  28.471  18.451  0.2480 -0.1511  0.1209
  144POPC   NC3 1717   8.131  14.182  19.716 -0.1308 -0.2756 -0.1603
  144POPC   PO4 1718   8.458  14.197  19.518  0.1125  0.2760  0.0496
  144POPC   GL1 1719   8.330  14.259  19.155  0.0820 -0.0640  0.1947
  144POPC   GL2 1720   8.001  14.332  19.245  0.1843  0.0624 -0.2018
  144POPC   C1A 1721   8.393  14.447  18.790  0.0965  0.3526  0.1628
  144POPC   D2A 1722   8.196  14.634  18.422 -0.0796 -0.2059 -0.0398
  144POPC   C3A 1723   8.299  14.945  18.149 -0.0974 -0.2175  0.2781
  144POPC   C4A 1724   8.105  15.034  17.779 -0.2139  0.0365  0.4634
  144POPC   C1B 1725   7.957  14.658  18.908 -0.0889  0.0706  0.0243
  144POPC   C2B 1726   7.751  14.763  18.544 -0.0037 -0.2197  0.0772
  144POPC   C3B 1727   7.750  14.886  18.087 -0.0238 -0.2308 -0.1957
  144POPC   C4B 1728   7.680  15.306  17.852  0.1944 -0.0434  0.1779
  145POPC   NC3 1729   7.034   5.964  19.496  0.1793 -0.0832 -0.0033
  145POPC   PO4 1730   7.205   6.115  19.160 -0.0687 -0.1777 -0.1981
  145POPC   GL1 1731   7.335   6.202  18.729  0.0734 -0.0322 -0.0594
  145POPC   GL2 1732   7.097   6.288  18.560  0.0403  0.0012  0.0152
  145POPC   C1A 1733   7.446   5.987  18.350 -0.3544 -0.1488  0.2866
  145POPC   D2A 1734   7.252   5.736  18.017  0.2822 -0.0351  0.1651
  145POPC   C3A 1735   7.193   6.030  17.733  0.1710  0.2954 -0.0762
  145POPC   C4A 1736   7.174   6.134  17.279 -0.1718  0.1851  0.0089
  145POPC   C1B 1737   6.940   6.327  18.109 -0.0472  0.2239  0.1019
  145POPC   C2B 1738   6.756   6.369  17.667 -0.0847 -0.1567 -0.0421
  145POPC   C3B 1739   6.683   6.215  17.271  0.0762 -0.1637  0.0060
  145POPC   C4B 1740   6.859   6.343  16.850 -0.1268  0.1948 -0.4359
  146POPC   NC3 1741  16.797  24.233  19.888  0.2023 -0.2243  0.2123
  146POPC   PO4 1742  16.651  24.011  19.544 -0.0362  0.0279  0.1843
  146POPC   GL1 1743  16.844  23.885  19.236 -0.1436 -0.1423  0.0082
  146POPC   GL2 1744  16.956  23.624  19.123  0.2411  0.0803  0.0743
  146POPC   C1A 1745  17.125  24.050  18.893 -0.0090 -0.1513 -0.0312
  146POPC   D2A 1746  17.299  23.782  18.518  0.3519  0.4038 -0.0993
  146POPC   C3A 1747  17.362  23.922  18.122  0.0285  0.1105  0.0243
  146POPC   C4A 1748  17.369  24.063  17.699 -0.1124 -0.0498 -0.0507
  146POPC   C1B 1749  16.753  23.482  18.747 -0.0322 -0.0757 -0.0606
  146POPC   C2B 1750  16.771  23.455  18.276  0.1371  0.2007 -0.0350
  146POPC   C3B 1751  16.686  23.465  17.836  0.0512 -0.2294  0.2159
  146POPC   C4B 1752  16.676  23.185  17.435 -0.0682 -0.0286  0.2760
  147POPC   NC3 1753   0.655   1.900  19.100  0.0151 -0.0357  0.1471
  147POPC   PO4 1754   1.051   1.977  19.106 -0.2107 -0.0087 -0.1428
  147POPC   GL1 1755   1.040   2.062  18.668 -0.0839  0.5422 -0.1963
  147POPC   GL2 1756   0.719   2.171  18.695 -0.0581 -0.2024  0.0955
  147POPC   C1A 1757   1.364   2.009  18.343 -0.1053  0.1395  0.0643
  147POPC   D2A 1758   1.484   1.951  17.928 -0.0780 -0.0003 -0.1884
  147POPC   C3A 1759   1.577   2.122  17.498 -0.1260 -0.0325  0.0508
  147POPC   C4A 1760   1.375   2.176  17.092  0.1565 -0.0734  0.0490
  147POPC   C1B 1761   0.566   2.025  18.285 -0.0852  0.0634 -0.5909
  147POPC   C2B 1762   0.631   2.138  17.863  0.1010  0.0914  0.0329
  147POPC   C3B 1763   0.626   2.121  17.377 -0.0635 -0.2531 -0.1412
  147POPC   C4B 1764   0.384   2.415  17.149  0.0064 -0.0281  0.4515
  148POPC   NC3 1765  11.261  26.899  19.362 -0.1399 -0.1199  0.1473
  148POPC   PO4 1766  11.509  27.219  19.390  0.3051 -0.1153 -0.1808
  148POPC   GL1 1767  11.292  27.388  19.070 -0.1828  0.1452  0.2128
  148POPC   GL2 1768  11.462  27.422  18.864  0.0066 -0.2318 -0.0262
  148POPC   C1A 1769  10.959  27.442  18.784  0.2715  0.1251  0.0497
  148POPC   D2A 1770  10.892  27.668  18.332  0.1392  0.3264 -0.0505
  148POPC   C3A 1771  10.964  27.362  17.963  0.0466  0.0178 -0.1256
  148POPC   C4A 1772  10.941  27.059  17.580 -0.3294 -0.0508 -0.1267
  148POPC   C1B 1773  11.752  27.437  18.536  0.3885 -0.0948 -0.2476
  148POPC   C2B 1774  12.004  27.533  18.169  0.2391 -0.0474 -0.1159
  148POPC   C3B 1775  11.827  27.553  17.722  0.2524  0.1140 -0.1571
  148POPC   C4B 1776  11.701  27.805  17.375 -0.2344 -0.1583 -0.2415
  149POPC   NC3 1777   0.846  17.244  19.354  0.2054 -0.0107  0.2040
  149POPC   PO4 1778   1.171  16.992  19.390 -0.0658 -0.0653  0.2088
  149POPC   GL1 1779   0.968  16.856  19.208 -0.0595 -0.0284  0.0879
  149POPC   GL2 1780   1.142  16.769  18.939 -0.1395  0.0744  0.0212
  149POPC   C1A 1781   0.756  17.113  18.845 -0.2260  0.1368 -0.0757
  149POPC   D2A 1782   0.783  17.473  18.527 -0.1106 -0.0993 -0.1127
  149POPC   C3A 1783   0.652  17.458  18.106  0.0279 -0.1290  0.1974
  149POPC   C4A 1784   0.954  17.452  17.683  0.1105 -0.0886 -0.2366
  149POPC   C1B 1785   0.902  16.585  18.630  0.1983 -0.0859 -0.3030
  149POPC   C2B 1786   0.875  16.662  18.144  0.2949 -0.2544  0.2255
  149POPC   C3B 1787   1.048  16.724  17.759 -0.1484  0.1926 -0.0712
  149POPC   C4B 1788   1.313  17.032  17.552 -0.1000 -0.3261  0.0965
  150POPC   NC3 1789  16.905  11.398  19.282 -0.0246 -0.2742 -0.3445
  150POPC   PO4 1790  16.789  11.746  19.554  0.0033 -0.0882 -0.0291
  150POPC   GL1 1791  16.862  11.876  19.244  0.0588  0.4859 -0.1685
  150POPC   GL2 1792  17.180  11.918  19.109 -0.1731 -0.0610 -0.0805
  150POPC   C1A 1793  16.819  12.142  18.835  0.0627 -0.0562 -0.1195
  150POPC   D2A 1794  16.619  12.529  18.649  0.4181  0.0006 -0.1869
  150POPC   C3A 1795  16.927  12.840  18.413  0.0510  0.0462  0.0056
  150POPC   C4A 1796  17.273  12.693  18.098  0.0845  0.0104  0.1117
  150POPC   C1B 1797  17.371  12.042  18.736  0.1919  0.1892  0.1536
  150POPC   C2B 1798  17.490  12.258  18.339 -0.1330  0.0539  0.2052
  150POPC   C3B 1799  17.595  12.242  17.906  0.0437 -0.0154 -0.3702
  150POPC   C4B 1800  17.522  12.076  17.503 -0.0061 -0.2705 -0.0355
  151POPC   NC3 1801   4.734  22.121  20.049  0.4441 -0.1767 -0.0353
  151POPC   PO4 1802   4.829  21.752  20.082  0.2350 -0.0959 -0.0274
  151POPC   GL1 1803   4.927  21.936  19.652 -0.0140 -0.0002 -0.1785
  151POPC   GL2 1804   4.832  21.738  19.428 -0.0720 -0.1006  0.1235
  151POPC   C1A 1805   5.311  21.978  19.353  0.0730  0.3116 -0.1364
  151POPC   D2A 1806   5.513  22.232  19.054  0.1139 -0.0378 -0.1659
  151POPC   C3A 1807   5.893  21.959  19.140  0.1198 -0.3844 -0.0284
  151POPC   C4A 1808   6.315  22.031  19.260  0.0000 -0.2005  0.2993
  151POPC   C1B 1809   4.846  21.377  19.139  0.1276  0.3067 -0.4493
  151POPC   C2B 1810   5.141  21.277  18.789 -0.3003  0.0590 -0.1448
  151POPC   C3B 1811   5.501  21.448  18.474  0.0098  0.0187  0.2876
  151POPC   C4B 1812   5.958  21.300  18.326  0.1039 -0.2798  0.2171
  152POPC   NC3 1813  23.094  20.337  20.354  0.3265  0.2654  0.2567
  152POPC   PO4 1814  23.494  20.269  20.367 -0.1674  0.5312 -0.0718
  152POPC   GL1 1815  23.570  19.855  20.444  0.1645  0.0406 -0.0113
  152POPC   GL2 1816  23.292  19.746  20.575  0.0968  0.0678 -0.3074
  152POPC   C1A 1817  23.463  19.462  20.149 -0.0957 -0.0356 -0.3265
  152POPC   D2A 1818  23.662  19.278  19.821 -0.0262 -0.5457 -0.0501
  152POPC   C3A 1819  23.601  18.815  19.812 -0.0628 -0.2002  0.1033
  152POPC   C4A 1820  23.571  18.356  19.902 -0.0699  0.0055 -0.0002
  152POPC   C1B 1821  23.030  19.359  20.502  0.1168 -0.0119  0.1793
  152POPC   C2B 1822  22.607  19.166  20.503 -0.1778 -0.1150  0.3003
  152POPC   C3B 1823  22.509  18.645  20.395 -0.2486  0.2098  0.0469
  152POPC   C4B 1824  22.714  18.308  20.189 -0.0616  0.0363 -0.0797
  153POPC   NC3 1825  29.565   7.930  19.412 -0.2605  0.3328  0.5777
  153POPC   PO4 1826  29.464   7.567  19.352  0.1313  0.0981 -0.0051
  153POPC   GL1 1827  29.754   7.711  19.037  0.1708  0.0507 -0.0889
  153POPC   GL2 1828  29.897   7.472  18.884  0.0110  0.2266  0.0713
  153POPC   C1A 1829  29.826   7.932  18.622 -0.2142 -0.0504 -0.1162
  153POPC   D2A 1830  29.928   7.850  18.126  0.2046 -0.1350 -0.0938
  153POPC   C3A 1831  30.034   8.038  17.702  0.2619 -0.2034  0.3244
  153POPC   C4A 1832  30.204   8.020  17.238 -0.2433 -0.0553 -0.1105
  153POPC   C1B 1833  29.830   7.414  18.430  0.0164 -0.4356 -0.2136
  153POPC   C2B 1834  29.580   7.325  17.997 -0.1860  0.2402  0.0632
  153POPC   C3B 1835  29.223   7.333  17.668 -0.2411  0.2724  0.3771
  153POPC   C4B 1836  29.035   7.398  17.287  0.1135 -0.2670  0.2491
  154POPC   NC3 1837  21.734   7.065  19.802  0.2572 -0.2485  0.1180
  154POPC   PO4 1838  21.811   7.291  19.478  0.0680 -0.0636  0.1633
  154POPC   GL1 1839  21.975   7.419  19.135  0.1286 -0.0900  0.2000
  154POPC   GL2 1840  21.850   7.140  19.013 -0.0477 -0.0725  0.1655
  154POPC   C1A 1841  22.153   7.465  18.677  0.0814  0.0716 -0.1190
  154POPC   D2A 1842  22.400   7.631  18.312  0.0657  0.0803 -0.0566
  154POPC   C3A 1843  22.172   8.004  18.084  0.2738  0.0166 -0.1376
  154POPC   C4A 1844  21.948   7.928  17.720  0.4392  0.0641  0.1456
  154POPC   C1B 1845  21.655   7.212  18.574  0.0766  0.0209  0.0399
  154POPC   C2B 1846  21.566   7.215  18.131 -0.0974 -0.0156 -0.1765
  154POPC   C3B 1847  21.669   7.105  17.718 -0.0100 -0.1443 -0.0267
  154POPC   C4B 1848  21.755   6.836  17.449  0.1107 -0.0328 -0.2517
  155POPC   NC3 1849  27.290  17.689  19.461 -0.3054 -0.0422 -0.1056
  155POPC   PO4 1850  27.296  17.335  19.294  0.0173 -0.0830 -0.2117
  155POPC   GL1 1851  27.122  16.962  19.020 -0.1518 -0.0174 -0.1010
  155POPC   GL2 1852  26.896  16.846  18.923  0.2458  0.2286  0.2996
  155POPC   C1A 1853  27.309  16.887  18.606  0.3557 -0.2743 -0.1702
  155POPC   D2A 1854  27.553  16.793  18.260  0.0099 -0.0325 -0.1098
  155POPC   C3A 1855  27.585  17.058  17.913  0.2152 -0.1220 -0.1512
  155POPC   C4A 1856  27.538  17.267  17.513 -0.1506 -0.0222  0.4551
  155POPC   C1B 1857  26.867  17.157  18.577 -0.4453  0.2185 -0.2890
  155POPC   C2B 1858  27.125  17.111  18.154 -0.1514 -0.0078 -0.3082
  155POPC   C3B 1859  26.958  16.972  17.702  0.0818 -0.0393 -0.1784
  155POPC   C4B 1860  26.831  17.022  17.256 -0.1175 -0.1348  0.2949
  156POPC   NC3 1861   6.668   8.765  19.357 -0.1855 -0.0638 -0.0324
  156POPC   PO4 1862   6.689   9.060  19.072 -0.0140  0.1817  0.1682
  156POPC   GL1 1863   6.479   9.070  18.791 -0.0442 -0.0217  0.3777
  156POPC   GL2 1864   6.190   9.073  18.777  0.1879 -0.1078 -0.2070
  156POPC   C1A 1865   6.698   8.896  18.416  0.2362  0.0967  0.4075
  156POPC   D2A 1866   6.607   9.079  17.987 -0.0215  0.2520  0.0229
  156POPC   C3A 1867   6.400   8.885  17.613  0.2403 -0.0923 -0.0823
  156POPC   C4A 1868   6.140   8.553  17.355  0.1695 -0.1457 -0.0742
  156POPC   C1B 1869   6.330   9.247  18.329  0.0049 -0.1152  0.0798
  156POPC   C2B 1870   6.322   9.449  17.861 -0.0157  0.0510 -0.0128
  156POPC   C3B 1871   6.507   9.410  17.500 -0.2002 -0.0955 -0.0077
  156POPC   C4B 1872   6.798   9.457  17.064 -0.1366  0.0039  0.0350
  157POPC   NC3 1873   2.651   7.414  19.274 -0.1825 -0.0768  0.3278
  157POPC   PO4 1874   2.684   7.239  19.601 -0.2010 -0.0583  0.1710
  157POPC   GL1 1875   2.499   6.974  19.371 -0.1736 -0.0178 -0.1757
  157POPC   GL2 1876   2.311   7.008  19.171 -0.0608 -0.0128 -0.0807
  157POPC   C1A 1877   2.089   6.787  19.531  0.3189  0.2354 -0.1955
  157POPC   D2A 1878   1.845   6.358  19.558  0.0007 -0.0012 -0.0796
  157POPC   C3A 1879   1.866   6.086  19.919  0.1940  0.1943  0.1880
  157POPC   C4A 1880   1.805   5.959  20.414 -0.0247 -0.1442 -0.1760
  157POPC   C1B 1881   2.272   6.500  19.154  0.2918  0.0087 -0.2135
  157POPC   C2B 1882   2.216   6.069  19.169 -0.2659 -0.0078 -0.1474
  157POPC   C3B 1883   2.159   5.643  18.947 -0.0306  0.3003  0.0297
  157POPC   C4B 1884   1.890   5.406  18.634 -0.1343 -0.1549 -0.0037
  158POPC   NC3 1885   7.604  13.458  19.230  0.1487 -0.1829  0.3453
  158POPC   PO4 1886   7.752  13.791  19.452 -0.0325  0.1572  0.1533
  158POPC   GL1 1887   8.043  13.839  19.138 -0.1362 -0.5401 -0.0152
  158POPC   GL2 1888   7.842  13.847  18.984 -0.0189 -0.1456 -0.1349
  158POPC   C1A 1889   8.390  13.962  18.850  0.1125 -0.0960  0.1234
  158POPC   D2A 1890   8.775  14.064  18.650 -0.0437 -0.1152  0.1683
  158POPC   C3A 1891   8.807  14.401  18.358 -0.0135 -0.2750  0.2081
  158POPC   C4A 1892   8.758  14.775  18.126  0.3069 -0.0212  0.1178
  158POPC   C1B 1893   7.891  14.180  18.696 -0.1638 -0.2261 -0.0099
  158POPC   C2B 1894   7.777  14.330  18.240 -0.1593 -0.1459  0.1216
  158POPC   C3B 1895   7.994  14.490  17.855 -0.0121  0.3071 -0.1103
  158POPC   C4B 1896   8.055  14.529  17.396 -0.1161  0.0234  0.0258
  159POPC   NC3 1897  15.009   4.924  19.622 -0.3046 -0.4532 -0.1896
  159POPC   PO4 1898  14.905   4.574  19.673  0.4009 -0.1888 -0.0608
  159POPC   GL1 1899  14.841   4.677  19.225 -0.0153 -0.2152 -0.0294
  159POPC   GL2 1900  14.994   4.442  19.171  0.0331  0.1648  0.2892
  159POPC   C1A 1901  15.020   5.032  19.048  0.0218  0.1891  0.2359
  159POPC   D2A 1902  15.039   5.443  18.836  0.3382 -0.1377  0.1220
  159POPC   C3A 1903  15.009   5.525  18.349  0.1522  0.0278  0.1520
  159POPC   C4A 1904  14.841   5.429  17.911  0.0626  0.0872 -0.1797
  159POPC   C1B 1905  15.192   4.626  18.782 -0.2107  0.1693  0.0370
  159POPC   C2B 1906  15.123   4.569  18.281 -0.2099 -0.3739  0.1375
  159POPC   C3B 1907  14.931   4.540  17.918  0.1591  0.0651  0.0551
  159POPC   C4B 1908  14.712   4.592  17.505 -0.1730 -0.0208 -0.0850
  160POPC   NC3 1909   2.953  29.975  19.050 -0.0773  0.0197 -0.2700
  160POPC   PO4 1910   3.194  29.702  19.223 -0.1935 -0.0473  0.1414
  160POPC   GL1 1911   3.110  29.690  18.784  0.1528  0.3034  0.2483
  160POPC   GL2 1912   3.018  29.405  18.826  0.1460 -0.0129 -0.0158
  160POPC   C1A 1913   3.187  29.416  18.377 -0.0707  0.0498 -0.0800
  160POPC   D2A 1914   2.826  29.325  18.044 -0.0086  0.0786 -0.2392
  160POPC   C3A 1915   2.689  28.890  18.117  0.3181  0.2937 -0.2161
  160POPC   C4A 1916   2.559  28.409  18.215  0.1108  0.1512  0.3174
  160POPC   C1B 1917   2.730  29.220  18.491 -0.0293 -0.0197  0.0069
  160POPC   C2B 1918   2.326  29.136  18.307 -0.2807 -0.1067  0.0002
  160POPC   C3B 1919   1.914  29.261  18.189  0.2273  0.2894  0.1382
  160POPC   C4B 1920   1.709  29.621  18.114  0.2282  0.0925 -0.0553
  161POPC   NC3 1921   9.395   9.162  19.952 -0.1122 -0.1212 -0.1782
  161POPC   PO4 1922   9.318   8.782  20.032 -0.3428  0.0657 -0.2528
  161POPC   GL1 1923   9.594   8.707  19.714 -0.1515 -0.2651  0.1451
  161POPC   GL2 1924   9.488   8.891  19.484 -0.0131 -0.1435 -0.5831
  161POPC   C1A 1925   9.949   8.443  19.498  0.0508  0.0716 -0.5255
  161POPC   D2A 1926  10.375   8.319  19.567 -0.4618 -0.1003 -0.2028
  161POPC   C3A 1927  10.680   8.363  19.238  0.2897 -0.2517 -0.2954
  161POPC   C4A 1928  11.048   8.212  19.022  0.0786 -0.0700  0.2661
  161POPC   C1B 1929   9.684   8.805  19.068 -0.0938  0.2787 -0.0891
  161POPC   C2B 1930   9.910   8.909  18.687 -0.0251 -0.1036  0.0844
  161POPC   C3B 1931  10.061   8.936  18.229  0.2300  0.0872 -0.1240
  161POPC   C4B 1932  10.009   9.293  17.947 -0.1714 -0.1780 -0.0674
  162POPC   NC3 1933  23.775   6.249  19.405  0.1908 -0.3825 -0.0030
  162POPC   PO4 1934  24.086   6.013  19.447  0.0450  0.0459  0.2586
  162POPC   GL1 1935  23.956   5.956  18.999 -0.0391  0.2312  0.0189
  162POPC   GL2 1936  23.889   6.214  18.914  0.2354 -0.4669 -0.2502
  162POPC   C1A 1937  24.123   5.608  18.757 -0.2547  0.0452  0.0849
  162POPC   D2A 1938  24.127   5.302  18.352 -0.2371  0.1336 -0.1335
  162POPC   C3A 1939  24.174   5.218  17.886 -0.2732 -0.3643 -0.0039
  162POPC   C4A 1940  24.105   5.267  17.436  0.4340 -0.1147  0.2370
  162POPC   C1B 1941  23.876   6.551  18.561 -0.1208  0.0686  0.0162
  162POPC   C2B 1942  23.792   6.744  18.149 -0.0358  0.2277 -0.1587
  162POPC   C3B 1943  23.960   6.907  17.690 -0.2231  0.3231  0.1173
  162POPC   C4B 1944  23.980   7.007  17.217 -0.1739 -0.0934 -0.1714
  163POPC   NC3 1945  16.122  13.681  19.451 -0.0797 -0.1674 -0.0542
  163POPC   PO4 1946  16.482  13.568  19.447  0.1594  0.0790  0.2320
  163POPC   GL1 1947  16.398  13.746  19.148 -0.0268  0.2982 -0.1408
  163POPC   GL2 1948  16.266  13.535  18.933  0.2927 -0.0395  0.0631
  163POPC   C1A 1949  16.627  14.037  18.834  0.2717  0.2203 -0.0952
  163POPC   D2A 1950  16.620  14.406  18.524  0.0779  0.0860 -0.0428
  163POPC   C3A 1951  16.507  14.441  18.053 -0.0374 -0.1516  0.1239
  163POPC   C4A 1952  16.281  14.538  17.637  0.2781  0.1222 -0.1306
  163POPC   C1B 1953  16.142  13.612  18.522 -0.2833  0.2001  0.1250
  163POPC   C2B 1954  16.350  13.565  18.062  0.1651 -0.0581 -0.1431
  163POPC   C3B 1955  16.680  13.394  17.777 -0.1634  0.0938 -0.2074
  163POPC   C4B 1956  17.001  13.124  17.881 -0.2216 -0.0344 -0.3500
  164POPC   NC3 1957   6.836   2.816  19.871 -0.1666 -0.0133 -0.1113
  164POPC   PO4 1958   6.802   2.980  19.540 -0.3247 -0.0558 -0.1550
  164POPC   GL1 1959   6.770   3.024  19.111  0.1213 -0.2165  0.0815
  164POPC   GL2 1960   6.525   2.877  19.011  0.1072 -0.0304 -0.1542
  164POPC   C1A 1961   6.793   3.319  18.801  0.3419 -0.1533 -0.1825
  164POPC   D2A 1962   6.770   3.567  18.350 -0.0967  0.0564 -0.0011
  164POPC   C3A 1963   6.485   3.576  17.986 -0.0642  0.1272 -0.2004
  164POPC   C4A 1964   6.220   3.736  17.676 -0.1187 -0.2293  0.0312
  164POPC   C1B 1965   6.855   2.860  18.593  0.3095 -0.4168 -0.1878
  164POPC   C2B 1966   6.944   3.132  18.197  0.3488 -0.0899 -0.1597
  164POPC   C3B 1967   6.883   3.248  17.817 -0.3177 -0.1996 -0.0610
  164POPC   C4B 1968   6.797   3.265  17.335  0.1631  0.3009  0.1336
  165POPC   NC3 1969   3.712  21.285  19.625 -0.1981  0.3717  0.0039
  165POPC   PO4 1970   3.473  21.573  19.420  0.0666  0.1131 -0.3723
  165POPC   GL1 1971   3.425  21.822  19.126 -0.2863  0.0655  0.1128
  165POPC   GL2 1972   3.720  21.887  19.102  0.0624  0.1275 -0.1489
  165POPC   C1A 1973   3.476  21.960  18.655 -0.1648 -0.3639  0.0742
  165POPC   D2A 1974   3.659  22.320  18.379 -0.2063  0.3871 -0.0825
  165POPC   C3A 1975   3.462  22.313  17.970 -0.1057  0.0543  0.2302
  165POPC   C4A 1976   3.153  22.285  17.634  0.0477  0.0709  0.0589
  165POPC   C1B 1977   4.005  21.831  18.785 -0.0043 -0.2105  0.1697
  165POPC   C2B 1978   4.443  21.831  18.547  0.3485 -0.1583 -0.3922
  165POPC   C3B 1979   4.638  21.864  18.109  0.0453 -0.4180  0.2339
  165POPC   C4B 1980   4.758  22.215  17.865 -0.4864  0.1645 -0.1354
  166POPC   NC3 1981  11.604  22.297  19.040  0.1781  0.0176 -0.1189
  166POPC   PO4 1982  11.766  22.598  19.172  0.1851 -0.1793  0.2051
  166POPC   GL1 1983  11.614  22.708  18.723 -0.1474  0.1966 -0.0758
  166POPC   GL2 1984  11.574  22.998  18.757 -0.0863  0.0350  0.1178
  166POPC   C1A 1985  11.396  22.593  18.361 -0.1991 -0.0453 -0.0053
  166POPC   D2A 1986  11.020  22.383  18.179 -0.3574  0.3664 -0.2708
  166POPC   C3A 1987  11.210  22.086  17.904  0.3243 -0.1512 -0.1279
  166POPC   C4A 1988  11.411  21.838  17.670 -0.2033 -0.2486  0.2112
  166POPC   C1B 1989  11.694  23.041  18.346 -0.1693 -0.1597  0.2615
  166POPC   C2B 1990  12.052  23.117  18.112 -0.1488  0.1488  0.4041
  166POPC   C3B 1991  12.398  22.903  17.923  0.1448 -0.0413  0.1378
  166POPC   C4B 1992  12.589  23.000  17.513 -0.0942  0.2253  0.0255
  167POPC   NC3 1993  15.071   6.841  19.996 -0.0053 -0.0320 -0.3012
  167POPC   PO4 1994  15.115   7.192  19.775  0.4037 -0.4030 -0.2396
  167POPC   GL1 1995  15.011   7.060  19.464  0.2679 -0.0611 -0.2519
  167POPC   GL2 1996  14.861   7.203  19.305 -0.1637  0.2539  0.1678
  167POPC   C1A 1997  15.003   6.765  19.074  0.0328  0.1442  0.1538
  167POPC   D2A 1998  15.042   6.351  18.842 -0.0947  0.2941  0.1355
  167POPC   C3A 1999  15.203   6.314  18.418  0.1518  0.2205 -0.2024
  167POPC   C4A 2000  15.322   6.419  17.996 -0.1263  0.1658 -0.1585
  167POPC   C1B 2001  15.020   7.237  18.858  0.1622 -0.2489 -0.2574
  167POPC   C2B 2002  15.447   7.146  18.624  0.0241 -0.1482 -0.0610
  167POPC   C3B 2003  15.756   7.191  18.267 -0.0311  0.0371 -0.3041
  167POPC   C4B 2004  16.001   7.295  17.887 -0.0400 -0.1265  0.1821
  168POPC   NC3 2005  23.696   7.372  19.657 -0.2895  0.2829 -0.1453
  168POPC   PO4 2006  23.534   7.119  19.362  0.0455  0.1457  0.4012
  168POPC   GL1 2007  23.565   7.085  19.004  0.0189 -0.1812 -0.0802
  168POPC   GL2 2008  23.829   7.060  18.874 -0.0458 -0.0863  0.1335
  168POPC   C1A 2009  23.475   6.818  18.636  0.0326 -0.1637 -0.0161
  168POPC   D2A 2010  23.291   6.696  18.192  0.1956 -0.0372  0.0153
  168POPC   C3A 2011  23.449   6.706  17.716  0.2726 -0.0418  0.1846
  168POPC   C4A 2012  23.625   6.587  17.349  0.0480 -0.1692 -0.0624
  168POPC   C1B 2013  23.680   7.199  18.426 -0.0280  0.2084  0.3721
  168POPC   C2B 2014  23.699   7.292  17.985  0.3479 -0.0236  0.1911
  168POPC   C3B 2015  23.565   7.155  17.566 -0.1016 -0.0162 -0.1345
  168POPC   C4B 2016  23.422   7.152  17.109  0.0722  0.4257 -0.0747
  169POPC   NC3 2017   2.028  29.656  18.838  0.0972 -0.0815 -0.1614
  169POPC   PO4 2018   1.830  29.293  18.860  0.0311 -0.0026 -0.0088
  169POPC   GL1 2019   1.484  29.491  18.676  0.6020 -0.4439 -0.2807
  169POPC   GL2 2020   1.556  29.796  18.737  0.3321 -0.0737 -0.0975
  169POPC   C1A 2021   1.163  29.536  18.341 -0.1917  0.0219  0.0469
  169POPC   D2A 2022   0.831  29.482  18.069 -0.1965 -0.2466  0.3404
  169POPC   C3A 2023   0.955  29.255  17.671  0.0088 -0.1023  0.0040
  169POPC   C4A 2024   1.130  28.861  17.697  0.0482  0.0937  0.2455
  169POPC   C1B 2025   1.439  29.934  18.344  0.1742  0.0248  0.0004
  169POPC   C2B 2026   1.308  29.772  17.901  0.0997 -0.0791 -0.2818
  169POPC   C3B 2027   1.221  29.651  17.466 -0.0818 -0.2234 -0.1644
  169POPC   C4B 2028   1.181  29.929  17.062  0.0443  0.3559 -0.1172
  170POPC   NC3 2029   3.171  19.211  19.300 -0.1560 -0.1365  0.1606
  170POPC   PO4 2030   2.849  19.379  19.367  0.0449  0.2074 -0.2788
  170POPC   GL1 2031   2.934  19.353  18.937 -0.1498 -0.0099  0.0309
  170POPC   GL2 2032   2.682  19.227  18.863 -0.0392 -0.0041  0.3871
  170POPC   C1A 2033   3.219  19.403  18.562 -0.1339 -0.1855 -0.1554
  170POPC   D2A 2034   3.460  19.818  18.484 -0.1883 -0.0901  0.2265
  170POPC   C3A 2035   3.770  20.081  18.327  0.1848 -0.4646  0.0935
  170POPC   C4A 2036   4.063  20.476  18.245 -0.2197 -0.0794  0.5463
  170POPC   C1B 2037   2.827  19.182  18.446 -0.0013 -0.0261  0.0061
  170POPC   C2B 2038   3.113  19.262  18.118  0.0539 -0.3164  0.1383
  170POPC   C3B 2039   3.117  19.459  17.668 -0.2675 -0.0748  0.0548
  170POPC   C4B 2040   3.194  19.603  17.178  0.3039  0.1208  0.0844
  171POPC   NC3 2041  28.154  15.589  19.467 -0.0818 -0.0839 -0.1699
  171POPC   PO4 2042  27.865  15.674  19.215 -0.0474 -0.1626  0.4683
  171POPC   GL1 2043  27.832  15.878  18.818  0.1245 -0.1312 -0.0402
  171POPC   GL2 2044  27.978  15.650  18.685  0.1824  0.2876 -0.3534
  171POPC   C1A 2045  27.993  16.017  18.388 -0.1501 -0.1108  0.0107
  171POPC   D2A 2046  28.036  16.127  17.952 -0.2625 -0.2205  0.1719
  171POPC   C3A 2047  27.980  16.010  17.582 -0.0993  0.1185 -0.3153
  171POPC   C4A 2048  27.687  15.785  17.308 -0.0071  0.2693 -0.0931
  171POPC   C1B 2049  28.060  15.559  18.235 -0.2561  0.0612  0.3429
  171POPC   C2B 2050  27.984  15.562  17.801 -0.1033  0.2229 -0.0030
  171POPC   C3B 2051  28.193  15.615  17.374 -0.1913 -0.1334 -0.1293
  171POPC   C4B 2052  28.079  15.505  17.012 -0.0300  0.1401 -0.1446
  172POPC   NC3 2053  28.438  24.909  19.167  0.2131 -0.1287 -0.2735
  172POPC   PO4 2054  28.294  24.525  19.248 -0.2138 -0.0882 -0.3012
  172POPC   GL1 2055  28.087  24.402  18.920  0.1561  0.0694  0.2832
  172POPC   GL2 2056  28.180  24.702  18.745  0.2782 -0.3122  0.1142
  172POPC   C1A 2057  28.003  24.300  18.474  0.1576  0.1335 -0.0845
  172POPC   D2A 2058  27.823  24.269  18.061 -0.1938 -0.1750 -0.1894
  172POPC   C3A 2059  27.519  23.995  17.860 -0.1859 -0.2422 -0.0635
  172POPC   C4A 2060  27.433  23.700  17.558 -0.0697  0.0009  0.0341
  172POPC   C1B 2061  28.261  24.694  18.303  0.1087 -0.1273 -0.1176
  172POPC   C2B 2062  28.366  24.405  18.010  0.3889  0.2912  0.0908
  172POPC   C3B 2063  28.264  24.234  17.558  0.3530  0.2160 -0.1089
  172POPC   C4B 2064  27.892  24.194  17.246 -0.1638  0.3269  0.1262
  173POPC   NC3 2065   0.770  21.352  19.497 -0.2058 -0.0511  0.0735
  173POPC   PO4 2066   0.787  21.736  19.601 -0.1020 -0.4820 -0.1949
  173POPC   GL1 2067   0.772  21.682  19.170  0.1958  0.1126 -0.0369
  173POPC   GL2 2068   0.598  21.715  18.914  0.0900  0.1051  0.1355
  173POPC   C1A 2069   1.033  21.821  18.782  0.2287  0.1162 -0.0727
  173POPC   D2A 2070   1.056  22.237  18.525 -0.1772  0.1731 -0.0340
  173POPC   C3A 2071   1.269  22.212  18.075 -0.1517  0.3681 -0.2029
  173POPC   C4A 2072   1.593  21.951  17.945  0.0744 -0.0945 -0.0702
  173POPC   C1B 2073   0.622  21.842  18.440 -0.1219  0.2732 -0.1524
  173POPC   C2B 2074   0.944  21.840  18.154 -0.0321  0.5163  0.0352
  173POPC   C3B 2075   1.103  21.726  17.736 -0.1511 -0.0532  0.2935
  173POPC   C4B 2076   1.212  21.662  17.302  0.2313 -0.2022 -0.0238
  174POPC   NC3 2077  25.098   6.297  19.214 -0.1223 -0.1368  0.1116
  174POPC   PO4 2078  24.941   6.699  19.179  0.0496  0.1796  0.0997
  174POPC   GL1 2079  24.898   6.703  18.877 -0.1732 -0.0306  0.0305
  174POPC   GL2 2080  24.645   6.436  18.867  0.4034 -0.1163 -0.0520
  174POPC   C1A 2081  25.174   6.516  18.521  0.0819 -0.1827  0.0092
  174POPC   D2A 2082  25.192   6.293  18.105  0.0063  0.1870 -0.4157
  174POPC   C3A 2083  24.977   6.289  17.694 -0.1472 -0.0875 -0.0664
  174POPC   C4A 2084  24.670   6.242  17.427  0.1452 -0.1428  0.3049
  174POPC   C1B 2085  24.701   6.372  18.369  0.1451 -0.2840 -0.0757
  174POPC   C2B 2086  24.649   6.474  17.987  0.1691 -0.1934  0.0718
  174POPC   C3B 2087  24.280   6.514  17.795  0.3028  0.3814 -0.1309
  174POPC   C4B 2088  23.822   6.375  17.751  0.4339 -0.0003  0.0118
  175POPC   NC3 2089   2.707  29.404  19.239  0.1806  0.0319 -0.0513
  175POPC   PO4 2090   2.519  29.669  19.054  0.1323 -0.0914 -0.1754
  175POPC   GL1 2091   2.648  29.662  18.670 -0.4861  0.3138 -0.0485
  175POPC   GL2 2092   2.443  29.785  18.552 -0.0885  0.0075 -0.0128
  175POPC   C1A 2093   2.914  29.804  18.256 -0.3553 -0.0120  0.1887
  175POPC   D2A 2094   3.127  29.725  17.819  0.1768 -0.2202  0.1812
  175POPC   C3A 2095   3.173  29.404  17.538 -0.3866  0.0986 -0.0208
  175POPC   C4A 2096   3.151  29.547  17.099  0.0972  0.1665 -0.0684
  175POPC   C1B 2097   2.303  29.583  18.156  0.1718 -0.0430 -0.0053
  175POPC   C2B 2098   2.404  29.266  17.815  0.2970 -0.2251  0.1573
  175POPC   C3B 2099   2.692  29.060  17.556 -0.1336  0.2142 -0.1617
  175POPC   C4B 2100   2.680  28.632  17.318 -0.0614 -0.2021 -0.0811
  176POPC   NC3 2101  30.930  23.547  18.879  0.0221  0.1450  0.2354
  176POPC   PO4 2102  31.014  23.145  18.798 -0.1268 -0.1754  0.3472
  176POPC   GL1 2103  31.015  23.200  18.410 -0.0427  0.0577  0.1369
  176POPC   GL2 2104  31.141  23.434  18.413  0.2498  0.0627  0.0451
  176POPC   C1A 2105  31.239  22.928  18.093  0.0832 -0.1703 -0.3005
  176POPC   D2A 2106  31.292  22.537  17.808  0.1703 -0.3025 -0.1548
  176POPC   C3A 2107  31.604  22.644  17.474 -0.0365 -0.0365 -0.0951
  176POPC   C4A 2108  31.971  22.658  17.212 -0.0026  0.2371  0.1822
  176POPC   C1B 2109  30.988  23.406  17.979 -0.2019  0.2516 -0.1477
  176POPC   C2B 2110  30.805  23.739  17.739  0.1016  0.5384  0.3389
  176POPC   C3B 2111  31.092  24.005  17.473 -0.1249  0.0021  0.0308
  176POPC   C4B 2112  31.277  24.266  17.082 -0.0814  0.1737 -0.0418
  177POPC   NC3 2113  18.855   9.568  18.982 -0.1080  0.0320  0.0438
  177POPC   PO4 2114  19.118   9.255  18.932 -0.3419  0.0137  0.2456
  177POPC   GL1 2115  19.345   9.265  18.523 -0.1282 -0.1024  0.2595
  177POPC   GL2 2116  19.454   9.021  18.550  0.1403 -0.1792  0.2431
  177POPC   C1A 2117  19.204   9.127  18.126 -0.0473  0.0691  0.1990
  177POPC   D2A 2118  19.164   9.310  17.710 -0.0487 -0.1354  0.0299
  177POPC   C3A 2119  19.527   9.370  17.372 -0.0734  0.0129 -0.2883
  177POPC   C4A 2120  19.851   9.535  17.113 -0.1059  0.1839  0.0339
  177POPC   C1B 2121  19.641   8.874  18.171  0.0525 -0.2542  0.2723
  177POPC   C2B 2122  19.734   9.061  17.784  0.1840 -0.1405  0.0394
  177POPC   C3B 2123  20.004   9.240  17.507 -0.1672 -0.1961 -0.1185
  177POPC   C4B 2124  20.418   9.374  17.651  0.1484 -0.0306 -0.0210
  178POPC   NC3 2125   2.418  22.057  19.437 -0.2024  0.0636  0.0383
  178POPC   PO4 2126   2.645  21.887  19.189  0.2799  0.0061  0.1867
  178POPC   GL1 2127   2.813  21.819  18.699 -0.0419 -0.0759 -0.3492
  178POPC   GL2 2128   3.062  21.721  18.693  0.2196  0.3634 -0.2433
  178POPC   C1A 2129   2.664  22.120  18.384 -0.0484  0.1172 -0.3053
  178POPC   D2A 2130   2.648  22.403  17.980  0.0319  0.0284 -0.2354
  178POPC   C3A 2131   2.338  22.538  17.722  0.0425 -0.0157 -0.2081
  178POPC   C4A 2132   2.157  22.288  17.376  0.2512 -0.0630  0.0499
  178POPC   C1B 2133   3.185  21.658  18.278  0.1499 -0.3174 -0.1203
  178POPC   C2B 2134   3.346  21.776  17.880  0.1411  0.2687 -0.0550
  178POPC   C3B 2135   3.389  21.872  17.432  0.1284  0.3455  0.3124
  178POPC   C4B 2136   3.508  22.176  17.035  0.1078  0.0008  0.3389
  179POPC   NC3 2137  28.130  11.161  19.544  0.2455  0.1561  0.0869
  179POPC   PO4 2138  27.757  10.996  19.552  0.0652 -0.0829  0.1078
  179POPC   GL1 2139  27.714  10.950  19.143 -0.2138  0.0997  0.3465
  179POPC   GL2 2140  27.494  11.155  19.062  0.0474  0.0109  0.0684
  179POPC   C1A 2141  27.823  10.908  18.680 -0.1049  0.0523 -0.0055
  179POPC   D2A 2142  27.826  11.086  18.240 -0.1379 -0.1541  0.2317
  179POPC   C3A 2143  28.116  11.145  17.853 -0.1905  0.4187 -0.2321
  179POPC   C4A 2144  28.222  11.141  17.393  0.0349  0.1761 -0.0957
  179POPC   C1B 2145  27.584  11.378  18.634 -0.1243 -0.3503  0.2268
  179POPC   C2B 2146  27.701  11.639  18.346 -0.0291 -0.1518  0.0148
  179POPC   C3B 2147  27.686  11.531  17.882 -0.1852 -0.1086  0.2537
  179POPC   C4B 2148  27.857  11.485  17.468 -0.0876  0.0782 -0.1143
  180POPC   NC3 2149   2.701  10.532  19.853 -0.0791  0.1301 -0.5108
  180POPC   PO4 2150   2.627  10.335  19.500 -0.0083 -0.1394 -0.0236
  180POPC   GL1 2151   2.469  10.427  19.140  0.2346  0.0319 -0.1528
  180POPC   GL2 2152   2.338  10.237  19.044 -0.1077 -0.0057  0.0781
  180POPC   C1A 2153   2.368  10.885  18.952 -0.1673 -0.1100 -0.2653
  180POPC   D2A 2154   1.976  10.989  18.759  0.0451  0.0291  0.1420
  180POPC   C3A 2155   1.927  11.191  18.328 -0.0626 -0.0155 -0.2033
  180POPC   C4A 2156   2.078  11.058  17.847 -0.0595 -0.0682 -0.2381
  180POPC   C1B 2157   2.249  10.444  18.701  0.0526  0.2336 -0.1978
  180POPC   C2B 2158   2.374  10.330  18.284  0.2161 -0.1617  0.0037
  180POPC   C3B 2159   2.490  10.275  17.822 -0.0771  0.1683 -0.2252
  180POPC   C4B 2160   2.783  10.428  17.536  0.0617 -0.4741 -0.1811
  181POPC   NC3 2161  24.772   3.078  19.034 -0.0440  0.1582  0.3129
  181POPC   PO4 2162  24.810   2.690  19.121 -0.1075 -0.3380 -0.0629
  181POPC   GL1 2163  24.875   2.678  18.798 -0.0247  0.2853  0.3799
  181POPC   GL2 2164  24.709   2.818  18.608 -0.2608 -0.0704 -0.0807
  181POPC   C1A 2165  24.781   2.297  18.493  0.1568 -0.0275  0.1224
  181POPC   D2A 2166  24.784   2.163  18.076 -0.2185 -0.0273  0.0004
  181POPC   C3A 2167  24.823   2.181  17.579  0.1811 -0.3366 -0.1478
  181POPC   C4A 2168  25.051   2.208  17.189 -0.2718 -0.1316 -0.3539
  181POPC   C1B 2169  24.482   2.631  18.288  0.1894  0.0493  0.0497
  181POPC   C2B 2170  24.474   2.494  17.872 -0.0477 -0.1872 -0.1779
  181POPC   C3B 2171  24.136   2.400  17.595  0.0782  0.1169 -0.3822
  181POPC   C4B 2172  23.875   2.470  17.213  0.1493 -0.0300 -0.2858
  182POPC   NC3 2173  12.693  18.197  18.449 -0.2590 -0.1903  0.1419
  182POPC   PO4 2174  12.638  17.945  18.755  0.2161  0.0275  0.1043
  182POPC   GL1 2175  12.823  17.753  18.379  0.5438 -0.0044 -0.1873
  182POPC   GL2 2176  13.065  17.835  18.296  0.2000 -0.1196  0.0523
  182POPC   C1A 2177  12.626  17.520  18.059  0.2426 -0.0736  0.1904
  182POPC   D2A 2178  12.487  17.249  17.717 -0.2544 -0.1493 -0.0947
  182POPC   C3A 2179  12.723  16.826  17.651  0.1217  0.0666  0.2773
  182POPC   C4A 2180  12.729  16.360  17.570  0.0367  0.0147  0.0681
  182POPC   C1B 2181  13.136  17.613  17.842  0.0883 -0.0368 -0.0780
  182POPC   C2B 2182  12.935  17.525  17.460 -0.0399  0.1284 -0.0975
  182POPC   C3B 2183  12.809  17.374  16.987 -0.0911  0.1568  0.1276
  182POPC   C4B 2184  12.648  17.022  16.666  0.1057  0.4424 -0.1569
  183POPC   NC3 2185   3.643  15.257  19.044 -0.0302  0.1130  0.1376
  183POPC   PO4 2186   3.370  15.258  19.343 -0.0421 -0.3120  0.1661
  183POPC   GL1 2187   3.033  15.224  18.985 -0.2173 -0.2691  0.1523
  183POPC   GL2 2188   3.108  15.416  18.787 -0.0604 -0.0191  0.4637
  183POPC   C1A 2189   2.801  15.072  18.596  0.1633 -0.1522  0.1375
  183POPC   D2A 2190   2.555  14.770  18.297  0.2373  0.0172  0.1032
  183POPC   C3A 2191   2.740  14.514  17.968 -0.1458 -0.1869  0.1435
  183POPC   C4A 2192   2.637  14.325  17.540 -0.0409  0.0918  0.0530
  183POPC   C1B 2193   2.754  15.570  18.459  0.1971  0.2226  0.1250
  183POPC   C2B 2194   2.584  15.532  18.032 -0.0438  0.0607  0.2643
  183POPC   C3B 2195   2.542  15.457  17.590  0.2688  0.0875 -0.0213
  183POPC   C4B 2196   2.315  15.232  17.262  0.4097  0.1468  0.0982
  184POPC   NC3 2197  23.297  25.769  19.025 -0.0437 -0.2333  0.0269
  184POPC   PO4 2198  23.617  25.958  19.042  0.1366  0.0516 -0.1430
  184POPC   GL1 2199  23.541  25.915  18.698 -0.1118  0.0845  0.1320
  184POPC   GL2 2200  23.824  26.055  18.604 -0.1715  0.0170  0.0492
  184POPC   C1A 2201  23.177  25.898  18.383  0.0575  0.3858  0.0398
  184POPC   D2A 2202  22.858  25.700  18.137  0.0371  0.1163  0.1917
  184POPC   C3A 2203  22.606  25.669  17.716  0.0831  0.1744  0.1499
  184POPC   C4A 2204  22.285  25.795  17.410  0.1125 -0.0729  0.0539
  184POPC   C1B 2205  23.667  25.924  18.252  0.3059  0.1587  0.0391
  184POPC   C2B 2206  23.453  25.932  17.856 -0.0078 -0.1200 -0.1822
  184POPC   C3B 2207  23.454  25.842  17.383  0.0840  0.0572  0.2156
  184POPC   C4B 2208  23.790  25.964  17.099 -0.2992  0.0468  0.3642
  185POPC   NC3 2209  23.326   3.516  19.403 -0.2146  0.3516  0.0817
  185POPC   PO4 2210  23.533   3.811  19.363  0.2282  0.1041  0.1292
  185POPC   GL1 2211  23.515   3.925  19.045  0.1830 -0.0251 -0.1376
  185POPC   GL2 2212  23.348   4.110  18.808 -0.0109 -0.1773 -0.1214
  185POPC   C1A 2213  23.349   3.587  18.770 -0.0522  0.1671 -0.2354
  185POPC   D2A 2214  23.180   3.679  18.353  0.1549  0.3161  0.3775
  185POPC   C3A 2215  23.409   3.640  17.900  0.0495 -0.0040 -0.0516
  185POPC   C4A 2216  23.387   3.773  17.460 -0.0970  0.1140  0.0033
  185POPC   C1B 2217  23.382   4.130  18.345  0.0461  0.2318 -0.2261
  185POPC   C2B 2218  23.304   4.089  17.865 -0.1729  0.0597  0.1520
  185POPC   C3B 2219  23.107   4.222  17.502 -0.1039  0.2090 -0.1980
  185POPC   C4B 2220  22.731   4.260  17.240  0.3548 -0.2142  0.3884
  186POPC   NC3 2221  29.049  16.637  19.387 -0.0026  0.0580 -0.2974
  186POPC   PO4 2222  28.692  16.455  19.412 -0.2447  0.1533 -0.0747
  186POPC   GL1 2223  28.816  16.602  19.005 -0.1764  0.0531  0.5071
  186POPC   GL2 2224  28.523  16.638  18.964 -0.1629  0.0367  0.2343
  186POPC   C1A 2225  28.837  16.516  18.542  0.2326  0.3541  0.3428
  186POPC   D2A 2226  29.102  16.510  18.193  0.2443  0.2297  0.2224
  186POPC   C3A 2227  29.003  16.427  17.792  0.1645 -0.1559 -0.1026
  186POPC   C4A 2228  29.302  16.391  17.470  0.1093 -0.1453 -0.1322
  186POPC   C1B 2229  28.593  16.972  18.672  0.2079  0.0379 -0.0961
  186POPC   C2B 2230  28.438  16.984  18.274 -0.2368  0.0415  0.5385
  186POPC   C3B 2231  28.209  16.910  17.894  0.0498  0.0685 -0.1399
  186POPC   C4B 2232  27.904  16.964  17.551 -0.0050  0.1640 -0.0123
  187POPC   NC3 2233   3.634  22.805  19.786 -0.2658  0.1696 -0.0741
  187POPC   PO4 2234   3.744  22.478  19.638 -0.3710 -0.1624 -0.0919
  187POPC   GL1 2235   3.911  22.514  19.307 -0.1466  0.1236  0.2203
  187POPC   GL2 2236   3.908  22.702  19.041 -0.2503 -0.1486 -0.1245
  187POPC   C1A 2237   4.087  22.262  18.940 -0.2382  0.1536 -0.0599
  187POPC   D2A 2238   4.103  22.225  18.482 -0.2001  0.1516  0.1028
  187POPC   C3A 2239   4.115  22.587  18.261  0.0496 -0.1828 -0.2004
  187POPC   C4A 2240   3.913  22.634  17.843  0.1703  0.1057 -0.1005
  187POPC   C1B 2241   4.260  22.766  18.665 -0.0194 -0.0211  0.4087
  187POPC   C2B 2242   4.547  22.807  18.239  0.3306  0.1733 -0.1883
  187POPC   C3B 2243   4.912  22.713  17.924 -0.1774  0.0225  0.0568
  187POPC   C4B 2244   5.161  22.765  17.519 -0.0078 -0.0516  0.2542
  188POPC   NC3 2245  16.392   7.849  19.245 -0.1128  0.0808 -0.3110
  188POPC   PO4 2246  16.703   7.720  19.483  0.0193  0.2327 -0.0618
  188POPC   GL1 2247  16.844   7.632  19.118 -0.0769 -0.3555 -0.1084
  188POPC   GL2 2248  16.767   7.776  18.840 -0.1338 -0.0410  0.1794
  188POPC   C1A 2249  17.268   7.767  18.896 -0.0795  0.0852  0.0652
  188POPC   D2A 2250  17.625   8.036  18.639 -0.1025  0.2486 -0.0810
  188POPC   C3A 2251  17.616   7.906  18.232  0.1717 -0.1415  0.1880
  188POPC   C4A 2252  17.934   7.665  17.992 -0.2970 -0.2715  0.2897
  188POPC   C1B 2253  16.612   7.955  18.414 -0.1570 -0.3294 -0.1289
  188POPC   C2B 2254  16.590   8.146  17.998  0.0801  0.0567 -0.0856
  188POPC   C3B 2255  16.788   8.041  17.565 -0.3827 -0.0107 -0.0929
  188POPC   C4B 2256  17.121   7.952  17.312  0.0487 -0.0001  0.1419
  189POPC   NC3 2257  27.794  22.517  19.082 -0.0864 -0.0086 -0.0354
  189POPC   PO4 2258  28.105  22.613  19.291  0.0927 -0.0237  0.0675
  189POPC   GL1 2259  28.352  22.673  18.879  0.3058 -0.0497  0.2803
  189POPC   GL2 2260  28.142  22.514  18.697  0.1775  0.2827  0.0690
  189POPC   C1A 2261  28.341  23.020  18.570 -0.2936 -0.0937  0.1635
  189POPC   D2A 2262  28.788  23.261  18.527  0.0323 -0.4942  0.1819
  189POPC   C3A 2263  29.085  23.154  18.212 -0.2453 -0.0005  0.1357
  189POPC   C4A 2264  29.350  23.356  17.830 -0.1535 -0.0360 -0.0514
  189POPC   C1B 2265  28.317  22.448  18.243 -0.2912 -0.2285 -0.0447
  189POPC   C2B 2266  28.336  22.499  17.757  0.0908  0.1709 -0.0773
  189POPC   C3B 2267  28.564  22.757  17.455 -0.2217 -0.1828  0.2962
  189POPC   C4B 2268  28.894  22.653  17.134 -0.1555  0.2956  0.0851
  190POPC   NC3 2269  25.762  25.864  19.212  0.0221 -0.1862 -0.1806
  190POPC   PO4 2270  26.011  26.129  19.262 -0.3736  0.2104  0.1077
  190POPC   GL1 2271  26.139  26.159  18.873 -0.0684  0.0682 -0.2747
  190POPC   GL2 2272  25.861  26.162  18.795  0.1834  0.0715 -0.0212
  190POPC   C1A 2273  26.595  26.276  18.831  0.1105  0.2177 -0.1982
  190POPC   D2A 2274  26.914  26.271  18.463  0.2280  0.1815 -0.0421
  190POPC   C3A 2275  26.776  26.131  18.024  0.1217 -0.1934 -0.1557
  190POPC   C4A 2276  26.588  26.199  17.631 -0.1410  0.3388  0.1619
  190POPC   C1B 2277  25.679  26.334  18.408  0.2979 -0.1422 -0.1269
  190POPC   C2B 2278  25.664  26.414  17.933 -0.0070  0.1042 -0.0392
  190POPC   C3B 2279  25.838  26.789  17.733 -0.0856  0.0253 -0.1029
  190POPC   C4B 2280  25.596  26.935  17.366  0.1156  0.0290 -0.0177
  191POPC   NC3 2281  18.452  18.541  19.416  0.0397  0.1654  0.1993
  191POPC   PO4 2282  18.335  18.181  19.316 -0.1235  0.0024  0.0815
  191POPC   GL1 2283  18.427  18.453  18.945 -0.0299  0.2475  0.1996
  191POPC   GL2 2284  18.578  18.721  18.951 -0.1950  0.0631  0.0279
  191POPC   C1A 2285  18.269  18.419  18.523 -0.1839 -0.1371 -0.0250
  191POPC   D2A 2286  18.099  18.395  18.093  0.2790  0.0076  0.0767
  191POPC   C3A 2287  18.250  18.101  17.733 -0.1100  0.1115 -0.3133
  191POPC   C4A 2288  18.500  17.821  17.492 -0.0576 -0.0378 -0.1351
  191POPC   C1B 2289  18.682  18.698  18.513 -0.0122  0.2536 -0.1665
  191POPC   C2B 2290  18.738  18.977  18.100  0.1532  0.0754 -0.1224
  191POPC   C3B 2291  18.749  19.196  17.656  0.0245 -0.0957  0.0695
  191POPC   C4B 2292  18.796  19.187  17.184  0.1157 -0.0907  0.0180
  192POPC   NC3 2293   4.925  12.198  19.802  0.0761 -0.1187  0.1442
  192POPC   PO4 2294   5.193  12.183  19.514 -0.0946  0.0644 -0.0680
  192POPC   GL1 2295   5.122  12.395  19.222 -0.3059  0.0745 -0.1808
  192POPC   GL2 2296   4.906  12.439  19.042  0.1788  0.1397 -0.1987
  192POPC   C1A 2297   5.274  12.493  18.755 -0.0670 -0.0169 -0.2737
  192POPC   D2A 2298   5.240  12.772  18.396  0.0542 -0.0593  0.0020
  192POPC   C3A 2299   5.308  12.773  17.960 -0.2852  0.1309 -0.2338
  192POPC   C4A 2300   5.233  13.020  17.590  0.3962 -0.2781  0.1578
  192POPC   C1B 2301   4.965  12.200  18.579  0.4755 -0.2206  0.1024
  192POPC   C2B 2302   5.001  12.147  18.149 -0.0057 -0.0193 -0.2034
  192POPC   C3B 2303   5.178  12.050  17.763 -0.1789  0.3687  0.0083
  192POPC   C4B 2304   5.285  12.044  17.294  0.0212 -0.0744 -0.0830
  193POPC   NC3 2305   3.445  16.645  19.318  0.1017  0.3425  0.0089
  193POPC   PO4 2306   3.676  16.813  19.091 -0.2103 -0.0735 -0.2278
  193POPC   GL1 2307   3.679  16.707  18.735 -0.0684  0.0940  0.3232
  193POPC   GL2 2308   3.884  16.875  18.572  0.2353 -0.0716  0.2064
  193POPC   C1A 2309   3.474  16.848  18.350 -0.0440 -0.1219 -0.0415
  193POPC   D2A 2310   3.420  16.950  17.925 -0.1923  0.2229  0.2230
  193POPC   C3A 2311   3.209  16.692  17.666  0.1122 -0.0454  0.1697
  193POPC   C4A 2312   3.125  16.677  17.189 -0.0042  0.0524  0.1786
  193POPC   C1B 2313   3.906  16.925  18.107  0.0214  0.0414  0.4533
  193POPC   C2B 2314   4.085  16.905  17.674  0.0843  0.0238  0.0734
  193POPC   C3B 2315   4.020  17.018  17.266  0.0811  0.0897  0.0588
  193POPC   C4B 2316   3.786  17.311  16.986  0.1102  0.1919  0.0024
  194POPC   NC3 2317   4.014   1.805  19.400  0.0876  0.1965  0.3239
  194POPC   PO4 2318   3.955   2.087  19.142  0.1633 -0.0272  0.3737
  194POPC   GL1 2319   4.144   2.147  18.822  0.2443 -0.1486 -0.0815
  194POPC   GL2 2320   4.414   2.237  18.958 -0.1524 -0.0852  0.0913
  194POPC   C1A 2321   3.984   1.902  18.508  0.0676  0.0073 -0.3709
  194POPC   D2A 2322   3.748   1.575  18.303 -0.1262 -0.0652 -0.0128
  194POPC   C3A 2323   3.729   1.539  17.832 -0.0283  0.0124 -0.2713
  194POPC   C4A 2324   3.431   1.796  17.527  0.0566 -0.0100  0.2157
  194POPC   C1B 2325   4.833   2.057  18.832  0.0900  0.1271  0.1291
  194POPC   C2B 2326   5.072   2.045  18.462  0.1278 -0.1570  0.3397
  194POPC   C3B 2327   5.316   2.113  18.078  0.2174 -0.0540 -0.1385
  194POPC   C4B 2328   5.537   2.235  17.685 -0.3233 -0.0188  0.0320
  195POPC   NC3 2329  31.337   3.140  19.418 -0.1104 -0.4112 -0.2312
  195POPC   PO4 2330  31.606   3.432  19.528  0.3664 -0.0124  0.1420
  195POPC   GL1 2331  31.729   3.486  19.135 -0.0259 -0.0975  0.0509
  195POPC   GL2 2332  31.849   3.747  18.984 -0.2279 -0.1875 -0.0791
  195POPC   C1A 2333  31.505   3.232  18.778  0.2464 -0.1138  0.1876
  195POPC   D2A 2334  31.637   3.177  18.325 -0.2117 -0.1103 -0.2937
  195POPC   C3A 2335  31.470   3.389  17.917  0.2615 -0.0577 -0.3243
  195POPC   C4A 2336  31.145   3.565  17.610  0.4896  0.0667  0.0550
  195POPC   C1B 2337  31.708   3.693  18.563  0.0023 -0.1338 -0.1516
  195POPC   C2B 2338  31.813   3.794  18.115  0.0980  0.3826  0.2383
  195POPC   C3B 2339  31.958   3.941  17.668  0.1613  0.2113 -0.1341
  195POPC   C4B 2340  31.711   4.238  17.378  0.0006  0.0480 -0.0549
  196POPC   NC3 2341   6.270   4.423  19.287 -0.0460 -0.0377 -0.0294
  196POPC   PO4 2342   5.996   4.128  19.341  0.1420 -0.0327  0.0882
  196POPC   GL1 2343   5.801   4.066  18.978  0.0449 -0.2761 -0.2698
  196POPC   GL2 2344   5.604   4.283  18.983 -0.3455  0.1110 -0.3535
  196POPC   C1A 2345   5.459   3.898  18.727 -0.0274  0.0916 -0.2782
  196POPC   D2A 2346   5.235   3.922  18.312 -0.1158 -0.4024 -0.0696
  196POPC   C3A 2347   5.250   3.879  17.864 -0.2434 -0.0006  0.1250
  196POPC   C4A 2348   5.289   3.916  17.438  0.0647  0.1570 -0.1609
  196POPC   C1B 2349   5.631   4.387  18.543  0.1110 -0.1432 -0.1110
  196POPC   C2B 2350   5.613   4.218  18.126  0.1462  0.0038  0.0301
  196POPC   C3B 2351   5.698   4.131  17.679  0.0682  0.2111  0.1145
  196POPC   C4B 2352   5.711   4.065  17.194  0.2727 -0.0157 -0.0379
  197POPC   NC3 2353  21.355  17.245  19.542 -0.1358  0.1008 -0.2124
  197POPC   PO4 2354  21.137  17.407  19.250 -0.0746  0.1478  0.2158
  197POPC   GL1 2355  21.287  17.690  19.344 -0.0273  0.0316  0.0381
  197POPC   GL2 2356  21.497  17.875  19.162  0.2405  0.1740  0.1077
  197POPC   C1A 2357  21.591  17.836  19.707  0.0403  0.1115  0.1170
  197POPC   D2A 2358  21.738  17.548  20.057  0.0214 -0.2593  0.0185
  197POPC   C3A 2359  22.098  17.735  20.298 -0.0912  0.4074  0.0529
  197POPC   C4A 2360  22.325  18.044  20.500 -0.1656 -0.0052 -0.4127
  197POPC   C1B 2361  21.904  17.988  18.997  0.0601  0.2743 -0.0319
  197POPC   C2B 2362  22.201  18.245  18.794  0.0066 -0.1252 -0.1514
  197POPC   C3B 2363  22.295  18.743  18.680  0.0431 -0.0474  0.0887
  197POPC   C4B 2364  22.396  19.096  18.467  0.0369  0.1540  0.1249
  198POPC   NC3 2365   4.086   7.740  19.118 -0.0709 -0.2676 -0.0390
  198POPC   PO4 2366   3.914   7.371  19.086 -0.0667  0.1804 -0.0770
  198POPC   GL1 2367   3.868   7.229  18.693 -0.3266 -0.2514  0.0063
  198POPC   GL2 2368   3.996   7.517  18.550 -0.1080 -0.3888  0.2559
  198POPC   C1A 2369   3.553   6.937  18.523  0.1013  0.2127 -0.0316
  198POPC   D2A 2370   3.474   6.572  18.290  0.1472 -0.0861  0.0572
  198POPC   C3A 2371   3.444   6.145  18.443  0.0610 -0.1889 -0.0641
  198POPC   C4A 2372   3.573   6.020  18.873 -0.2081 -0.1106  0.0302
  198POPC   C1B 2373   4.153   7.457  18.142 -0.2473  0.1199 -0.0422
  198POPC   C2B 2374   4.331   7.310  17.776 -0.1857  0.0917 -0.1082
  198POPC   C3B 2375   4.496   7.135  17.381  0.0854  0.3464 -0.0054
  198POPC   C4B 2376   4.607   7.025  16.955  0.0337 -0.1265  0.3733
  199POPC   NC3 2377  24.628  21.439  19.189 -0.2066 -0.0182 -0.1716
  199POPC   PO4 2378  24.587  21.763  19.009 -0.4031  0.0835  0.3086
  199POPC   GL1 2379  24.752  21.402  18.750  0.2713  0.3262  0.2050
  199POPC   GL2 2380  24.828  21.641  18.600 -0.3384  0.1811 -0.0579
  199POPC   C1A 2381  24.655  21.191  18.384 -0.2473 -0.1363  0.0230
  199POPC   D2A 2382  24.581  21.191  17.935  0.2337  0.2551 -0.1532
  199POPC   C3A 2383  24.543  20.814  17.633  0.1361 -0.2442 -0.4939
  199POPC   C4A 2384  24.263  20.531  17.356 -0.0125 -0.2397 -0.3196
  199POPC   C1B 2385  24.721  21.665  18.117 -0.1036  0.1566  0.0433
  199POPC   C2B 2386  24.896  21.502  17.750  0.1508  0.0924 -0.2854
  199POPC   C3B 2387  24.716  21.244  17.421 -0.1986  0.0090 -0.0900
  199POPC   C4B 2388  24.748  20.864  17.195 -0.1966 -0.3086  0.0003
  200POPC   NC3 2389  17.622   8.687  19.399  0.3402  0.1826 -0.1729
  200POPC   PO4 2390  17.301   8.481  19.443  0.2998 -0.0985  0.1914
  200POPC   GL1 2391  17.226   8.500  19.031  0.2614 -0.1534  0.1123
  200POPC   GL2 2392  17.467   8.336  18.961  0.0880 -0.3095  0.1311
  200POPC   C1A 2393  16.988   8.712  18.766 -0.1650 -0.1726  0.1439
  200POPC   D2A 2394  16.913   8.602  18.359 -0.1929 -0.0652  0.4216
  200POPC   C3A 2395  17.105   8.266  18.142  0.1828 -0.0642 -0.2520
  200POPC   C4A 2396  17.225   7.981  17.852 -0.1656 -0.2239 -0.1157
  200POPC   C1B 2397  17.452   8.459  18.513 -0.1332 -0.0944 -0.1012
  200POPC   C2B 2398  17.506   8.472  18.035 -0.0983  0.1873 -0.2070
  200POPC   C3B 2399  17.697   8.719  17.726 -0.3234  0.0630 -0.1010
  200POPC   C4B 2400  18.013   8.590  17.411  0.0575  0.1052 -0.1038
  201POPC   NC3 2401   0.203   2.589  19.406  0.0271  0.2421  0.0570
  201POPC   PO4 2402   0.129   2.978  19.420  0.2431  0.1222 -0.0177
  201POPC   GL1 2403   0.166   2.828  18.992  0.2563 -0.3232  0.1017
  201POPC   GL2 2404   0.479   2.816  18.928  0.0436  0.5113  0.2177
  201POPC   C1A 2405   0.244   2.894  18.518 -0.1054 -0.3792  0.2922
  201POPC   D2A 2406   0.187   2.826  18.073  0.2135  0.1352 -0.1794
  201POPC   C3A 2407  -0.153   2.966  17.752  0.0882 -0.1097  0.0604
  201POPC   C4A 2408  -0.570   3.051  17.649 -0.1668 -0.2557  0.3963
  201POPC   C1B 2409   0.699   2.679  18.554  0.0359  0.0704  0.0787
  201POPC   C2B 2410   0.595   2.582  18.092  0.4059  0.0941  0.0787
  201POPC   C3B 2411   0.627   2.618  17.630 -0.0804 -0.2246 -0.0413
  201POPC   C4B 2412   0.684   2.841  17.197 -0.0716  0.1479  0.0864
  202POPC   NC3 2413  23.233   5.070  19.178 -0.2926  0.0529 -0.0254
  202POPC   PO4 2414  22.899   5.005  19.238 -0.0249  0.0665  0.1072
  202POPC   GL1 2415  22.905   5.047  18.798  0.1457  0.1683 -0.1022
  202POPC   GL2 2416  22.682   5.042  18.620 -0.0879  0.1024  0.1929
  202POPC   C1A 2417  23.125   5.331  18.571  0.1877  0.0540 -0.1336
  202POPC   D2A 2418  23.251   5.407  18.137 -0.1278 -0.2703 -0.1039
  202POPC   C3A 2419  22.983   5.711  17.982 -0.0679 -0.2411 -0.0652
  202POPC   C4A 2420  22.521   5.793  17.818  0.0351  0.3013 -0.0347
  202POPC   C1B 2421  22.786   5.089  18.177 -0.0929 -0.1375 -0.2177
  202POPC   C2B 2422  22.856   5.228  17.747  0.1685 -0.0149 -0.0753
  202POPC   C3B 2423  22.893   5.246  17.307 -0.0841  0.2585 -0.5142
  202POPC   C4B 2424  22.768   5.178  16.940 -0.0527 -0.0650  0.1170
  203POPC   NC3 2425  16.699   0.192  19.304  0.1063 -0.0235  0.0855
  203POPC   PO4 2426  16.611   0.567  19.397 -0.1823 -0.2966  0.0935
  203POPC   GL1 2427  16.695   0.678  19.054 -0.0732  0.0629 -0.5682
  203POPC   GL2 2428  16.965   0.617  18.922 -0.0512 -0.1834 -0.2620
  203POPC   C1A 2429  16.568   0.486  18.652 -0.1272  0.1849 -0.3660
  203POPC   D2A 2430  16.843   0.262  18.278  0.0631  0.0107  0.2480
  203POPC   C3A 2431  16.879  -0.203  18.376  0.0874 -0.0289 -0.0287
  203POPC   C4A 2432  16.849  -0.653  18.535  0.0966  0.1348 -0.3324
  203POPC   C1B 2433  16.999   0.718  18.501  0.1300 -0.1343  0.1382
  203POPC   C2B 2434  17.132   0.659  18.104  0.1240  0.0078  0.2553
  203POPC   C3B 2435  17.465   0.800  17.822 -0.2539 -0.2567  0.0267
  203POPC   C4B 2436  17.453   0.962  17.351  0.0580 -0.1391 -0.0372
  204POPC   NC3 2437  13.840  15.379  19.230 -0.0792  0.1521  0.2597
  204POPC   PO4 2438  13.446  15.458  19.341 -0.3715  0.2710 -0.2445
  204POPC   GL1 2439  13.357  15.560  18.986 -0.1796 -0.2113  0.5154
  204POPC   GL2 2440  13.638  15.552  18.804 -0.2321  0.0008 -0.1274
  204POPC   C1A 2441  13.241  15.459  18.538 -0.1315 -0.0460 -0.1243
  204POPC   D2A 2442  13.169  15.202  18.132  0.2073 -0.0372 -0.6197
  204POPC   C3A 2443  13.214  14.792  17.990  0.0939  0.0381 -0.0448
  204POPC   C4A 2444  13.529  14.377  18.017 -0.1705 -0.1655  0.1073
  204POPC   C1B 2445  13.761  15.535  18.373 -0.0534 -0.1020  0.2160
  204POPC   C2B 2446  13.786  15.282  18.023 -0.2197 -0.1967 -0.0343
  204POPC   C3B 2447  13.878  15.166  17.607  0.0519 -0.1163  0.0945
  204POPC   C4B 2448  13.845  14.777  17.414 -0.3335 -0.0781 -0.0791
  205POPC   NC3 2449  13.984  22.383  19.726  0.0596  0.2060 -0.1734
  205POPC   PO4 2450  13.937  22.459  19.351  0.1312 -0.2832  0.0507
  205POPC   GL1 2451  13.892  22.319  18.950 -0.2017 -0.2844 -0.1130
  205POPC   GL2 2452  14.123  22.344  18.748 -0.0220  0.2400  0.1449
  205POPC   C1A 2453  13.665  22.229  18.470 -0.0697  0.0358 -0.0884
  205POPC   D2A 2454  13.738  22.018  18.068  0.1097  0.1723  0.0616
  205POPC   C3A 2455  13.354  21.946  17.841  0.1148  0.0699 -0.1181
  205POPC   C4A 2456  13.083  21.965  17.484 -0.0083 -0.1265  0.1464
  205POPC   C1B 2457  14.078  22.382  18.307 -0.1943 -0.0589  0.1813
  205POPC   C2B 2458  14.190  22.513  17.897 -0.1015 -0.3544 -0.0097
  205POPC   C3B 2459  14.160  22.524  17.433 -0.1522 -0.2501  0.0719
  205POPC   C4B 2460  14.308  22.808  17.044 -0.4817 -0.1355 -0.1119
  206POPC   NC3 2461   7.057  31.540  19.241 -0.0419  0.0273 -0.0990
  206POPC   PO4 2462   7.414  31.613  19.443 -0.0443  0.0606  0.3748
  206POPC   GL1 2463   7.586  31.674  19.109  0.2668 -0.2462 -0.1097
  206POPC   GL2 2464   7.421  31.527  18.872 -0.0764  0.0478  0.3721
  206POPC   C1A 2465   7.642  31.981  18.746 -0.2194 -0.0012  0.0824
  206POPC   D2A 2466   7.512  32.368  18.608  0.0937 -0.1499 -0.0702
  206POPC   C3A 2467   7.397  32.314  18.179 -0.2294 -0.1727 -0.0166
  206POPC   C4A 2468   7.531  32.184  17.766  0.3131  0.2013  0.0631
  206POPC   C1B 2469   7.562  31.506  18.425 -0.0384  0.0140  0.0318
  206POPC   C2B 2470   7.701  31.878  18.149 -0.1588  0.1472 -0.2691
  206POPC   C3B 2471   8.039  31.953  17.796  0.0712 -0.0632 -0.1038
  206POPC   C4B 2472   8.304  32.218  17.539 -0.1930 -0.2076  0.2956
  207POPC   NC3 2473  20.560   2.490  19.250  0.1191 -0.0783 -0.1455
  207POPC   PO4 2474  20.401   2.736  19.002  0.0750  0.0994 -0.0751
  207POPC   GL1 2475  20.417   2.698  18.590 -0.3750 -0.1618 -0.1966
  207POPC   GL2 2476  20.151   2.547  18.570  0.1023  0.1277  0.0222
  207POPC   C1A 2477  20.816   2.536  18.315  0.0336 -0.2690 -0.0922
  207POPC   D2A 2478  20.891   2.439  17.869 -0.0301 -0.1601 -0.1551
  207POPC   C3A 2479  20.512   2.413  17.649  0.0867  0.4520  0.0988
  207POPC   C4A 2480  20.194   2.636  17.445 -0.3218  0.0091 -0.0469
  207POPC   C1B 2481  20.274   2.547  18.127  0.2889  0.0152  0.0599
  207POPC   C2B 2482  19.911   2.566  17.909  0.1338  0.0123  0.1894
  207POPC   C3B 2483  19.777   2.367  17.509 -0.1219  0.0181 -0.3314
  207POPC   C4B 2484  19.846   2.026  17.246  0.0339  0.0856 -0.1553
  208POPC   NC3 2485   9.416  10.681  19.415  0.2974 -0.0567 -0.0317
  208POPC   PO4 2486   9.178  10.525  19.192  0.2400 -0.0297  0.1549
  208POPC   GL1 2487   9.317  10.612  18.833  0.0341  0.2427 -0.1286
  208POPC   GL2 2488   9.184  10.822  18.786 -0.1038 -0.1740 -0.1309
  208POPC   C1A 2489   9.251  10.260  18.507  0.1262  0.0013  0.2968
  208POPC   D2A 2490   8.801  10.197  18.327 -0.1410 -0.2516  0.1139
  208POPC   C3A 2491   8.681  10.098  17.934 -0.0897  0.0995 -0.0852
  208POPC   C4A 2492   8.545  10.401  17.679  0.2094 -0.1697  0.1749
  208POPC   C1B 2493   9.378  10.985  18.374  0.0325  0.3271  0.1371
  208POPC   C2B 2494   9.585  10.976  17.935 -0.1263 -0.1192 -0.3311
  208POPC   C3B 2495   9.435  11.156  17.502 -0.2061 -0.2188 -0.0103
  208POPC   C4B 2496   9.494  11.372  17.099 -0.0392  0.0491  0.0653
  209POPC   NC3 2497  30.511   2.673  19.733  0.0643  0.0341  0.3020
  209POPC   PO4 2498  30.522   3.058  19.607 -0.2401 -0.0499 -0.2270
  209POPC   GL1 2499  30.594   3.081  19.271  0.0220  0.1888  0.1156
  209POPC   GL2 2500  30.308   3.150  19.128 -0.5047 -0.1645 -0.1072
  209POPC   C1A 2501  30.496   2.746  18.947  0.1702 -0.2335 -0.0017
  209POPC   D2A 2502  30.644   2.422  18.718 -0.5079  0.0671  0.1640
  209POPC   C3A 2503  30.582   2.440  18.215  0.2029  0.2367 -0.2302
  209POPC   C4A 2504  30.576   2.540  17.753  0.0349  0.1102 -0.2568
  209POPC   C1B 2505  30.111   2.987  18.710 -0.1733  0.0521 -0.3669
  209POPC   C2B 2506  29.825   2.874  18.413  0.1303  0.1873 -0.3438
  209POPC   C3B 2507  29.494   2.675  18.088 -0.3242 -0.1488 -0.0373
  209POPC   C4B 2508  29.480   2.488  17.684  0.0173 -0.1599 -0.0616
  210POPC   NC3 2509  19.065  17.153  19.457  0.0419 -0.0953  0.1220
  210POPC   PO4 2510  18.950  16.865  19.230  0.0854 -0.1404  0.0293
  210POPC   GL1 2511  18.844  16.831  18.832  0.1779  0.0425 -0.0029
  210POPC   GL2 2512  18.558  16.974  18.865  0.1445  0.0616  0.7272
  210POPC   C1A 2513  19.176  16.751  18.561  0.0203  0.1345  0.2165
  210POPC   D2A 2514  19.548  16.680  18.239 -0.1758  0.1088 -0.1382
  210POPC   C3A 2515  19.559  16.709  17.796  0.2775 -0.1672  0.0250
  210POPC   C4A 2516  19.666  16.746  17.353  0.0128  0.4181  0.0448
  210POPC   C1B 2517  18.785  17.136  18.460  0.1220 -0.1229  0.0485
  210POPC   C2B 2518  19.109  17.066  18.142  0.3200 -0.2259  0.0210
  210POPC   C3B 2519  19.165  17.026  17.724 -0.2065 -0.2002  0.1866
  210POPC   C4B 2520  19.300  17.029  17.232  0.0875 -0.1236 -0.0931
  211POPC   NC3 2521  12.065  18.313  18.625  0.2837  0.1700 -0.3589
  211POPC   PO4 2522  12.137  17.968  18.813 -0.2113 -0.0557 -0.0218
  211POPC   GL1 2523  11.870  17.813  18.624 -0.0474  0.0895  0.3125
  211POPC   GL2 2524  11.787  17.948  18.352  0.0581  0.1634  0.1012
  211POPC   C1A 2525  11.803  17.476  18.310 -0.1520 -0.1622  0.0565
  211POPC   D2A 2526  11.977  17.370  17.904 -0.3958  0.1956 -0.3029
  211POPC   C3A 2527  11.854  17.225  17.479 -0.0236  0.1817  0.1893
  211POPC   C4A 2528  11.729  17.359  17.099  0.1536 -0.0609 -0.0325
  211POPC   C1B 2529  12.047  17.957  17.951  0.0329  0.0858 -0.0880
  211POPC   C2B 2530  12.301  17.724  17.683  0.1507  0.0907  0.0651
  211POPC   C3B 2531  12.375  17.532  17.306 -0.1535 -0.3262  0.0275
  211POPC   C4B 2532  12.285  17.125  17.179 -0.0776  0.2126  0.4414
  212POPC   NC3 2533  17.666  22.934  19.624  0.1958  0.1376  0.0559
  212POPC   PO4 2534  17.424  23.109  19.321 -0.0021  0.0420  0.0618
  212POPC   GL1 2535  17.543  23.238  18.970 -0.1276  0.4937  0.3312
  212POPC   GL2 2536  17.241  23.283  18.874 -0.1153 -0.0192 -0.0090
  212POPC   C1A 2537  17.561  22.901  18.598  0.4162  0.0848  0.1996
  212POPC   D2A 2538  17.606  22.959  18.179 -0.0535 -0.3106  0.2194
  212POPC   C3A 2539  17.973  23.088  18.009  0.2799  0.2286 -0.0380
  212POPC   C4A 2540  18.296  23.232  17.657  0.2397 -0.2124 -0.2887
  212POPC   C1B 2541  17.245  23.220  18.429  0.1184  0.0231  0.1814
  212POPC   C2B 2542  17.238  23.452  18.036 -0.1344 -0.2458  0.2300
  212POPC   C3B 2543  17.284  23.522  17.597 -0.0780  0.1157 -0.0566
  212POPC   C4B 2544  17.111  23.350  17.181  0.0831 -0.2463 -0.3303
  213POPC   NC3 2545  26.097  25.174  19.618  0.2020  0.0303 -0.0622
  213POPC   PO4 2546  25.901  25.492  19.484 -0.1022  0.2819  0.0909
  213POPC   GL1 2547  26.064  25.360  19.075  0.1322 -0.1154 -0.1645
  213POPC   GL2 2548  26.141  25.054  18.993 -0.1178  0.2162 -0.3753
  213POPC   C1A 2549  25.864  25.638  18.757  0.0356  0.0136  0.1805
  213POPC   D2A 2550  25.565  25.814  18.511 -0.0857 -0.0932  0.0834
  213POPC   C3A 2551  25.437  25.696  18.074  0.2722  0.2207 -0.0129
  213POPC   C4A 2552  25.290  25.670  17.655 -0.5293 -0.1091 -0.0604
  213POPC   C1B 2553  26.126  25.261  18.575  0.5071  0.0647  0.0438
  213POPC   C2B 2554  25.918  25.524  18.218 -0.2051 -0.0431  0.0734
  213POPC   C3B 2555  25.864  25.644  17.790  0.0113  0.0802 -0.2721
  213POPC   C4B 2556  25.701  25.992  17.628  0.0624  0.0611 -0.0386
  214POPC   NC3 2557   6.614   1.881  19.329  0.1672  0.1607 -0.0821
  214POPC   PO4 2558   6.715   1.655  19.642 -0.0368  0.0253  0.2328
  214POPC   GL1 2559   6.944   1.620  19.329 -0.0981 -0.0957 -0.2462
  214POPC   GL2 2560   6.819   1.381  19.260 -0.0963  0.0948  0.2948
  214POPC   C1A 2561   6.939   1.900  18.954  0.0589  0.0213  0.3232
  214POPC   D2A 2562   6.861   2.363  18.780 -0.1217  0.0174 -0.3166
  214POPC   C3A 2563   7.035   2.432  18.364  0.0706 -0.1665  0.0642
  214POPC   C4A 2564   6.856   2.686  17.998  0.2286  0.4252 -0.1157
  214POPC   C1B 2565   7.113   1.420  18.904 -0.2576 -0.0818 -0.1098
  214POPC   C2B 2566   7.169   1.553  18.456 -0.1191  0.1263 -0.0820
  214POPC   C3B 2567   7.327   1.439  18.061  0.4264 -0.1718 -0.1008
  214POPC   C4B 2568   7.498   1.020  18.022 -0.1555  0.1623 -0.1006
  215POPC   NC3 2569  20.763  14.019  19.006 -0.0931 -0.0530 -0.0668
  215POPC   PO4 2570  20.648  14.391  19.005 -0.3720 -0.0223 -0.1798
  215POPC   GL1 2571  20.649  14.406  18.652  0.0278 -0.1486  0.0273
  215POPC   GL2 2572  20.980  14.268  18.604  0.3216 -0.3421 -0.0380
  215POPC   C1A 2573  20.440  14.474  18.272  0.3552 -0.0401  0.2327
  215POPC   D2A 2574  20.267  14.110  18.012  0.0841 -0.1762  0.0335
  215POPC   C3A 2575  20.154  14.231  17.584  0.2932  0.1013 -0.1764
  215POPC   C4A 2576  20.162  14.279  17.128  0.2244 -0.4472 -0.2176
  215POPC   C1B 2577  20.949  14.234  18.108 -0.3301 -0.3202  0.0838
  215POPC   C2B 2578  21.044  14.198  17.716 -0.2367 -0.1651  0.1526
  215POPC   C3B 2579  21.451  14.151  17.447  0.0090 -0.1826 -0.3983
  215POPC   C4B 2580  21.336  14.091  17.014  0.0148 -0.0270  0.0789
  216POPC   NC3 2581  21.207  10.544  19.295  0.2444 -0.3251 -0.0490
  216POPC   PO4 2582  21.559  10.408  19.364 -0.2672 -0.2424 -0.0649
  216POPC   GL1 2583  21.654  10.348  19.020 -0.1590 -0.0068  0.0667
  216POPC   GL2 2584  21.414  10.496  18.856 -0.1044 -0.3436  0.1611
  216POPC   C1A 2585  21.975  10.399  18.774 -0.4589 -0.0994 -0.0109
  216POPC   D2A 2586  22.389  10.568  18.669  0.1939 -0.0465  0.2688
  216POPC   C3A 2587  22.439  10.842  18.343 -0.0384  0.0636  0.1166
  216POPC   C4A 2588  22.350  11.182  18.019 -0.0381  0.0773 -0.2668
  216POPC   C1B 2589  21.023  10.595  18.621 -0.3115  0.0384 -0.3297
  216POPC   C2B 2590  20.991  10.718  18.157  0.2299  0.0948  0.2851
  216POPC   C3B 2591  20.678  10.690  17.764 -0.2769 -0.2186  0.0117
  216POPC   C4B 2592  20.586  10.740  17.303  0.0262  0.0997 -0.1157
  217POPC   NC3 2593   2.338  20.261  19.520  0.1447  0.2256 -0.0213
  217POPC   PO4 2594   1.990  20.350  19.430  0.1191 -0.0612  0.0573
  217POPC   GL1 2595   2.150  20.445  19.057 -0.2678  0.1756 -0.1064
  217POPC   GL2 2596   2.401  20.595  19.119  0.1504 -0.3778 -0.4424
  217POPC   C1A 2597   1.780  20.459  18.750 -0.1672  0.1241  0.0721
  217POPC   D2A 2598   1.345  20.383  18.789 -0.0535  0.1220  0.2705
  217POPC   C3A 2599   1.184  20.021  18.508  0.0136 -0.0834 -0.0799
  217POPC   C4A 2600   1.164  19.896  18.079  0.0475 -0.0964  0.3638
  217POPC   C1B 2601   2.193  20.830  18.735  0.0067  0.0199  0.4272
  217POPC   C2B 2602   2.237  20.668  18.246 -0.0268  0.1476 -0.1932
  217POPC   C3B 2603   2.121  20.896  17.843 -0.0488  0.2135 -0.2186
  217POPC   C4B 2604   2.027  21.216  17.433 -0.0208 -0.2074  0.0299
  218POPC   NC3 2605  25.447  29.240  19.633 -0.0982  0.0373 -0.1020
  218POPC   PO4 2606  25.444  28.986  19.348  0.1306 -0.1015 -0.2520
  218POPC   GL1 2607  25.351  28.925  19.069  0.1388 -0.0826  0.0007
  218POPC   GL2 2608  25.454  29.146  18.869 -0.2866 -0.1289 -0.2325
  218POPC   C1A 2609  25.131  28.890  18.644  0.0482  0.2183  0.1313
  218POPC   D2A 2610  25.357  28.663  18.311  0.0896 -0.0277 -0.0851
  218POPC   C3A 2611  25.032  28.710  17.997 -0.3322 -0.3658 -0.1761
  218POPC   C4A 2612  25.157  28.978  17.681  0.2022  0.2144 -0.1027
  218POPC   C1B 2613  25.559  29.104  18.461  0.2909  0.0978  0.0112
  218POPC   C2B 2614  25.636  29.076  17.979  0.4362 -0.0296 -0.6755
  218POPC   C3B 2615  25.786  28.876  17.620  0.1137 -0.0358  0.2752
  218POPC   C4B 2616  25.998  29.069  17.232 -0.1946 -0.2336  0.0050
  219POPC   NC3 2617  19.434  27.496  19.225 -0.0584 -0.0282  0.1852
  219POPC   PO4 2618  19.762  27.736  19.203 -0.0655  0.0750 -0.0395
  219POPC   GL1 2619  19.614  27.803  18.901 -0.0533 -0.0787 -0.1541
  219POPC   GL2 2620  19.694  28.129  18.843 -0.0527 -0.0027 -0.0977
  219POPC   C1A 2621  19.553  27.604  18.496 -0.1779 -0.2539 -0.1778
  219POPC   D2A 2622  19.458  27.611  18.092 -0.0758 -0.1131 -0.1037
  219POPC   C3A 2623  19.296  27.339  17.839  0.2102 -0.1240  0.2295
  219POPC   C4A 2624  18.987  27.441  17.528 -0.0065  0.2774  0.0931
  219POPC   C1B 2625  19.566  28.120  18.366  0.1451 -0.0308 -0.1382
  219POPC   C2B 2626  19.574  28.115  17.924 -0.1564 -0.1895 -0.1821
  219POPC   C3B 2627  19.510  28.113  17.486  0.1301 -0.2630  0.1278
  219POPC   C4B 2628  19.279  28.277  17.111 -0.0845  0.0438 -0.1835
  220POPC   NC3 2629   9.878  10.838  19.487 -0.0507 -0.1618  0.1399
  220POPC   PO4 2630  10.088  10.656  19.775 -0.0639  0.2551 -0.1507
  220POPC   GL1 2631  10.218  10.479  19.413  0.4871  0.1394 -0.0668
  220POPC   GL2 2632  10.173  10.299  19.261 -0.2847 -0.0374  0.1268
  220POPC   C1A 2633  10.566  10.513  19.098 -0.0404 -0.4239 -0.1828
  220POPC   D2A 2634  10.829  10.298  18.743 -0.0448 -0.1914  0.1383
  220POPC   C3A 2635  10.709  10.334  18.337 -0.0610 -0.2913 -0.2438
  220POPC   C4A 2636  10.869  10.523  17.939 -0.0608 -0.1111  0.1960
  220POPC   C1B 2637  10.128  10.312  18.809 -0.0169  0.1168  0.2147
  220POPC   C2B 2638  10.134  10.246  18.332  0.1673  0.1996 -0.0385
  220POPC   C3B 2639  10.067   9.983  17.924  0.0104  0.0084  0.0566
  220POPC   C4B 2640   9.898   9.833  17.527 -0.1708 -0.0609 -0.1422
  221POPC   NC3 2641  22.081  25.286  19.312  0.0001  0.0592  0.2792
  221POPC   PO4 2642  22.442  25.060  19.255 -0.0461 -0.0321 -0.1093
  221POPC   GL1 2643  22.492  24.907  18.877 -0.2408 -0.1195 -0.0629
  221POPC   GL2 2644  22.384  24.661  18.768 -0.3638 -0.4104 -0.0842
  221POPC   C1A 2645  22.438  25.053  18.378 -0.0421  0.0417  0.0972
  221POPC   D2A 2646  22.167  25.078  18.017 -0.0454  0.0574  0.0229
  221POPC   C3A 2647  22.293  25.307  17.616  0.0344  0.0447  0.1567
  221POPC   C4A 2648  22.599  25.439  17.257 -0.1393  0.1287 -0.2574
  221POPC   C1B 2649  22.263  24.556  18.317 -0.1223 -0.4133 -0.0058
  221POPC   C2B 2650  22.232  24.419  17.842  0.0618  0.0570 -0.0784
  221POPC   C3B 2651  22.043  24.399  17.453  0.2013  0.2528 -0.2990
  221POPC   C4B 2652  21.643  24.340  17.191 -0.1021 -0.2621 -0.4163
  222POPC   NC3 2653  22.914   9.830  19.161  0.2147 -0.1376  0.1402
  222POPC   PO4 2654  22.996   9.503  19.374 -0.1404 -0.0976 -0.6534
  222POPC   GL1 2655  23.103   9.406  19.004 -0.0621  0.3738 -0.2262
  222POPC   GL2 2656  23.331   9.196  19.024  0.0722 -0.0272 -0.0725
  222POPC   C1A 2657  23.090   9.769  18.664 -0.0416 -0.0245 -0.0470
  222POPC   D2A 2658  22.838  10.164  18.752 -0.2856 -0.2681  0.2153
  222POPC   C3A 2659  22.688  10.315  18.343 -0.0334 -0.0294  0.1004
  222POPC   C4A 2660  22.489  10.485  17.966  0.0796  0.1620  0.3358
  222POPC   C1B 2661  23.574   9.397  18.700  0.0060 -0.0382  0.1487
  222POPC   C2B 2662  23.776   9.317  18.280  0.2142  0.2690  0.1541
  222POPC   C3B 2663  23.944   9.065  17.927  0.0147 -0.1507 -0.0342
  222POPC   C4B 2664  24.173   8.778  17.670 -0.0207 -0.1051  0.1112
  223POPC   NC3 2665  30.814  16.384  19.376  0.1713 -0.3010 -0.1283
  223POPC   PO4 2666  30.908  15.998  19.317  0.1287 -0.0213  0.1055
  223POPC   GL1 2667  30.656  15.842  19.021 -0.1959 -0.2691 -0.1298
  223POPC   GL2 2668  30.663  15.504  19.048 -0.0557 -0.1363  0.1521
  223POPC   C1A 2669  30.498  15.959  18.602  0.0010 -0.3840 -0.0073
  223POPC   D2A 2670  30.527  16.255  18.232  0.1187  0.1742 -0.0833
  223POPC   C3A 2671  30.584  16.628  18.316  0.0571 -0.1857  0.1257
  223POPC   C4A 2672  30.610  17.069  18.203 -0.0800  0.0593 -0.1536
  223POPC   C1B 2673  30.360  15.493  18.703  0.3279 -0.3172  0.3560
  223POPC   C2B 2674  30.359  15.362  18.277  0.0202  0.1929 -0.2576
  223POPC   C3B 2675  30.468  15.336  17.856  0.1986 -0.0669 -0.1326
  223POPC   C4B 2676  30.313  15.190  17.452  0.1663 -0.3740  0.2135
  224POPC   NC3 2677   2.983   4.832  19.495 -0.2315  0.1794  0.2210
  224POPC   PO4 2678   2.896   4.433  19.528  0.1445  0.0073 -0.1592
  224POPC   GL1 2679   2.951   4.412  19.135  0.1832  0.2790  0.2354
  224POPC   GL2 2680   3.197   4.568  19.074 -0.1541 -0.0415  0.3719
  224POPC   C1A 2681   2.736   4.320  18.706 -0.2090 -0.0133 -0.2555
  224POPC   D2A 2682   2.441   4.247  18.397 -0.1722 -0.0863 -0.1690
  224POPC   C3A 2683   2.369   4.523  18.024  0.3163  0.4881 -0.1249
  224POPC   C4A 2684   2.363   4.244  17.683 -0.3069  0.2356 -0.1949
  224POPC   C1B 2685   3.232   4.602  18.607  0.1594 -0.2626 -0.1013
  224POPC   C2B 2686   2.974   4.772  18.227  0.2420  0.2304 -0.1461
  224POPC   C3B 2687   2.854   4.821  17.860  0.2698  0.0365  0.2044
  224POPC   C4B 2688   2.865   4.527  17.473 -0.0153 -0.1733 -0.0812
  225POPC   NC3 2689   9.325   3.020  19.127  0.2181  0.0530  0.0986
  225POPC   PO4 2690   9.051   3.303  19.207  0.0276 -0.2209 -0.0814
  225POPC   GL1 2691   8.848   2.957  19.070 -0.1937 -0.0021  0.0352
  225POPC   GL2 2692   8.578   3.096  18.903  0.2255  0.0332 -0.1674
  225POPC   C1A 2693   8.992   2.693  18.746  0.1802 -0.1191  0.0861
  225POPC   D2A 2694   8.924   2.474  18.371  0.0606 -0.1765 -0.1073
  225POPC   C3A 2695   8.722   2.511  17.937 -0.2481 -0.0781 -0.0826
  225POPC   C4A 2696   8.599   2.429  17.483 -0.1349  0.0772  0.1563
  225POPC   C1B 2697   8.463   3.275  18.498  0.0119  0.3215 -0.1223
  225POPC   C2B 2698   8.287   3.288  18.113  0.4069 -0.3006  0.1495
  225POPC   C3B 2699   8.360   2.993  17.769  0.1856 -0.3830 -0.1467
  225POPC   C4B 2700   8.181   2.899  17.338 -0.1372  0.5101 -0.1549
  226POPC   NC3 2701  15.585   3.810  19.103  0.0242  0.1147  0.0899
  226POPC   PO4 2702  15.333   4.093  19.209 -0.1831  0.1462 -0.0286
  226POPC   GL1 2703  15.364   4.207  18.842 -0.1380  0.4323  0.2741
  226POPC   GL2 2704  15.189   4.113  18.694  0.0163  0.0588 -0.1948
  226POPC   C1A 2705  15.559   4.083  18.414  0.1952  0.0483  0.1353
  226POPC   D2A 2706  15.483   4.217  17.964 -0.0180 -0.0184 -0.1194
  226POPC   C3A 2707  15.775   4.379  17.737 -0.2151 -0.0601 -0.1493
  226POPC   C4A 2708  16.201   4.295  17.769  0.1508  0.0234 -0.0084
  226POPC   C1B 2709  14.746   4.214  18.594  0.2555 -0.1733 -0.0427
  226POPC   C2B 2710  14.594   4.499  18.298 -0.0153 -0.3039  0.0669
  226POPC   C3B 2711  14.299   4.662  17.926  0.0338  0.0128  0.2256
  226POPC   C4B 2712  14.115   4.644  17.489  0.1166 -0.2308  0.1895
  227POPC   NC3 2713  23.754  10.058  19.535  0.2494 -0.3469 -0.2661
  227POPC   PO4 2714  23.842   9.677  19.465 -0.1408  0.1625  0.0665
  227POPC   GL1 2715  23.775   9.378  19.165  0.0840 -0.0438 -0.2202
  227POPC   GL2 2716  24.001   9.442  19.022  0.0954 -0.4239 -0.1754
  227POPC   C1A 2717  23.760   8.935  19.003  0.2696 -0.0834  0.0339
  227POPC   D2A 2718  23.768   8.498  18.889  0.1794 -0.0195 -0.1172
  227POPC   C3A 2719  23.510   8.425  18.539 -0.0398 -0.0719  0.0518
  227POPC   C4A 2720  23.385   8.477  18.140  0.1252 -0.0578  0.1638
  227POPC   C1B 2721  24.212   9.266  18.618 -0.2203 -0.0151 -0.0031
  227POPC   C2B 2722  24.323   9.425  18.178  0.0932  0.1465  0.0665
  227POPC   C3B 2723  24.270   9.375  17.774  0.0392 -0.0427  0.1673
  227POPC   C4B 2724  24.318   9.183  17.397  0.1295  0.2166 -0.0911
  228POPC   NC3 2725  19.651   1.293  19.395 -0.1503 -0.3405  0.3873
  228POPC   PO4 2726  19.908   1.278  19.096  0.2811 -0.0123 -0.1754
  228POPC   GL1 2727  19.745   1.453  18.746 -0.0332  0.0469  0.1981
  228POPC   GL2 2728  19.552   1.214  18.744  0.0088  0.0838  0.2803
  228POPC   C1A 2729  19.746   1.722  18.365 -0.0694 -0.0594 -0.1436
  228POPC   D2A 2730  19.772   2.110  18.121 -0.2053  0.0697 -0.0435
  228POPC   C3A 2731  19.396   2.346  17.852 -0.0592 -0.0236 -0.2706
  228POPC   C4A 2732  19.070   2.249  17.528 -0.3156  0.1049  0.0104
  228POPC   C1B 2733  19.409   1.341  18.277 -0.0134  0.0503  0.0989
  228POPC   C2B 2734  19.394   1.433  17.827 -0.0432 -0.1092  0.0728
  228POPC   C3B 2735  19.434   1.408  17.357  0.1309 -0.0316 -0.2399
  228POPC   C4B 2736  19.328   1.072  17.048  0.1615  0.1130 -0.1988
  229POPC   NC3 2737  10.809  17.738  19.318 -0.1276 -0.0463  0.0914
  229POPC   PO4 2738  10.678  17.356  19.164  0.1237  0.1857 -0.0787
  229POPC   GL1 2739  10.747  17.268  18.820  0.2589 -0.0955 -0.0091
  229POPC   GL2 2740  10.611  17.000  18.784 -0.0505 -0.2102 -0.2233
  229POPC   C1A 2741  10.394  17.284  18.474 -0.1078  0.1201  0.1119
  229POPC   D2A 2742  10.369  17.355  17.994 -0.1812  0.1096  0.1034
  229POPC   C3A 2743  10.169  17.046  17.746 -0.3805 -0.2731  0.0469
  229POPC   C4A 2744  10.116  16.602  17.722 -0.1227  0.0367 -0.2419
  229POPC   C1B 2745  10.274  16.780  18.604  0.2738  0.0210 -0.1874
  229POPC   C2B 2746   9.987  16.696  18.211 -0.0514  0.0205 -0.2078
  229POPC   C3B 2747   9.667  16.620  17.868  0.1255  0.0180 -0.3231
  229POPC   C4B 2748   9.588  16.794  17.433 -0.0264 -0.3254  0.0992
  230POPC   NC3 2749  25.499   9.015  19.339 -0.3199 -0.0677  0.0124
  230POPC   PO4 2750  25.720   9.170  19.606 -0.4530  0.1921 -0.0533
  230POPC   GL1 2751  25.951   9.128  19.197  0.1431  0.5340 -0.0186
  230POPC   GL2 2752  25.834   9.334  18.989 -0.1197 -0.0391  0.0155
  230POPC   C1A 2753  25.866   8.828  18.847  0.2173 -0.0103  0.0057
  230POPC   D2A 2754  26.039   8.750  18.420  0.0868 -0.2638  0.0387
  230POPC   C3A 2755  25.867   8.735  17.993 -0.0751  0.2748  0.2567
  230POPC   C4A 2756  25.707   8.794  17.564  0.0712 -0.0718 -0.0541
  230POPC   C1B 2757  25.886   9.271  18.534  0.2150 -0.1242 -0.0955
  230POPC   C2B 2758  25.982   9.234  18.056  0.1175 -0.0907 -0.0465
  230POPC   C3B 2759  25.942   9.215  17.663 -0.0008  0.2272  0.2200
  230POPC   C4B 2760  25.692   9.284  17.285 -0.2731 -0.1348 -0.2461
  231POPC   NC3 2761   6.850   4.962  19.304 -0.1032 -0.3419 -0.0464
  231POPC   PO4 2762   6.471   4.986  19.239  0.0454 -0.0938  0.0252
  231POPC   GL1 2763   6.454   4.721  18.974  0.3109 -0.0261 -0.2051
  231POPC   GL2 2764   6.726   4.640  18.892  0.0809  0.2378 -0.0590
  231POPC   C1A 2765   6.412   4.576  18.543  0.0440  0.0735  0.1406
  231POPC   D2A 2766   6.072   4.487  18.211  0.1123 -0.0886  0.1384
  231POPC   C3A 2767   5.909   4.588  17.757 -0.0395 -0.1885  0.0050
  231POPC   C4A 2768   5.660   4.942  17.611  0.1173 -0.3166 -0.1100
  231POPC   C1B 2769   6.933   4.472  18.481  0.0226 -0.0864 -0.0540
  231POPC   C2B 2770   6.825   4.394  17.992 -0.1286 -0.1329 -0.2990
  231POPC   C3B 2771   6.648   4.336  17.585  0.2259  0.1043 -0.1065
  231POPC   C4B 2772   6.249   4.203  17.512 -0.0101 -0.1438  0.2572
  232POPC   NC3 2773   5.562   7.301  19.752  0.1250  0.4027 -0.0510
  232POPC   PO4 2774   5.322   7.379  19.460  0.0091 -0.0950 -0.0380
  232POPC   GL1 2775   5.322   7.160  19.065  0.0215  0.1162 -0.0008
  232POPC   GL2 2776   5.627   7.079  19.003  0.2227 -0.0348  0.0245
  232POPC   C1A 2777   5.180   6.765  18.858 -0.1845 -0.1126  0.2135
  232POPC   D2A 2778   5.256   6.551  18.507  0.1120  0.2848 -0.0779
  232POPC   C3A 2779   4.854   6.659  18.304 -0.1212 -0.3851 -0.0860
  232POPC   C4A 2780   4.400   6.631  18.178 -0.0418  0.3379 -0.0573
  232POPC   C1B 2781   5.600   7.027  18.611 -0.0339 -0.1564  0.1417
  232POPC   C2B 2782   5.486   6.790  18.186  0.0780 -0.0798  0.1996
  232POPC   C3B 2783   5.381   6.428  17.964 -0.0299  0.5299  0.0907
  232POPC   C4B 2784   5.164   6.177  17.606 -0.2293 -0.0384 -0.0812
  233POPC   NC3 2785  11.567   5.301  18.971 -0.1564  0.2079 -0.0806
  233POPC   PO4 2786  11.391   5.639  18.948  0.1693  0.2971  0.1140
  233POPC   GL1 2787  11.432   5.761  18.654  0.0234 -0.0315  0.1306
  233POPC   GL2 2788  11.515   6.063  18.706  0.1443 -0.0501  0.1373
  233POPC   C1A 2789  11.316   5.637  18.205  0.0654  0.1397 -0.1621
  233POPC   D2A 2790  11.206   5.565  17.759  0.4532  0.0580  0.0462
  233POPC   C3A 2791  11.413   5.236  17.507  0.1259  0.0613 -0.3178
  233POPC   C4A 2792  11.661   4.879  17.529  0.0740  0.0172 -0.3265
  233POPC   C1B 2793  11.564   6.161  18.278  0.0055 -0.0675  0.1948
  233POPC   C2B 2794  11.436   5.982  17.871 -0.1454 -0.2021  0.0108
  233POPC   C3B 2795  11.670   5.711  17.618  0.0218 -0.1462  0.0527
  233POPC   C4B 2796  11.802   5.487  17.293  0.2985  0.1031 -0.0242
  234POPC   NC3 2797  29.200  24.904  19.438  0.1086  0.1222 -0.1248
  234POPC   PO4 2798  29.506  25.061  19.225  0.0368  0.0549 -0.0617
  234POPC   GL1 2799  29.434  24.950  18.794 -0.2556 -0.3306  0.0044
  234POPC   GL2 2800  29.157  25.039  18.633 -0.1772 -0.0843  0.0216
  234POPC   C1A 2801  29.455  24.692  18.378  0.1488  0.0963 -0.1507
  234POPC   D2A 2802  29.293  24.650  17.936  0.1407  0.0814 -0.3245
  234POPC   C3A 2803  29.180  24.572  17.527  0.2236  0.0637 -0.1557
  234POPC   C4A 2804  29.176  24.874  17.121  0.1218  0.0423 -0.0745
  234POPC   C1B 2805  29.221  25.065  18.153  0.2641  0.0895  0.0571
  234POPC   C2B 2806  29.044  25.036  17.715  0.0188 -0.0148 -0.1951
  234POPC   C3B 2807  28.849  25.197  17.314 -0.1670 -0.1392 -0.3964
  234POPC   C4B 2808  28.561  25.272  17.016 -0.0653  0.0758  0.0537
  235POPC   NC3 2809  24.698   1.740  19.152 -0.1555 -0.0156 -0.0686
  235POPC   PO4 2810  24.958   1.479  19.285  0.0645 -0.3407 -0.3755
  235POPC   GL1 2811  25.092   1.572  18.954  0.1682  0.1145  0.1713
  235POPC   GL2 2812  25.226   1.322  18.895 -0.0141 -0.2408  0.0940
  235POPC   C1A 2813  24.872   1.805  18.667  0.0507  0.1212 -0.3571
  235POPC   D2A 2814  24.622   1.726  18.237  0.2807 -0.1292 -0.3584
  235POPC   C3A 2815  24.480   1.459  17.903 -0.3173 -0.3044  0.4144
  235POPC   C4A 2816  24.379   1.328  17.494  0.0676 -0.0115  0.0708
  235POPC   C1B 2817  25.036   1.370  18.511 -0.0525  0.2662 -0.0746
  235POPC   C2B 2818  24.923   1.402  18.083  0.0518 -0.2096  0.1788
  235POPC   C3B 2819  24.936   1.723  17.764 -0.0817 -0.2336  0.0621
  235POPC   C4B 2820  24.727   1.681  17.350 -0.1482 -0.1660 -0.1440
  236POPC   NC3 2821  10.368  13.832  19.289 -0.1523  0.0389  0.0768
  236POPC   PO4 2822  10.698  13.710  19.414  0.2378 -0.1173 -0.1056
  236POPC   GL1 2823  10.723  14.037  19.068 -0.4684  0.1895  0.2937
  236POPC   GL2 2824  10.652  13.896  18.801 -0.0113 -0.1750  0.0972
  236POPC   C1A 2825  10.577  14.394  18.796  0.1677 -0.0066 -0.1465
  236POPC   D2A 2826  10.442  14.541  18.417 -0.2600  0.0420 -0.0982
  236POPC   C3A 2827  10.642  14.635  17.999  0.0745  0.2093  0.1890
  236POPC   C4A 2828  10.852  14.860  17.636 -0.2378 -0.0567 -0.0197
  236POPC   C1B 2829  10.975  13.804  18.483 -0.1256  0.0702 -0.0506
  236POPC   C2B 2830  11.101  13.892  18.079  0.1766 -0.1617  0.2397
  236POPC   C3B 2831  11.313  13.793  17.703 -0.0270 -0.0558 -0.0825
  236POPC   C4B 2832  11.254  14.078  17.336 -0.1615  0.2827 -0.3244
  237POPC   NC3 2833  14.052  29.747  19.376  0.2432  0.6332  0.1802
  237POPC   PO4 2834  13.863  30.113  19.318 -0.1391  0.1802 -0.0505
  237POPC   GL1 2835  14.252  30.139  19.117  0.1325 -0.1451 -0.0564
  237POPC   GL2 2836  14.297  29.918  19.035 -0.0857 -0.1777 -0.1225
  237POPC   C1A 2837  14.316  30.318  18.679  0.0135  0.3019 -0.0965
  237POPC   D2A 2838  14.285  30.113  18.313  0.0177  0.2120 -0.0977
  237POPC   C3A 2839  14.423  30.230  17.880 -0.1992  0.1627 -0.3390
  237POPC   C4A 2840  14.401  30.433  17.456  0.0291 -0.1589 -0.0495
  237POPC   C1B 2841  14.094  29.774  18.623  0.0492 -0.2533  0.2678
  237POPC   C2B 2842  14.007  29.764  18.191 -0.4978  0.0271  0.0158
  237POPC   C3B 2843  13.836  29.464  17.883  0.0548  0.0151 -0.3121
  237POPC   C4B 2844  13.775  29.322  17.427  0.4880 -0.2160 -0.2338
  238POPC   NC3 2845  19.085  20.227  19.561  0.3136 -0.0711 -0.0881
  238POPC   PO4 2846  18.768  20.389  19.395  0.0274  0.1427 -0.0013
  238POPC   GL1 2847  18.837  20.160  19.074 -0.0891 -0.1695  0.0148
  238POPC   GL2 2848  19.177  20.193  18.974  0.2183  0.1338  0.2541
  238POPC   C1A 2849  18.681  19.900  18.721  0.0602  0.0793  0.1655
  238POPC   D2A 2850  18.526  19.514  18.507 -0.2695 -0.1619  0.1377
  238POPC   C3A 2851  18.350  19.341  18.096  0.2809  0.2996  0.2814
  238POPC   C4A 2852  18.125  19.417  17.663  0.2435  0.0428  0.1326
  238POPC   C1B 2853  19.058  20.203  18.535 -0.0959 -0.1053  0.2013
  238POPC   C2B 2854  18.729  20.039  18.268 -0.2849  0.2107 -0.0546
  238POPC   C3B 2855  18.505  19.779  17.884 -0.2264 -0.1648  0.1287
  238POPC   C4B 2856  18.522  19.621  17.458 -0.0225 -0.2716  0.0038
  239POPC   NC3 2857   5.802   1.092  19.492 -0.0310 -0.1551  0.2277
  239POPC   PO4 2858   5.688   0.709  19.499 -0.0097 -0.2161 -0.4307
  239POPC   GL1 2859   5.929   0.720  19.188 -0.2951 -0.1168 -0.2611
  239POPC   GL2 2860   5.738   0.838  19.027 -0.1114 -0.1326 -0.2764
  239POPC   C1A 2861   6.109   0.614  18.764 -0.0513 -0.0038 -0.2887
  239POPC   D2A 2862   5.945   0.424  18.355 -0.4366 -0.2790 -0.0325
  239POPC   C3A 2863   6.026   0.511  17.946 -0.6897  0.1778  0.0155
  239POPC   C4A 2864   6.326   0.641  17.587 -0.1849  0.0641 -0.2613
  239POPC   C1B 2865   5.585   0.723  18.597  0.3370 -0.0363  0.1263
  239POPC   C2B 2866   5.566   0.741  18.158  0.3096 -0.0618  0.1860
  239POPC   C3B 2867   5.534   0.544  17.735  0.1366 -0.0325  0.0240
  239POPC   C4B 2868   5.297   0.287  17.440  0.1560 -0.0148 -0.1013
  240POPC   NC3 2869   4.103  17.020  19.025  0.0112  0.1392 -0.0671
  240POPC   PO4 2870   4.156  17.400  19.068 -0.0418 -0.4722  0.3925
  240POPC   GL1 2871   4.090  17.656  18.773 -0.0437 -0.0839  0.0969
  240POPC   GL2 2872   4.155  17.907  18.921 -0.0046 -0.0329 -0.2701
  240POPC   C1A 2873   4.201  17.774  18.323  0.4635  0.1132 -0.4162
  240POPC   D2A 2874   4.215  17.835  17.827 -0.2749  0.1878 -0.0637
  240POPC   C3A 2875   4.054  18.132  17.516 -0.1909 -0.1567  0.1085
  240POPC   C4A 2876   3.884  18.436  17.263  0.2810  0.1261 -0.2378
  240POPC   C1B 2877   4.441  18.124  18.654 -0.2892  0.1947 -0.1198
  240POPC   C2B 2878   4.590  18.122  18.145  0.1491  0.4055 -0.2365
  240POPC   C3B 2879   4.604  18.197  17.668 -0.3000 -0.0981  0.1208
  240POPC   C4B 2880   4.911  18.467  17.473  0.3108  0.0234  0.1591
  241POPC   NC3 2881  13.455   0.408  18.778  0.1335  0.3196 -0.0119
  241POPC   PO4 2882  13.287   0.141  18.573  0.0334  0.1003 -0.1934
  241POPC   GL1 2883  13.268   0.278  18.247  0.0942 -0.1187  0.2972
  241POPC   GL2 2884  13.026   0.098  18.127 -0.0250 -0.1032 -0.1336
  241POPC   C1A 2885  13.317   0.331  17.785 -0.1878 -0.0355  0.1049
  241POPC   D2A 2886  13.210   0.272  17.355 -0.3500  0.0926 -0.0633
  241POPC   C3A 2887  13.526   0.381  17.094 -0.1236 -0.1407  0.6064
  241POPC   C4A 2888  13.606   0.813  16.872  0.1167  0.6706  0.2431
  241POPC   C1B 2889  13.234  -0.244  17.870  0.0887 -0.1652 -0.0859
  241POPC   C2B 2890  13.591  -0.306  17.626 -0.0782 -0.2895  0.0826
  241POPC   C3B 2891  13.871  -0.427  17.303  0.0507 -0.0241 -0.2746
  241POPC   C4B 2892  14.008  -0.479  16.895 -0.2530  0.0258  0.2020
  242POPC   NC3 2893   5.584   8.432  19.049 -0.2324 -0.1566  0.1260
  242POPC   PO4 2894   5.868   8.708  19.073 -0.1069  0.0800 -0.0351
  242POPC   GL1 2895   5.948   8.636  18.663 -0.0092  0.0367 -0.1879
  242POPC   GL2 2896   5.692   8.558  18.476 -0.1437 -0.0514 -0.2122
  242POPC   C1A 2897   6.111   8.769  18.235 -0.0780  0.3162  0.0260
  242POPC   D2A 2898   6.037   9.026  17.836  0.4218  0.5128  0.0842
  242POPC   C3A 2899   5.761   8.979  17.477 -0.0559  0.0120 -0.1732
  242POPC   C4A 2900   5.425   9.038  17.126 -0.2547  0.0118 -0.3164
  242POPC   C1B 2901   5.803   8.252  18.157 -0.0452 -0.0759  0.0768
  242POPC   C2B 2902   5.992   8.131  17.749  0.0398  0.1725 -0.1638
  242POPC   C3B 2903   5.766   8.278  17.326 -0.0526  0.0921 -0.0839
  242POPC   C4B 2904   5.789   8.623  17.004 -0.1435 -0.1093 -0.1277
  243POPC   NC3 2905   9.751  29.677  18.805 -0.1347 -0.0246  0.0714
  243POPC   PO4 2906   9.562  29.932  19.075 -0.1509 -0.0505 -0.0089
  243POPC   GL1 2907   9.694  30.163  18.833 -0.3392 -0.0450 -0.0557
  243POPC   GL2 2908   9.956  30.216  18.840 -0.2167 -0.0543  0.1514
  243POPC   C1A 2909   9.660  30.313  18.384 -0.2671  0.0805 -0.3110
  243POPC   D2A 2910   9.715  30.143  17.968 -0.1644  0.0245 -0.0965
  243POPC   C3A 2911   9.850  30.310  17.553  0.0582  0.2246  0.0597
  243POPC   C4A 2912   9.870  30.504  17.121 -0.0585  0.0043 -0.1173
  243POPC   C1B 2913  10.124  30.023  18.462 -0.2626  0.2811 -0.1790
  243POPC   C2B 2914  10.185  29.948  18.012  0.0931 -0.1669  0.1781
  243POPC   C3B 2915  10.046  29.772  17.529  0.0826 -0.0541 -0.0498
  243POPC   C4B 2916  10.008  29.785  17.062  0.0247  0.1656 -0.3208
  244POPC   NC3 2917  16.174   4.506  19.036 -0.3453 -0.1818 -0.2701
  244POPC   PO4 2918  16.484   4.614  19.325 -0.1606 -0.0319 -0.1560
  244POPC   GL1 2919  16.369   4.934  19.032  0.0653 -0.2058  0.0075
  244POPC   GL2 2920  16.653   5.019  19.053 -0.0225  0.2309  0.0414
  244POPC   C1A 2921  16.505   4.854  18.547  0.1295  0.0264 -0.3286
  244POPC   D2A 2922  16.880   4.972  18.258 -0.2271 -0.0094  0.2298
  244POPC   C3A 2923  17.161   4.753  17.951 -0.0248 -0.2906 -0.2099
  244POPC   C4A 2924  17.483   4.684  17.606 -0.0535  0.0190  0.2038
  244POPC   C1B 2925  16.830   5.193  18.660 -0.0144  0.0619 -0.1695
  244POPC   C2B 2926  17.212   5.219  18.490 -0.1668 -0.3735 -0.4040
  244POPC   C3B 2927  17.437   5.218  18.047  0.0409 -0.0662  0.0187
  244POPC   C4B 2928  17.320   5.136  17.635 -0.1530  0.3130  0.0580
  245POPC   NC3 2929  16.904   3.452  19.711  0.1785 -0.3550 -0.2434
  245POPC   PO4 2930  16.613   3.262  19.513 -0.0416 -0.3014 -0.2101
  245POPC   GL1 2931  16.485   3.218  19.157 -0.1840 -0.1155  0.0915
  245POPC   GL2 2932  16.212   3.108  19.205  0.1656  0.1646 -0.4622
  245POPC   C1A 2933  16.672   3.473  18.829 -0.0131 -0.0130 -0.2660
  245POPC   D2A 2934  16.843   3.325  18.429 -0.2239  0.0523  0.0559
  245POPC   C3A 2935  16.713   3.522  18.017  0.1076  0.3135  0.1467
  245POPC   C4A 2936  16.672   3.259  17.610  0.1782  0.1464 -0.0989
  245POPC   C1B 2937  16.174   3.288  18.828  0.0676 -0.1711 -0.0278
  245POPC   C2B 2938  16.211   3.457  18.388 -0.2973 -0.1500  0.1055
  245POPC   C3B 2939  16.238   3.517  17.942  0.2585 -0.1375  0.0377
  245POPC   C4B 2940  16.343   3.844  17.654  0.0142 -0.1316  0.0962
  246POPC   NC3 2941  23.179   1.995  19.435  0.0321 -0.0385 -0.1069
  246POPC   PO4 2942  23.315   1.874  19.104  0.2378 -0.0739  0.0344
  246POPC   GL1 2943  23.310   1.850  18.704  0.3321 -0.0159  0.2804
  246POPC   GL2 2944  23.531   1.675  18.681 -0.2880 -0.0080  0.0346
  246POPC   C1A 2945  23.536   1.863  18.268  0.1440  0.1196  0.0480
  246POPC   D2A 2946  23.389   1.995  17.871  0.2926  0.0525 -0.1355
  246POPC   C3A 2947  23.209   2.450  17.989  0.1680 -0.1281  0.2994
  246POPC   C4A 2948  23.092   2.790  18.269 -0.2077 -0.2062 -0.1480
  246POPC   C1B 2949  23.181   1.573  18.373  0.0041 -0.0211  0.0608
  246POPC   C2B 2950  23.111   1.612  17.979 -0.0679  0.3136 -0.1462
  246POPC   C3B 2951  23.001   1.654  17.532  0.1292 -0.1677 -0.0108
  246POPC   C4B 2952  22.847   1.630  17.104 -0.2047 -0.2072 -0.0803
  247POPC   NC3 2953  19.367   4.290  19.157  0.0523  0.0476  0.1964
  247POPC   PO4 2954  19.244   4.628  19.324 -0.0605 -0.0441 -0.1381
  247POPC   GL1 2955  19.365   4.748  18.957 -0.3378  0.0790  0.1567
  247POPC   GL2 2956  19.529   4.971  19.035  0.2694  0.1643  0.4008
  247POPC   C1A 2957  19.421   4.896  18.502 -0.0147  0.0596  0.0513
  247POPC   D2A 2958  19.463   5.087  18.032  0.0246  0.0627 -0.0302
  247POPC   C3A 2959  19.485   5.248  17.594  0.2121 -0.2088  0.0967
  247POPC   C4A 2960  19.625   5.017  17.256 -0.0684 -0.0051 -0.1144
  247POPC   C1B 2961  19.820   5.104  18.666  0.0254 -0.2728 -0.1512
  247POPC   C2B 2962  19.908   5.326  18.240  0.0969  0.0837  0.0570
  247POPC   C3B 2963  19.919   5.286  17.822 -0.0980  0.2291 -0.6725
  247POPC   C4B 2964  19.951   5.481  17.438  0.0758  0.0807 -0.0354
  248POPC   NC3 2965  22.595  21.810  18.912  0.2360  0.2010  0.2807
  248POPC   PO4 2966  22.802  22.128  18.960  0.1197  0.0966 -0.0146
  248POPC   GL1 2967  23.001  22.036  18.656  0.1372  0.0535  0.0039
  248POPC   GL2 2968  23.246  21.910  18.774  0.2980  0.1987 -0.0909
  248POPC   C1A 2969  22.939  21.926  18.184  0.0384 -0.3069  0.0205
  248POPC   D2A 2970  22.906  22.090  17.770 -0.1333 -0.1971  0.0554
  248POPC   C3A 2971  22.990  21.706  17.511  0.4387  0.0561 -0.1551
  248POPC   C4A 2972  23.320  21.422  17.298  0.1098 -0.1191 -0.0197
  248POPC   C1B 2973  23.463  22.208  18.468 -0.2847 -0.2606  0.1788
  248POPC   C2B 2974  23.643  22.155  18.011 -0.0986  0.5500  0.0168
  248POPC   C3B 2975  23.975  21.943  17.799  0.2975  0.2388 -0.2314
  248POPC   C4B 2976  24.238  22.049  17.393  0.2211  0.1057  0.1177
  249POPC   NC3 2977   8.111  24.921  19.205  0.0659  0.0831  0.1487
  249POPC   PO4 2978   8.271  24.601  19.024 -0.1889  0.0962  0.1298
  249POPC   GL1 2979   8.138  24.446  18.630 -0.0801 -0.1623 -0.0446
  249POPC   GL2 2980   8.044  24.154  18.610  0.0531 -0.3571 -0.1698
  249POPC   C1A 2981   8.339  24.489  18.209  0.1431 -0.4064 -0.2273
  249POPC   D2A 2982   8.457  24.672  17.802 -0.2067  0.0123 -0.4413
  249POPC   C3A 2983   8.272  24.466  17.403 -0.0941 -0.2052 -0.3690
  249POPC   C4A 2984   8.218  24.252  17.040  0.1582 -0.0553 -0.1659
  249POPC   C1B 2985   7.852  24.085  18.243  0.1055 -0.1537  0.2113
  249POPC   C2B 2986   7.792  23.824  17.892 -0.1346  0.0527 -0.2928
  249POPC   C3B 2987   7.750  23.395  17.783  0.1329  0.0535 -0.2435
  249POPC   C4B 2988   7.654  22.973  17.861 -0.1453  0.0298 -0.0770
  250POPC   NC3 2989   1.044  12.557  19.640 -0.0794 -0.1263  0.0735
  250POPC   PO4 2990   1.239  12.699  19.375 -0.0459 -0.2295 -0.2076
  250POPC   GL1 2991   1.257  12.480  19.054  0.0936  0.1076  0.0760
  250POPC   GL2 2992   1.036  12.616  18.902  0.1219  0.0679 -0.3168
  250POPC   C1A 2993   1.388  12.094  18.837  0.1961  0.2689 -0.0730
  250POPC   D2A 2994   1.250  12.069  18.368 -0.0031  0.2230  0.3618
  250POPC   C3A 2995   1.583  12.018  18.135  0.1104  0.1368  0.2382
  250POPC   C4A 2996   1.637  11.887  17.743 -0.0724  0.0202 -0.1518
  250POPC   C1B 2997   0.989  13.018  18.745  0.0306 -0.0425 -0.0877
  250POPC   C2B 2998   0.704  13.419  18.753 -0.2108 -0.1127  0.0660
  250POPC   C3B 2999   0.659  13.863  18.736 -0.1493  0.1498 -0.0514
  250POPC   C4B 3000   0.878  14.225  18.517  0.1084  0.0067  0.1069
  251POPC   NC3 3001   1.369  26.259  20.040 -0.3168  0.0771 -0.0832
  251POPC   PO4 3002   1.305  26.127  19.699  0.2506  0.0968 -0.1048
  251POPC   GL1 3003   1.296  26.188  19.265  0.1025 -0.1669 -0.1025
  251POPC   GL2 3004   1.412  25.986  19.044 -0.0609  0.1019  0.1099
  251POPC   C1A 3005   1.012  26.279  18.882 -0.3550 -0.1525 -0.0476
  251POPC   D2A 3006   0.558  26.250  19.035  0.0613  0.2160 -0.3006
  251POPC   C3A 3007   0.193  25.945  18.871 -0.2833  0.1838  0.0109
  251POPC   C4A 3008   0.002  25.765  18.494  0.0485  0.2419 -0.0609
  251POPC   C1B 3009   1.274  25.891  18.614 -0.1298  0.1674  0.2330
  251POPC   C2B 3010   1.211  25.994  18.203  0.1002 -0.0199  0.1416
  251POPC   C3B 3011   1.094  26.042  17.756 -0.0672 -0.2716  0.0912
  251POPC   C4B 3012   1.186  26.061  17.308  0.2134 -0.0792 -0.1774
  252POPC   NC3 3013  11.785  12.994  19.435 -0.1827 -0.1725  0.0095
  252POPC   PO4 3014  11.895  13.316  19.301 -0.2211 -0.3190 -0.0885
  252POPC   GL1 3015  11.885  13.346  18.945  0.2858  0.3675  0.1366
  252POPC   GL2 3016  11.729  13.051  18.896  0.0198  0.2267  0.0603
  252POPC   C1A 3017  12.139  13.171  18.636  0.1579 -0.0416  0.1500
  252POPC   D2A 3018  12.241  12.801  18.355  0.5285 -0.2830  0.4196
  252POPC   C3A 3019  12.354  12.461  18.597 -0.0474 -0.0726  0.0490
  252POPC   C4A 3020  12.562  12.084  18.383 -0.0211  0.0344 -0.1696
  252POPC   C1B 3021  11.650  12.755  18.475 -0.0808 -0.2501 -0.1407
  252POPC   C2B 3022  11.670  12.839  18.057 -0.1822 -0.0073 -0.1666
  252POPC   C3B 3023  11.913  12.902  17.728 -0.1553  0.0266 -0.0454
  252POPC   C4B 3024  12.023  12.882  17.306 -0.1453  0.0990  0.1235
  253POPC   NC3 3025   0.270   3.288  18.784 -0.1484 -0.2016  0.0697
  253POPC   PO4 3026   0.559   3.570  18.836 -0.0531 -0.2436  0.0215
  253POPC   GL1 3027   0.636   3.577  18.390  0.4398  0.0356  0.0878
  253POPC   GL2 3028   0.395   3.486  18.318  0.1925  0.1110 -0.0810
  253POPC   C1A 3029   0.749   3.580  17.926 -0.0156 -0.3278  0.1819
  253POPC   D2A 3030   0.922   3.755  17.525 -0.2230  0.0527  0.1781
  253POPC   C3A 3031   1.238   3.488  17.252 -0.2636  0.2432  0.2699
  253POPC   C4A 3032   1.499   3.150  16.988 -0.1594 -0.0688  0.1460
  253POPC   C1B 3033   0.220   3.325  17.963  0.1332  0.2101  0.2938
  253POPC   C2B 3034   0.320   3.481  17.520  0.2104 -0.2318 -0.0343
  253POPC   C3B 3035   0.272   3.373  17.084 -0.0664 -0.2051  0.0763
  253POPC   C4B 3036   0.327   3.581  16.638  0.0618  0.2364 -0.0138
  254POPC   NC3 3037  21.784  26.151  19.300 -0.1172 -0.2595 -0.1321
  254POPC   PO4 3038  21.522  26.479  19.299  0.0960  0.0913  0.0817
  254POPC   GL1 3039  21.471  26.739  18.994  0.0088  0.2522  0.5669
  254POPC   GL2 3040  21.659  26.887  18.867 -0.0445 -0.2340 -0.0225
  254POPC   C1A 3041  21.088  26.844  18.736 -0.0625  0.2397  0.0823
  254POPC   D2A 3042  20.700  27.072  18.566 -0.3970 -0.4374  0.1383
  254POPC   C3A 3043  20.752  26.951  18.140  0.0941 -0.1761  0.1550
  254POPC   C4A 3044  20.915  27.096  17.743  0.0371 -0.0243 -0.0487
  254POPC   C1B 3045  21.655  26.827  18.382  0.0085  0.2095 -0.2660
  254POPC   C2B 3046  21.517  26.776  17.987  0.4255 -0.0659 -0.1919
  254POPC   C3B 3047  21.193  26.655  17.672 -0.0686  0.1706 -0.0188
  254POPC   C4B 3048  21.127  26.916  17.286  0.2139 -0.0172 -0.0829
  255POPC   NC3 3049  19.001  20.708  19.059 -0.2500 -0.1425  0.1304
  255POPC   PO4 3050  19.393  20.833  19.018  0.2424 -0.1435  0.1820
  255POPC   GL1 3051  19.352  20.642  18.757 -0.0173  0.2162 -0.1162
  255POPC   GL2 3052  19.544  20.441  18.691  0.4320  0.1633  0.1495
  255POPC   C1A 3053  19.260  20.659  18.320  0.1863  0.3292  0.1993
  255POPC   D2A 3054  19.424  20.727  17.905  0.1517  0.0287  0.2210
  255POPC   C3A 3055  19.290  21.038  17.572  0.2496 -0.1670  0.0988
  255POPC   C4A 3056  19.090  21.191  17.203 -0.2333  0.0370  0.3955
  255POPC   C1B 3057  19.597  20.241  18.308  0.1855 -0.1303  0.1830
  255POPC   C2B 3058  19.394  19.977  18.033  0.0882 -0.4060 -0.2103
  255POPC   C3B 3059  19.554  19.546  18.088  0.3326 -0.1238  0.0387
  255POPC   C4B 3060  19.450  19.173  18.364 -0.0136 -0.1466 -0.1041
  256POPC   NC3 3061  13.320   1.038  19.008  0.0312 -0.3099 -0.0215
  256POPC   PO4 3062  13.657   0.879  18.933  0.1888  0.3075 -0.0605
  256POPC   GL1 3063  13.598   0.792  18.613  0.0109 -0.1193  0.0229
  256POPC   GL2 3064  13.869   0.686  18.485 -0.1839 -0.3711 -0.2511
  256POPC   C1A 3065  13.431   0.714  18.183 -0.0052 -0.4720  0.2074
  256POPC   D2A 3066  13.787   0.471  17.951  0.1745 -0.1868  0.0985
  256POPC   C3A 3067  13.588   0.682  17.553 -0.0428  0.1952 -0.0548
  256POPC   C4A 3068  13.198   0.788  17.336 -0.0104 -0.2079  0.0483
  256POPC   C1B 3069  13.909   0.912  18.117 -0.1981 -0.3072  0.2758
  256POPC   C2B 3070  13.991   1.119  17.743  0.2983  0.2468 -0.3262
  256POPC   C3B 3071  13.851   1.089  17.273  0.0197 -0.0500 -0.1329
  256POPC   C4B 3072  14.071   1.216  16.864 -0.0664  0.2215  0.4604
  257POPC   NC3 3073   0.153  30.067  18.974 -0.0925 -0.1245 -0.0267
  257POPC   PO4 3074  -0.023  30.421  19.008  0.1025 -0.0273  0.0083
  257POPC   GL1 3075  -0.063  30.378  18.693  0.5882  0.0421 -0.0650
  257POPC   GL2 3076  -0.237  30.586  18.550 -0.0920  0.0444  0.2370
  257POPC   C1A 3077   0.190  30.528  18.322 -0.1019  0.1147 -0.1021
  257POPC   D2A 3078   0.098  30.823  18.066 -0.1264 -0.1609 -0.0473
  257POPC   C3A 3079   0.343  30.824  17.713 -0.1091  0.1278  0.0499
  257POPC   C4A 3080   0.142  30.993  17.305 -0.0279  0.0203 -0.0098
  257POPC   C1B 3081  -0.600  30.299  18.395 -0.0232 -0.2219 -0.0140
  257POPC   C2B 3082  -0.941  30.050  18.456 -0.0569  0.0037  0.0837
  257POPC   C3B 3083  -1.118  29.639  18.367 -0.0885 -0.1408 -0.2451
  257POPC   C4B 3084  -1.232  29.406  17.958 -0.1705  0.1395  0.1726
  258POPC   NC3 3085   7.222   1.560  19.656 -0.0770  0.1158 -0.2123
  258POPC   PO4 3086   7.377   1.297  19.453  0.1737  0.0594  0.2504
  258POPC   GL1 3087   7.587   1.133  19.130 -0.2439  0.0140  0.1462
  258POPC   GL2 3088   7.384   0.894  19.052  0.1045 -0.2835 -0.1650
  258POPC   C1A 3089   8.075   1.120  19.213 -0.4204  0.2250 -0.0287
  258POPC   D2A 3090   8.288   1.507  19.123 -0.0003 -0.3492 -0.1736
  258POPC   C3A 3091   8.555   1.363  18.788 -0.2218 -0.1475  0.3560
  258POPC   C4A 3092   8.677   1.128  18.389  0.1002 -0.1337  0.0645
  258POPC   C1B 3093   7.042   0.771  18.760  0.0987  0.0977 -0.3262
  258POPC   C2B 3094   6.936   0.499  18.397 -0.2999 -0.1910  0.0391
  258POPC   C3B 3095   6.861   0.390  18.006  0.1857  0.0306 -0.1662
  258POPC   C4B 3096   6.907   0.217  17.572 -0.2375  0.4640  0.0894
  259POPC   NC3 3097   7.470  25.386  19.064 -0.1301  0.2597  0.1048
  259POPC   PO4 3098   7.867  25.330  19.191  0.2860  0.0387  0.1802
  259POPC   GL1 3099   7.988  25.177  18.835  0.0424  0.0366  0.1490
  259POPC   GL2 3100   7.775  25.312  18.673  0.2900  0.0183 -0.0552
  259POPC   C1A 3101   8.025  25.015  18.391 -0.0105  0.2504  0.3342
  259POPC   D2A 3102   7.835  24.908  17.982  0.3636  0.0743 -0.0510
  259POPC   C3A 3103   7.930  24.437  17.873 -0.1768  0.0306 -0.0855
  259POPC   C4A 3104   8.226  24.044  17.857  0.4062  0.2400  0.0475
  259POPC   C1B 3105   7.735  25.408  18.195 -0.5793  0.1055 -0.2770
  259POPC   C2B 3106   8.032  25.517  17.882  0.0326  0.0278 -0.1226
  259POPC   C3B 3107   8.110  25.403  17.462 -0.0965  0.1776 -0.0470
  259POPC   C4B 3108   8.387  25.156  17.206  0.2797 -0.0902 -0.0032
  260POPC   NC3 3109  18.380   0.209  19.456 -0.1373  0.2698 -0.0793
  260POPC   PO4 3110  18.727   0.077  19.449 -0.0014 -0.3204  0.2445
  260POPC   GL1 3111  18.543  -0.148  19.130 -0.1655 -0.1630 -0.1639
  260POPC   GL2 3112  18.220  -0.151  19.071  0.0042  0.0454 -0.1990
  260POPC   C1A 3113  18.723  -0.299  18.766  0.0014  0.0909 -0.1135
  260POPC   D2A 3114  19.143  -0.441  18.711  0.0011 -0.2486  0.1730
  260POPC   C3A 3115  19.097  -0.308  18.196 -0.1488  0.0632  0.0477
  260POPC   C4A 3116  19.197  -0.291  17.738  0.0516 -0.3221 -0.0096
  260POPC   C1B 3117  18.229   0.163  18.780  0.1607  0.0097 -0.0162
  260POPC   C2B 3118  18.395   0.238  18.334  0.1930  0.0200  0.0742
  260POPC   C3B 3119  18.388   0.104  17.854  0.1095 -0.1756 -0.0594
  260POPC   C4B 3120  18.419  -0.131  17.496 -0.0373 -0.1847  0.0094
  261POPC   NC3 3121  10.256  28.822  18.967  0.0987  0.0399 -0.0052
  261POPC   PO4 3122  10.205  29.211  19.122 -0.0872  0.0799  0.3821
  261POPC   GL1 3123  10.155  29.434  18.886  0.2290 -0.0540  0.3817
  261POPC   GL2 3124  10.252  29.773  18.958  0.1580 -0.0977  0.4333
  261POPC   C1A 3125  10.531  29.506  18.654 -0.3204  0.0233 -0.0864
  261POPC   D2A 3126  10.845  29.391  18.369  0.0287 -0.2286  0.1248
  261POPC   C3A 3127  10.934  29.570  17.972  0.0459 -0.1857 -0.1956
  261POPC   C4A 3128  11.138  29.531  17.574 -0.0015 -0.4039 -0.2157
  261POPC   C1B 3129  10.552  29.997  18.770 -0.3259 -0.0985 -0.2541
  261POPC   C2B 3130  10.619  30.249  18.450 -0.0598  0.0758  0.2525
  261POPC   C3B 3131  10.469  30.359  18.029  0.0944  0.0364 -0.2766
  261POPC   C4B 3132  10.349  30.214  17.615 -0.0740 -0.2436 -0.1694
  262POPC   NC3 3133  17.951  29.940  19.310 -0.1029 -0.0600 -0.1753
  262POPC   PO4 3134  17.928  29.624  19.542  0.1636 -0.1414 -0.0354
  262POPC   GL1 3135  18.156  29.353  19.204 -0.0326 -0.0712 -0.0442
  262POPC   GL2 3136  18.225  29.556  19.080 -0.0517  0.1782  0.3863
  262POPC   C1A 3137  18.011  29.021  18.887 -0.2095  0.0275 -0.1675
  262POPC   D2A 3138  17.923  28.821  18.509  0.0675  0.0106 -0.2569
  262POPC   C3A 3139  17.995  28.941  18.078 -0.3115  0.0377 -0.1115
  262POPC   C4A 3140  17.878  28.752  17.636  0.0470 -0.2071 -0.0100
  262POPC   C1B 3141  18.058  29.462  18.669 -0.4340 -0.0515  0.1681
  262POPC   C2B 3142  18.101  29.370  18.210  0.1938 -0.0970 -0.1431
  262POPC   C3B 3143  17.922  29.338  17.769  0.0702  0.3126 -0.3107
  262POPC   C4B 3144  17.680  29.135  17.439 -0.1480 -0.1672 -0.1809
  263POPC   NC3 3145  16.617  10.254  18.999 -0.1003 -0.0576 -0.0010
  263POPC   PO4 3146  16.326  10.293  18.728 -0.2073  0.1261 -0.0282
  263POPC   GL1 3147  16.654  10.401  18.518 -0.3932 -0.1306 -0.2420
  263POPC   GL2 3148  16.709  10.155  18.323 -0.4409 -0.0652 -0.1104
  263POPC   C1A 3149  16.899  10.558  18.180 -0.3376 -0.0725 -0.3457
  263POPC   D2A 3150  16.908  10.631  17.723 -0.0114 -0.0532  0.0506
  263POPC   C3A 3151  17.246  10.850  17.429 -0.0858 -0.3331  0.1245
  263POPC   C4A 3152  17.112  11.161  17.134 -0.0313 -0.0365 -0.1415
  263POPC   C1B 3153  16.726  10.173  17.847 -0.2185  0.2080 -0.1816
  263POPC   C2B 3154  16.739  10.047  17.413 -0.0506  0.0463 -0.1547
  263POPC   C3B 3155  16.710   9.664  17.102 -0.0536  0.1539 -0.2885
  263POPC   C4B 3156  16.459   9.361  16.774 -0.3470 -0.0592  0.2883
  264POPC   NC3 3157  14.923  15.519  19.294  0.0461  0.1666  0.2409
  264POPC   PO4 3158  14.597  15.436  19.473  0.4142 -0.3498  0.0132
  264POPC   GL1 3159  14.434  15.541  19.079  0.1535 -0.0711 -0.2644
  264POPC   GL2 3160  14.595  15.361  18.882 -0.0537  0.2731  0.0182
  264POPC   C1A 3161  14.090  15.402  18.786  0.4178 -0.2103  0.2281
  264POPC   D2A 3162  14.009  15.091  18.557 -0.0297 -0.2387  0.1024
  264POPC   C3A 3163  14.139  14.954  18.135  0.0613 -0.1171  0.1553
  264POPC   C4A 3164  14.253  14.895  17.690 -0.0173 -0.0450 -0.3384
  264POPC   C1B 3165  14.700  15.331  18.456 -0.2768  0.1446 -0.0093
  264POPC   C2B 3166  14.648  15.104  18.030  0.3671  0.1986  0.1720
  264POPC   C3B 3167  14.826  14.892  17.617  0.0276 -0.0906 -0.0359
  264POPC   C4B 3168  15.095  14.666  17.325  0.0408  0.3962  0.3288
  265POPC   NC3 3169  20.584  14.834  18.787  0.0896  0.0932  0.1866
  265POPC   PO4 3170  20.514  15.233  18.808 -0.3806 -0.1045  0.1837
  265POPC   GL1 3171  20.608  15.214  18.384 -0.2040  0.1820  0.1188
  265POPC   GL2 3172  20.942  15.282  18.444 -0.0397  0.0791  0.1779
  265POPC   C1A 3173  20.533  15.238  17.940 -0.2441  0.0168  0.1854
  265POPC   D2A 3174  20.374  15.013  17.558  0.1674  0.1775  0.2842
  265POPC   C3A 3175  20.058  14.766  17.283 -0.1967 -0.3203 -0.1657
  265POPC   C4A 3176  19.717  14.542  17.063 -0.0579 -0.1655  0.1275
  265POPC   C1B 3177  21.014  15.491  18.015  0.0966  0.3473  0.2497
  265POPC   C2B 3178  20.911  15.239  17.597 -0.0677 -0.1865 -0.1753
  265POPC   C3B 3179  21.007  15.058  17.162  0.1862 -0.1731  0.0131
  265POPC   C4B 3180  21.150  15.058  16.675 -0.2457  0.1461  0.0304
  266POPC   NC3 3181  20.731   4.469  19.383  0.2865  0.0922  0.0185
  266POPC   PO4 3182  20.485   4.189  19.339  0.3698  0.2235  0.2937
  266POPC   GL1 3183  20.284   4.217  19.009 -0.2458  0.1991 -0.2147
  266POPC   GL2 3184  20.205   4.507  18.985  0.0304  0.0987 -0.3059
  266POPC   C1A 3185  20.330   4.110  18.535  0.0732  0.1294  0.1340
  266POPC   D2A 3186  20.516   4.052  18.145 -0.2740 -0.1369 -0.0387
  266POPC   C3A 3187  20.201   3.793  17.983  0.1803  0.2669 -0.0229
  266POPC   C4A 3188  19.875   3.643  17.700 -0.2727 -0.2393  0.3203
  266POPC   C1B 3189  19.936   4.670  18.567  0.0454 -0.1047  0.0377
  266POPC   C2B 3190  19.933   4.871  18.140  0.2036  0.0724 -0.1901
  266POPC   C3B 3191  19.884   4.765  17.700  0.0385 -0.2036 -0.2429
  266POPC   C4B 3192  19.639   4.536  17.407  0.0846  0.1106 -0.3480
  267POPC   NC3 3193  24.712   7.907  19.231  0.1848  0.1464 -0.1247
  267POPC   PO4 3194  24.420   8.127  19.292  0.1545  0.3201 -0.4088
  267POPC   GL1 3195  24.452   8.058  18.863  0.0128 -0.1664 -0.0894
  267POPC   GL2 3196  24.265   8.275  18.876 -0.1417 -0.0952  0.1018
  267POPC   C1A 3197  24.498   8.200  18.424 -0.1020  0.0587  0.0786
  267POPC   D2A 3198  24.265   8.108  18.036 -0.1639  0.3224 -0.2775
  267POPC   C3A 3199  24.149   8.281  17.670 -0.1303 -0.1862  0.0059
  267POPC   C4A 3200  24.237   8.473  17.219  0.0344 -0.0357 -0.3244
  267POPC   C1B 3201  24.002   8.279  18.456 -0.0582  0.1218  0.0218
  267POPC   C2B 3202  23.835   8.416  18.066 -0.0551  0.1625 -0.2482
  267POPC   C3B 3203  23.678   8.584  17.682 -0.0722 -0.3968  0.1033
  267POPC   C4B 3204  23.270   8.712  17.499  0.0023  0.0389  0.1362
  268POPC   NC3 3205   7.289   6.795  19.721 -0.0730 -0.0461 -0.1381
  268POPC   PO4 3206   7.348   7.165  19.581  0.0224 -0.1093 -0.1295
  268POPC   GL1 3207   7.561   7.118  19.241 -0.2332 -0.1945 -0.3611
  268POPC   GL2 3208   7.756   7.244  19.181  0.3265  0.1504  0.1028
  268POPC   C1A 3209   7.772   6.784  18.931  0.0384  0.1351  0.2711
  268POPC   D2A 3210   7.670   6.493  18.615  0.4095 -0.0970  0.2686
  268POPC   C3A 3211   7.952   6.247  18.320  0.2075  0.2216  0.0088
  268POPC   C4A 3212   8.112   6.295  17.891  0.0498  0.2519  0.0151
  268POPC   C1B 3213   7.748   7.258  18.730  0.1481 -0.2012  0.0234
  268POPC   C2B 3214   7.791   7.105  18.326  0.0456  0.0668  0.1449
  268POPC   C3B 3215   7.834   6.674  18.070 -0.1191  0.1758  0.0812
  268POPC   C4B 3216   7.538   6.341  18.030  0.0933  0.1937 -0.0424
  269POPC   NC3 3217  26.904  21.519  19.302  0.0211 -0.0871 -0.0794
  269POPC   PO4 3218  26.535  21.556  19.476  0.0644 -0.1455  0.2905
  269POPC   GL1 3219  26.522  21.876  19.183  0.2597 -0.0076  0.6765
  269POPC   GL2 3220  26.713  21.958  19.084 -0.0725 -0.2063 -0.0693
  269POPC   C1A 3221  26.256  21.899  18.824  0.0442 -0.2609 -0.0942
  269POPC   D2A 3222  26.168  21.894  18.370 -0.3073 -0.1200  0.1964
  269POPC   C3A 3223  26.101  21.976  17.903  0.0189  0.1413 -0.0235
  269POPC   C4A 3224  26.322  21.996  17.532  0.0680 -0.1293 -0.1351
  269POPC   C1B 3225  26.714  21.989  18.626  0.0653  0.4032 -0.0531
  269POPC   C2B 3226  26.738  21.966  18.181 -0.2716  0.1131 -0.1394
  269POPC   C3B 3227  26.808  22.237  17.849 -0.0894  0.1386  0.0181
  269POPC   C4B 3228  26.936  22.377  17.430  0.1384 -0.0292  0.2730
  270POPC   NC3 3229   9.030  31.690  19.719 -0.0142  0.1632 -0.1484
  270POPC   PO4 3230   9.206  31.354  19.693 -0.0680  0.2179 -0.2078
  270POPC   GL1 3231   9.345  31.543  19.378 -0.2312  0.0881  0.2000
  270POPC   GL2 3232   9.617  31.436  19.403  0.1031  0.0865  0.2920
  270POPC   C1A 3233   9.151  31.682  18.929  0.1277 -0.1497 -0.1595
  270POPC   D2A 3234   8.976  31.524  18.505  0.0252  0.0497 -0.0978
  270POPC   C3A 3235   9.305  31.371  18.194  0.1167  0.0581  0.1047
  270POPC   C4A 3236   9.453  31.709  17.856 -0.0772  0.1088 -0.0107
  270POPC   C1B 3237   9.722  31.404  18.968 -0.1023 -0.2115  0.1656
  270POPC   C2B 3238   9.568  31.622  18.554  0.2768 -0.0369 -0.1820
  270POPC   C3B 3239   9.309  31.901  18.296 -0.0533  0.1625 -0.0555
  270POPC   C4B 3240   9.214  32.149  17.899  0.1244  0.2388  0.0346
  271POPC   NC3 3241  24.423  18.557  19.811 -0.0651  0.3220 -0.0694
  271POPC   PO4 3242  24.702  18.714  19.537  0.1772 -0.0902 -0.0533
  271POPC   GL1 3243  24.435  18.607  19.265 -0.0890  0.3248 -0.2078
  271POPC   GL2 3244  24.358  18.322  19.304 -0.0676  0.0615 -0.0056
  271POPC   C1A 3245  24.079  18.781  18.997 -0.0373  0.0007 -0.0601
  271POPC   D2A 3246  23.652  18.746  18.800  0.0785 -0.5251 -0.2479
  271POPC   C3A 3247  23.245  18.715  18.720 -0.2123 -0.1104  0.0447
  271POPC   C4A 3248  22.828  18.460  18.849  0.1403  0.0817 -0.1396
  271POPC   C1B 3249  23.938  18.267  19.124 -0.3153 -0.0330  0.1782
  271POPC   C2B 3250  23.774  17.915  18.837 -0.1921  0.1363  0.0605
  271POPC   C3B 3251  23.629  17.874  18.377  0.1591 -0.3333  0.3054
  271POPC   C4B 3252  23.688  17.708  17.944 -0.0250  0.0342  0.0109
  272POPC   NC3 3253  18.701  27.784  19.693 -0.0458  0.2059 -0.0857
  272POPC   PO4 3254  19.090  27.709  19.578 -0.0463  0.1238 -0.0163
  272POPC   GL1 3255  18.861  27.587  19.266 -0.3484 -0.2289  0.1823
  272POPC   GL2 3256  18.669  27.758  19.195 -0.0505 -0.4131  0.0036
  272POPC   C1A 3257  19.098  27.696  18.865  0.1393  0.0185  0.2084
  272POPC   D2A 3258  19.103  28.033  18.558 -0.0401  0.0861 -0.1330
  272POPC   C3A 3259  19.075  27.975  18.079 -0.2102 -0.2668  0.1403
  272POPC   C4A 3260  18.951  27.970  17.612  0.1514  0.1545  0.1427
  272POPC   C1B 3261  18.574  27.557  18.808  0.0107 -0.0638  0.1364
  272POPC   C2B 3262  18.566  27.241  18.490  0.1283 -0.0987  0.1577
  272POPC   C3B 3263  18.877  27.097  18.080  0.1570  0.3302  0.0226
  272POPC   C4B 3264  18.936  26.733  17.804 -0.1551 -0.2607 -0.0062
  273POPC   NC3 3265  25.831   4.908  19.203 -0.2501  0.1400  0.0485
  273POPC   PO4 3266  25.700   4.575  19.210  0.0102 -0.0500 -0.0495
  273POPC   GL1 3267  25.913   4.483  18.920  0.2661 -0.2130  0.0246
  273POPC   GL2 3268  26.129   4.321  18.766 -0.2242 -0.0992 -0.1397
  273POPC   C1A 3269  26.075   4.751  18.546 -0.0382 -0.0327  0.1532
  273POPC   D2A 3270  26.118   5.085  18.170  0.4437 -0.1832  0.2107
  273POPC   C3A 3271  26.381   4.991  17.746  0.2236  0.1674 -0.0333
  273POPC   C4A 3272  26.674   4.671  17.669 -0.1655 -0.0759  0.0138
  273POPC   C1B 3273  25.985   4.350  18.326 -0.0972  0.0131 -0.0695
  273POPC   C2B 3274  25.834   4.317  17.883 -0.0697 -0.0038  0.0866
  273POPC   C3B 3275  25.726   4.584  17.526  0.1805 -0.1815  0.1886
  273POPC   C4B 3276  25.553   4.752  17.145  0.2954  0.0741 -0.0451
  274POPC   NC3 3277  16.170  12.749  19.761 -0.1212  0.2153  0.0110
  274POPC   PO4 3278  15.826  12.745  19.509  0.1527 -0.3090  0.1751
  274POPC   GL1 3279  15.713  13.005  19.247 -0.1021 -0.1324  0.0958
  274POPC   GL2 3280  15.961  13.177  19.096 -0.1438 -0.1531  0.1747
  274POPC   C1A 3281  15.482  12.987  18.853  0.0542  0.1530  0.1193
  274POPC   D2A 3282  15.415  12.590  18.617 -0.1443 -0.2089  0.0154
  274POPC   C3A 3283  15.213  12.724  18.194 -0.1184 -0.2058  0.0736
  274POPC   C4A 3284  15.030  12.571  17.808  0.1994 -0.2808 -0.0350
  274POPC   C1B 3285  15.811  13.349  18.756  0.0851  0.0096  0.1759
  274POPC   C2B 3286  15.942  13.238  18.314 -0.2689  0.2192 -0.4832
  274POPC   C3B 3287  16.019  13.269  17.878  0.2258 -0.1310 -0.0275
  274POPC   C4B 3288  16.246  13.148  17.455  0.2660  0.1918 -0.1190
  275POPC   NC3 3289   3.818  17.452  19.462  0.1048 -0.1566  0.0329
  275POPC   PO4 3290   3.697  17.713  19.199 -0.0825  0.2595  0.0991
  275POPC   GL1 3291   3.632  17.969  18.875 -0.0067  0.3345  0.1854
  275POPC   GL2 3292   3.661  17.762  18.613 -0.1235 -0.0736 -0.0843
  275POPC   C1A 3293   3.904  18.147  18.498 -0.2445  0.0382 -0.0026
  275POPC   D2A 3294   3.974  18.202  18.049  0.2096  0.1091  0.1906
  275POPC   C3A 3295   4.251  18.542  17.945  0.0717 -0.0675 -0.1023
  275POPC   C4A 3296   4.697  18.583  17.935  0.2880  0.1162  0.2095
  275POPC   C1B 3297   3.730  17.815  18.119 -0.3207 -0.2307  0.2777
  275POPC   C2B 3298   3.724  17.724  17.650 -0.3633  0.0303  0.1542
  275POPC   C3B 3299   3.617  17.977  17.270 -0.3998  0.1398 -0.1677
  275POPC   C4B 3300   3.570  18.168  16.867 -0.3132  0.1134  0.0777
  276POPC   NC3 3301   8.748  10.699  19.065 -0.1376  0.0094  0.0989
  276POPC   PO4 3302   8.425  10.450  18.993  0.1253 -0.2461 -0.0741
  276POPC   GL1 3303   8.517  10.495  18.668 -0.1691  0.0031  0.4413
  276POPC   GL2 3304   8.732  10.755  18.604  0.0708 -0.0495 -0.3660
  276POPC   C1A 3305   8.499  10.583  18.199  0.0096 -0.1401 -0.0206
  276POPC   D2A 3306   8.238  10.836  17.858 -0.2059 -0.5894  0.2996
  276POPC   C3A 3307   8.508  11.032  17.545 -0.1052  0.0272  0.1498
  276POPC   C4A 3308   8.485  11.154  17.126 -0.0177  0.0214  0.1782
  276POPC   C1B 3309   9.020  10.655  18.261  0.0871  0.0126  0.2408
  276POPC   C2B 3310   9.332  10.572  17.957 -0.0075  0.0314 -0.1255
  276POPC   C3B 3311   9.400  10.675  17.487  0.0815 -0.1842  0.1719
  276POPC   C4B 3312   9.602  10.495  17.100 -0.0126  0.0240 -0.1058
  277POPC   NC3 3313   7.708  16.496  20.172 -0.0995 -0.1299 -0.2194
  277POPC   PO4 3314   7.656  16.351  19.837  0.0110  0.1276 -0.0644
  277POPC   GL1 3315   7.573  16.642  19.577  0.1664  0.1790 -0.1192
  277POPC   GL2 3316   7.804  16.766  19.487 -0.0883  0.1734  0.2525
  277POPC   C1A 3317   7.318  16.424  19.203  0.1631  0.0102 -0.0659
  277POPC   D2A 3318   7.227  16.181  18.800 -0.0515  0.0554 -0.0638
  277POPC   C3A 3319   7.163  16.560  18.510 -0.1663  0.0723  0.3298
  277POPC   C4A 3320   7.043  16.951  18.311 -0.3024 -0.1154  0.2152
  277POPC   C1B 3321   7.699  16.689  19.027 -0.2630 -0.1486  0.1649
  277POPC   C2B 3322   7.674  16.372  18.640 -0.0036  0.2394  0.0559
  277POPC   C3B 3323   7.451  16.181  18.296 -0.1068  0.0412 -0.0556
  277POPC   C4B 3324   7.098  16.063  18.032  0.0153 -0.1655  0.2894
  278POPC   NC3 3325  22.344  28.902  19.104 -0.0709  0.4155  0.3220
  278POPC   PO4 3326  22.162  28.529  18.998  0.2400 -0.0785 -0.1114
  278POPC   GL1 3327  22.222  28.412  18.625  0.4250  0.2342  0.6213
  278POPC   GL2 3328  22.091  28.710  18.536  0.3698 -0.1854 -0.2925
  278POPC   C1A 3329  21.805  28.294  18.452  0.0147  0.3755 -0.0767
  278POPC   D2A 3330  21.457  28.094  18.202 -0.1835  0.2749 -0.3494
  278POPC   C3A 3331  21.283  27.684  18.211  0.2576 -0.0364  0.0407
  278POPC   C4A 3332  20.849  27.425  18.281  0.1750  0.0884  0.1976
  278POPC   C1B 3333  22.167  28.500  18.141 -0.1408  0.2924 -0.0246
  278POPC   C2B 3334  21.895  28.222  17.879 -0.0406  0.1699  0.0253
  278POPC   C3B 3335  21.471  28.348  17.711  0.4156 -0.0281  0.2097
  278POPC   C4B 3336  21.051  28.384  17.535 -0.1808  0.1316 -0.0301
  279POPC   NC3 3337  26.716   1.855  19.367 -0.3060  0.1264 -0.0638
  279POPC   PO4 3338  26.974   2.125  19.433 -0.0473 -0.1906  0.0092
  279POPC   GL1 3339  27.069   2.077  19.003  0.2147  0.1184 -0.4873
  279POPC   GL2 3340  26.866   2.126  18.905  0.3777  0.0442  0.1453
  279POPC   C1A 3341  27.185   1.738  18.644  0.2729  0.0447 -0.1155
  279POPC   D2A 3342  27.113   1.835  18.203 -0.0424  0.1491  0.3901
  279POPC   C3A 3343  26.780   1.622  17.929 -0.1036  0.0089 -0.0169
  279POPC   C4A 3344  26.542   1.326  17.591  0.1748 -0.1583  0.2915
  279POPC   C1B 3345  27.119   2.243  18.533  0.4087  0.0748 -0.2065
  279POPC   C2B 3346  27.188   2.352  18.082  0.2514 -0.2310  0.4593
  279POPC   C3B 3347  26.980   2.748  17.963  0.2733  0.2480 -0.2558
  279POPC   C4B 3348  27.199   3.223  17.967  0.0152  0.2085  0.2076
  280POPC   NC3 3349  20.097  11.937  19.254 -0.0830  0.1243 -0.0088
  280POPC   PO4 3350  20.445  11.805  19.420  0.0927 -0.2622  0.0137
  280POPC   GL1 3351  20.472  11.756  18.998  0.0179 -0.3483  0.2002
  280POPC   GL2 3352  20.617  12.010  18.980 -0.1936 -0.2379  0.0505
  280POPC   C1A 3353  20.275  11.742  18.595  0.0813 -0.0567 -0.0349
  280POPC   D2A 3354  20.316  11.855  18.127  0.1041 -0.4136  0.2744
  280POPC   C3A 3355  20.322  11.646  17.724 -0.0922  0.2791  0.2240
  280POPC   C4A 3356  20.640  11.571  17.313  0.1744  0.2685  0.1169
  280POPC   C1B 3357  20.805  12.019  18.552 -0.1727  0.4969  0.1570
  280POPC   C2B 3358  20.796  11.939  18.058  0.3793 -0.0593  0.1126
  280POPC   C3B 3359  20.586  12.073  17.633 -0.1245  0.0814  0.1366
  280POPC   C4B 3360  20.439  12.399  17.311  0.0393 -0.3092 -0.0896
  281POPC   NC3 3361  14.362  19.071  19.123 -0.1480  0.2739 -0.1926
  281POPC   PO4 3362  14.547  18.697  19.060 -0.1203 -0.1031 -0.0588
  281POPC   GL1 3363  14.675  18.932  18.667 -0.1948 -0.2260  0.1900
  281POPC   GL2 3364  14.859  18.652  18.646 -0.0442  0.2494 -0.0323
  281POPC   C1A 3365  14.931  19.062  18.283 -0.0100 -0.2798 -0.2587
  281POPC   D2A 3366  15.026  19.374  17.882  0.0440 -0.0401  0.1656
  281POPC   C3A 3367  15.358  19.195  17.647 -0.0223 -0.2201  0.2082
  281POPC   C4A 3368  15.470  18.910  17.339 -0.2223 -0.0489 -0.2962
  281POPC   C1B 3369  15.041  18.607  18.221 -0.2480 -0.3636  0.1479
  281POPC   C2B 3370  14.975  18.854  17.854 -0.3614 -0.0812  0.1317
  281POPC   C3B 3371  14.954  19.052  17.396 -0.2614  0.1926  0.0334
  281POPC   C4B 3372  15.221  19.345  17.078  0.2578  0.1649 -0.0056
  282POPC   NC3 3373  21.626   8.082  19.673  0.5230 -0.0712  0.2231
  282POPC   PO4 3374  21.716   8.245  19.319  0.3234 -0.0500  0.4006
  282POPC   GL1 3375  21.876   8.376  18.949 -0.1223  0.0199  0.0997
  282POPC   GL2 3376  21.814   8.196  18.688 -0.1236  0.0078 -0.0187
  282POPC   C1A 3377  22.316   8.401  18.835 -0.1950 -0.2560  0.0647
  282POPC   D2A 3378  22.700   8.209  18.746  0.1342  0.2602  0.0123
  282POPC   C3A 3379  22.860   8.542  18.435  0.2029 -0.0571 -0.4693
  282POPC   C4A 3380  22.871   8.686  18.000 -0.0905  0.1814 -0.1344
  282POPC   C1B 3381  22.020   8.413  18.391 -0.0640  0.0768  0.2886
  282POPC   C2B 3382  22.410   8.488  18.151  0.1092 -0.0819  0.2865
  282POPC   C3B 3383  22.418   8.657  17.709  0.0341  0.1542  0.0248
  282POPC   C4B 3384  22.793   8.580  17.481 -0.1417  0.1066  0.3780
  283POPC   NC3 3385  26.024  22.759  19.150 -0.1308  0.1123  0.1933
  283POPC   PO4 3386  26.087  23.138  19.313  0.3364 -0.0794 -0.0184
  283POPC   GL1 3387  26.105  23.222  18.966 -0.2762  0.2850  0.2676
  283POPC   GL2 3388  25.908  23.376  18.900 -0.0737 -0.3101  0.1049
  283POPC   C1A 3389  25.934  22.952  18.591  0.0751  0.2021 -0.1444
  283POPC   D2A 3390  25.669  22.718  18.316 -0.0106  0.0660  0.0158
  283POPC   C3A 3391  25.553  22.906  17.895  0.4131  0.1138 -0.3928
  283POPC   C4A 3392  25.456  22.775  17.490 -0.0395 -0.2213  0.0549
  283POPC   C1B 3393  26.236  23.359  18.530  0.0881  0.2071 -0.2046
  283POPC   C2B 3394  26.390  23.425  18.092  0.0444  0.0839  0.2442
  283POPC   C3B 3395  26.533  23.394  17.665 -0.1966  0.3397 -0.1123
  283POPC   C4B 3396  26.456  23.227  17.234  0.4017 -0.2411 -0.1285
  284POPC   NC3 3397  16.506  25.236  20.057  0.0629  0.1470 -0.2778
  284POPC   PO4 3398  16.854  25.398  19.992  0.2621  0.0494  0.0836
  284POPC   GL1 3399  16.686  25.388  19.643  0.1039  0.0906  0.4989
  284POPC   GL2 3400  16.908  25.333  19.463  0.0413  0.2078 -0.2745
  284POPC   C1A 3401  16.526  25.671  19.272 -0.0833  0.0902  0.0538
  284POPC   D2A 3402  16.478  26.147  19.258  0.0315  0.3687 -0.1292
  284POPC   C3A 3403  16.020  26.228  19.110 -0.0661  0.2269  0.1148
  284POPC   C4A 3404  15.558  26.269  19.139  0.1529  0.0464  0.1568
  284POPC   C1B 3405  16.971  25.414  19.048 -0.2377  0.0338 -0.0307
  284POPC   C2B 3406  16.747  25.595  18.676 -0.4162 -0.1146  0.3419
  284POPC   C3B 3407  16.656  25.885  18.299 -0.3134  0.3003 -0.1258
  284POPC   C4B 3408  16.726  26.268  18.038  0.2447 -0.2013  0.0955
  285POPC   NC3 3409  18.744   0.947  19.324  0.2553  0.1113 -0.0459
  285POPC   PO4 3410  18.735   0.618  19.565  0.0882  0.0869  0.0917
  285POPC   GL1 3411  18.634   0.539  19.226 -0.0260 -0.1452  0.0511
  285POPC   GL2 3412  18.750   0.305  19.019  0.1653 -0.5040 -0.1139
  285POPC   C1A 3413  18.546   0.678  18.782  0.0361  0.1368  0.1454
  285POPC   D2A 3414  18.421   0.891  18.448 -0.3249  0.1065  0.2698
  285POPC   C3A 3415  18.505   1.174  18.098  0.0279  0.0886  0.0053
  285POPC   C4A 3416  18.502   1.514  17.776 -0.2851 -0.1120  0.2441
  285POPC   C1B 3417  18.796   0.173  18.588  0.2852  0.2736 -0.2400
  285POPC   C2B 3418  18.871   0.130  18.153  0.3354 -0.2409  0.3587
  285POPC   C3B 3419  18.894   0.172  17.658 -0.1998 -0.5005  0.0488
  285POPC   C4B 3420  18.665   0.265  17.220  0.0767 -0.0638 -0.0460
  286POPC   NC3 3421   0.673   1.001  19.136 -0.0597 -0.0398  0.1415
  286POPC   PO4 3422   0.788   1.366  19.300 -0.1067 -0.0784  0.0067
  286POPC   GL1 3423   0.739   1.404  18.917  0.0295  0.2089  0.2635
  286POPC   GL2 3424   0.937   1.609  18.795 -0.5069  0.2500 -0.1148
  286POPC   C1A 3425   0.494   1.660  18.649 -0.4524  0.1872 -0.1044
  286POPC   D2A 3426   0.140   1.934  18.552 -0.1925 -0.0831  0.0047
  286POPC   C3A 3427   0.008   1.851  18.137  0.3028  0.0846 -0.1350
  286POPC   C4A 3428  -0.102   1.557  17.794 -0.2178  0.2295  0.1117
  286POPC   C1B 3429   0.916   1.647  18.376 -0.0396 -0.0643  0.2188
  286POPC   C2B 3430   0.962   1.832  17.970  0.3596 -0.1439 -0.0624
  286POPC   C3B 3431   0.948   1.791  17.552  0.2639 -0.1314  0.1876
  286POPC   C4B 3432   0.887   1.636  17.133  0.0782  0.1752  0.0091
  287POPC   NC3 3433  31.145   7.898  19.584  0.1628 -0.1566  0.2027
  287POPC   PO4 3434  30.825   7.945  19.455 -0.0324  0.0029  0.1366
  287POPC   GL1 3435  30.923   7.964  19.126  0.0183 -0.0665  0.0454
  287POPC   GL2 3436  30.749   8.196  19.043 -0.1507  0.0619  0.0913
  287POPC   C1A 3437  30.810   7.807  18.721 -0.2456  0.1372  0.1364
  287POPC   D2A 3438  30.715   7.611  18.254 -0.2098  0.0718  0.0159
  287POPC   C3A 3439  30.990   7.396  17.894  0.0807  0.0496  0.3056
  287POPC   C4A 3440  31.304   7.193  17.652 -0.2586  0.1231 -0.1264
  287POPC   C1B 3441  30.645   8.327  18.617  0.1157 -0.0687  0.1866
  287POPC   C2B 3442  30.555   8.416  18.152  0.0011 -0.1293  0.0124
  287POPC   C3B 3443  30.135   8.458  17.939 -0.3046 -0.1234  0.0623
  287POPC   C4B 3444  29.935   8.465  17.517 -0.1594 -0.0557 -0.0291
  288POPC   NC3 3445  15.093  22.737  19.343 -0.1752 -0.0986 -0.0917
  288POPC   PO4 3446  15.456  22.663  19.246 -0.2145  0.0862 -0.2257
  288POPC   GL1 3447  15.373  22.619  18.806 -0.1984  0.2798  0.1832
  288POPC   GL2 3448  15.686  22.478  18.748 -0.0373  0.0221 -0.1198
  288POPC   C1A 3449  15.355  22.537  18.360 -0.3086 -0.0435 -0.0089
  288POPC   D2A 3450  15.175  22.361  17.979  0.1396  0.1593  0.0681
  288POPC   C3A 3451  15.029  22.577  17.639  0.5412 -0.2430 -0.0806
  288POPC   C4A 3452  14.800  22.658  17.179  0.1733  0.6139 -0.0468
  288POPC   C1B 3453  16.099  22.666  18.613 -0.1791 -0.0646 -0.0938
  288POPC   C2B 3454  16.222  22.936  18.213  0.2110  0.0128  0.3145
  288POPC   C3B 3455  16.163  22.823  17.702  0.2209 -0.2442 -0.0320
  288POPC   C4B 3456  16.335  22.768  17.268 -0.0416  0.0512  0.1783
  289POPC   NC3 3457  23.732  21.905  19.428 -0.0564  0.2933 -0.2456
  289POPC   PO4 3458  23.635  22.031  19.082 -0.0742 -0.0202  0.2843
  289POPC   GL1 3459  23.675  21.850  18.692  0.2655  0.0164 -0.1372
  289POPC   GL2 3460  23.843  21.761  18.489  0.0159 -0.0592  0.0944
  289POPC   C1A 3461  23.361  21.660  18.385 -0.1589 -0.0413 -0.0294
  289POPC   D2A 3462  23.325  21.655  17.890 -0.0300  0.0518 -0.0175
  289POPC   C3A 3463  23.534  21.920  17.601  0.1971 -0.3187  0.0641
  289POPC   C4A 3464  23.648  22.057  17.183 -0.3084 -0.0299  0.1060
  289POPC   C1B 3465  23.732  21.656  18.084  0.0768 -0.2781 -0.0051
  289POPC   C2B 3466  23.824  21.475  17.657 -0.1370 -0.1101  0.1110
  289POPC   C3B 3467  23.819  21.622  17.223  0.2996  0.1723  0.1910
  289POPC   C4B 3468  24.040  21.913  16.889  0.2210  0.2704  0.0993
  290POPC   NC3 3469  15.331   2.731  19.256  0.2807 -0.0379  0.1433
  290POPC   PO4 3470  14.957   2.695  19.391 -0.3871 -0.1292 -0.2136
  290POPC   GL1 3471  14.843   2.777  18.924  0.7641  0.0093 -0.4194
  290POPC   GL2 3472  14.585   2.639  18.864 -0.2478 -0.0241 -0.0904
  290POPC   C1A 3473  14.939   2.876  18.468 -0.1127  0.1460  0.2182
  290POPC   D2A 3474  15.167   3.239  18.278 -0.0006  0.0352  0.1334
  290POPC   C3A 3475  15.171   3.087  17.910 -0.2973 -0.0173 -0.0250
  290POPC   C4A 3476  15.241   2.757  17.580 -0.1793 -0.3493 -0.3283
  290POPC   C1B 3477  14.489   2.627  18.444  0.0210  0.0911 -0.2039
  290POPC   C2B 3478  14.414   2.504  17.998  0.1264  0.2602 -0.1282
  290POPC   C3B 3479  14.147   2.181  17.758 -0.0754  0.1661 -0.1635
  290POPC   C4B 3480  13.862   2.076  17.387 -0.0574  0.2253 -0.0374
  291POPC   NC3 3481  17.495  31.379  19.208 -0.0822 -0.0921  0.1214
  291POPC   PO4 3482  17.711  31.116  19.425  0.1357  0.0024  0.0672
  291POPC   GL1 3483  17.905  30.814  19.086  0.0026  0.3330 -0.0561
  291POPC   GL2 3484  17.848  31.051  18.928  0.1387  0.0198 -0.0248
  291POPC   C1A 3485  17.757  30.584  18.665  0.1993 -0.0042 -0.0566
  291POPC   D2A 3486  17.837  30.708  18.205  0.2764  0.2777 -0.0634
  291POPC   C3A 3487  17.705  30.555  17.790  0.0291  0.2890  0.0449
  291POPC   C4A 3488  17.830  30.209  17.501  0.1004  0.0042 -0.0507
  291POPC   C1B 3489  17.766  31.310  18.562  0.3569 -0.0816 -0.0024
  291POPC   C2B 3490  17.797  31.296  18.088  0.1470  0.1822  0.1185
  291POPC   C3B 3491  18.208  31.381  17.846  0.0307 -0.1815 -0.1421
  291POPC   C4B 3492  18.463  31.089  17.623  0.2118 -0.1010  0.1360
  292POPC   NC3 3493  31.388  18.841  19.607  0.0232  0.1857  0.0831
  292POPC   PO4 3494  31.818  18.861  19.619 -0.0385  0.2137  0.0254
  292POPC   GL1 3495  31.758  19.023  19.158 -0.0370  0.3536 -0.0877
  292POPC   GL2 3496  31.571  18.760  19.106  0.1225 -0.1409  0.2937
  292POPC   C1A 3497  31.843  19.093  18.708 -0.2009 -0.2225  0.0210
  292POPC   D2A 3498  31.575  19.210  18.344 -0.1056 -0.2446 -0.1381
  292POPC   C3A 3499  31.566  18.863  18.089  0.1568 -0.1176 -0.1544
  292POPC   C4A 3500  31.678  18.648  17.716 -0.1054  0.0908  0.0252
  292POPC   C1B 3501  31.317  18.839  18.726  0.1534 -0.2552  0.0008
  292POPC   C2B 3502  31.091  18.902  18.321 -0.2141  0.1128  0.2051
  292POPC   C3B 3503  30.664  18.794  18.099  0.0830 -0.0307 -0.1941
  292POPC   C4B 3504  30.495  18.733  17.695 -0.2429 -0.3076 -0.2313
  293POPC   NC3 3505  18.089   9.219  18.943  0.0548 -0.2396  0.0045
  293POPC   PO4 3506  17.927   9.565  19.003  0.2380 -0.1383  0.1894
  293POPC   GL1 3507  17.769   9.446  18.648 -0.1177 -0.0204  0.0570
  293POPC   GL2 3508  17.558   9.317  18.771 -0.0744  0.0653  0.3745
  293POPC   C1A 3509  17.750   9.306  18.227  0.0338  0.0424  0.1460
  293POPC   D2A 3510  17.532   9.171  17.847 -0.2292  0.0535 -0.0485
  293POPC   C3A 3511  17.458   9.018  17.395  0.1596  0.2447  0.1507
  293POPC   C4A 3512  17.106   8.735  17.225  0.1312 -0.1188 -0.4871
  293POPC   C1B 3513  17.370   9.676  18.470  0.0985 -0.1708  0.1651
  293POPC   C2B 3514  17.439   9.832  18.008 -0.1250 -0.0839 -0.0921
  293POPC   C3B 3515  17.345  10.106  17.649 -0.4021  0.2219  0.0399
  293POPC   C4B 3516  17.585  10.513  17.464  0.2746  0.3766 -0.4406
  294POPC   NC3 3517  14.807   0.800  18.570  0.2019 -0.1518 -0.1593
  294POPC   PO4 3518  14.765   0.405  18.577  0.1676 -0.2659 -0.0307
  294POPC   GL1 3519  15.115   0.308  18.442 -0.4417  0.4966 -0.2360
  294POPC   GL2 3520  15.223   0.489  18.386  0.0915 -0.1939 -0.2248
  294POPC   C1A 3521  15.350   0.239  18.015  0.0899 -0.0668  0.1169
  294POPC   D2A 3522  15.336   0.238  17.568 -0.2453  0.0184  0.0455
  294POPC   C3A 3523  15.768   0.434  17.392  0.1998 -0.2022  0.0711
  294POPC   C4A 3524  15.960   0.886  17.351 -0.0310  0.3546 -0.2214
  294POPC   C1B 3525  15.305   0.757  18.040  0.0311 -0.2936 -0.2389
  294POPC   C2B 3526  15.421   0.755  17.579 -0.1892 -0.1496  0.0757
  294POPC   C3B 3527  15.395   0.775  17.129 -0.2578 -0.0043 -0.1965
  294POPC   C4B 3528  15.335   0.906  16.682 -0.1225 -0.1015  0.0627
  295POPC   NC3 3529   4.509  28.474  19.361  0.2681  0.1242  0.0896
  295POPC   PO4 3530   4.106  28.460  19.449 -0.0567 -0.4149  0.1441
  295POPC   GL1 3531   4.009  28.476  18.982  0.2243 -0.1142 -0.2725
  295POPC   GL2 3532   4.245  28.288  18.910 -0.0154  0.5353 -0.0602
  295POPC   C1A 3533   3.927  28.740  18.578  0.0040 -0.1514 -0.0120
  295POPC   D2A 3534   3.784  29.070  18.246  0.1863 -0.0319 -0.1902
  295POPC   C3A 3535   3.666  28.898  17.868  0.1316  0.0385  0.0301
  295POPC   C4A 3536   3.417  28.911  17.489 -0.1015 -0.1931  0.0239
  295POPC   C1B 3537   4.006  28.192  18.499  0.2183 -0.1517  0.2465
  295POPC   C2B 3538   3.825  27.951  18.145  0.0492 -0.0359  0.2689
  295POPC   C3B 3539   3.897  27.854  17.702 -0.0339  0.2912  0.3291
  295POPC   C4B 3540   4.066  27.914  17.354  0.0952  0.2900  0.0056
  296POPC   NC3 3541  24.984  31.247  19.270 -0.1026  0.1732 -0.1906
  296POPC   PO4 3542  25.380  31.271  19.087  0.0641  0.0578 -0.1045
  296POPC   GL1 3543  25.369  31.425  18.692  0.1997 -0.2670  0.1600
  296POPC   GL2 3544  25.086  31.523  18.795 -0.2259 -0.1901  0.0923
  296POPC   C1A 3545  25.423  31.828  18.443  0.0127  0.1980  0.0701
  296POPC   D2A 3546  25.453  31.796  18.046 -0.0431 -0.0592  0.1361
  296POPC   C3A 3547  25.403  31.452  17.721  0.0461  0.3125 -0.1523
  296POPC   C4A 3548  25.392  31.075  17.485  0.1910  0.0698 -0.0716
  296POPC   C1B 3549  25.077  31.557  18.332  0.4100  0.1577 -0.0136
  296POPC   C2B 3550  25.006  31.225  18.076  0.0129  0.2563 -0.1980
  296POPC   C3B 3551  24.869  30.937  17.716  0.0270  0.1510 -0.0043
  296POPC   C4B 3552  24.923  30.939  17.230 -0.3533 -0.1327 -0.0364
  297POPC   NC3 3553  16.856  19.299  19.430 -0.1109  0.3341  0.1257
  297POPC   PO4 3554  17.083  19.551  19.603 -0.1428 -0.1336 -0.1839
  297POPC   GL1 3555  17.269  19.450  19.297 -0.0339  0.1823 -0.2906
  297POPC   GL2 3556  17.179  19.570  19.096 -0.1907  0.0197 -0.0463
  297POPC   C1A 3557  17.611  19.550  18.941 -0.0152  0.0576 -0.0902
  297POPC   D2A 3558  17.640  19.550  18.463  0.2275  0.1221  0.2383
  297POPC   C3A 3559  17.366  19.626  18.124  0.3205 -0.0113  0.1610
  297POPC   C4A 3560  16.894  19.453  18.072 -0.0713 -0.0380  0.1020
  297POPC   C1B 3561  17.000  19.217  18.813 -0.0560  0.1844  0.3139
  297POPC   C2B 3562  16.871  18.793  18.735  0.0125 -0.0635 -0.0564
  297POPC   C3B 3563  16.740  18.457  18.419 -0.1724 -0.1431  0.1378
  297POPC   C4B 3564  16.416  18.286  18.143 -0.1100  0.1864  0.0128
  298POPC   NC3 3565   7.424  27.426  18.967 -0.2189 -0.0005 -0.1869
  298POPC   PO4 3566   7.825  27.425  19.032  0.1634 -0.1936 -0.1488
  298POPC   GL1 3567   7.937  27.207  18.730  0.4439 -0.1918  0.1339
  298POPC   GL2 3568   8.082  27.453  18.561  0.2401  0.1492 -0.2337
  298POPC   C1A 3569   7.709  27.097  18.341  0.1979  0.0344 -0.1033
  298POPC   D2A 3570   7.476  27.077  17.953  0.0960  0.0476  0.1152
  298POPC   C3A 3571   7.508  27.242  17.546  0.0134 -0.1196 -0.0782
  298POPC   C4A 3572   7.682  27.438  17.187  0.0019 -0.0680  0.0434
  298POPC   C1B 3573   8.002  27.481  18.135 -0.1212  0.1680 -0.2134
  298POPC   C2B 3574   7.961  27.502  17.733  0.1770  0.1510  0.0476
  298POPC   C3B 3575   8.041  27.760  17.388  0.2373 -0.1549  0.0131
  298POPC   C4B 3576   8.047  27.938  16.971 -0.2007 -0.2386  0.0815
  299POPC   NC3 3577  25.518   6.063  19.471 -0.1249  0.2064 -0.0336
  299POPC   PO4 3578  25.501   6.468  19.445 -0.2528  0.1237  0.5859
  299POPC   GL1 3579  25.400   6.679  19.036 -0.3036 -0.1611 -0.2782
  299POPC   GL2 3580  25.610   6.876  18.939 -0.0160 -0.0819  0.0869
  299POPC   C1A 3581  25.246   6.977  18.671  0.1468  0.1349 -0.1716
  299POPC   D2A 3582  25.096   7.229  18.277 -0.1904  0.2141 -0.1178
  299POPC   C3A 3583  25.228   7.143  17.799 -0.0610  0.3668  0.0680
  299POPC   C4A 3584  25.304   7.101  17.339  0.0349  0.2708  0.0976
  299POPC   C1B 3585  25.730   6.646  18.618  0.3538 -0.2410 -0.1645
  299POPC   C2B 3586  26.038   6.478  18.324 -0.0972 -0.0221  0.3037
  299POPC   C3B 3587  25.926   6.492  17.859 -0.1223  0.0724 -0.1572
  299POPC   C4B 3588  25.885   6.727  17.445  0.1755  0.2766  0.0725
  300POPC   NC3 3589  30.981  26.303  19.608 -0.0234  0.1869  0.1599
  300POPC   PO4 3590  30.634  26.531  19.482 -0.3378  0.0908 -0.0807
  300POPC   GL1 3591  30.752  26.696  19.201  0.1414  0.1196  0.2804
  300POPC   GL2 3592  30.887  26.385  19.009  0.1055 -0.1621  0.2359
  300POPC   C1A 3593  30.586  27.007  18.966 -0.2168 -0.0466 -0.2018
  300POPC   D2A 3594  30.639  27.303  18.668  0.1777 -0.2800 -0.2053
  300POPC   C3A 3595  30.811  27.382  18.286  0.1741  0.0108  0.2067
  300POPC   C4A 3596  30.662  27.343  17.847 -0.1307 -0.1986 -0.0024
  300POPC   C1B 3597  31.000  26.296  18.553  0.3452 -0.0020  0.1231
  300POPC   C2B 3598  30.995  26.006  18.167  0.1198 -0.2192 -0.1502
  300POPC   C3B 3599  30.906  26.015  17.715  0.2432 -0.3291 -0.5627
  300POPC   C4B 3600  30.826  26.292  17.371  0.1406 -0.1112 -0.1776
  301POPC   NC3 3601  30.031  28.180  19.430  0.0839 -0.3688  0.0550
  301POPC   PO4 3602  29.700  28.089  19.498 -0.0862  0.0495  0.2856
  301POPC   GL1 3603  29.647  28.255  19.093 -0.2600 -0.0620  0.2668
  301POPC   GL2 3604  29.916  28.318  18.952 -0.1719  0.2330 -0.0862
  301POPC   C1A 3605  29.607  28.131  18.650 -0.0616  0.1085 -0.1565
  301POPC   D2A 3606  29.874  27.947  18.281 -0.0739 -0.4372 -0.3002
  301POPC   C3A 3607  29.892  28.171  17.859  0.0725  0.1546 -0.0886
  301POPC   C4A 3608  30.004  28.025  17.422  0.1099  0.0301 -0.2085
  301POPC   C1B 3609  29.958  28.428  18.514  0.2063  0.1635 -0.2001
  301POPC   C2B 3610  30.230  28.517  18.114  0.1390  0.0363  0.0358
  301POPC   C3B 3611  30.302  28.440  17.660  0.1992  0.2199  0.1554
  301POPC   C4B 3612  30.059  28.582  17.231  0.2684 -0.0745 -0.0311
  302POPC   NC3 3613  13.181  30.653  18.931  0.3277  0.0372 -0.0419
  302POPC   PO4 3614  12.815  30.532  19.044 -0.0340 -0.2461  0.0137
  302POPC   GL1 3615  12.797  30.658  18.670 -0.2114  0.0018  0.1116
  302POPC   GL2 3616  12.814  30.383  18.585 -0.0311 -0.1247  0.0726
  302POPC   C1A 3617  12.687  30.967  18.331  0.0195 -0.1347  0.1616
  302POPC   D2A 3618  12.607  30.868  17.881 -0.1269  0.2649 -0.1232
  302POPC   C3A 3619  12.679  30.918  17.366  0.1469  0.0588  0.2530
  302POPC   C4A 3620  12.795  30.841  16.885  0.0953 -0.0466 -0.2458
  302POPC   C1B 3621  12.656  30.464  18.155  0.0465  0.2703  0.1693
  302POPC   C2B 3622  12.360  30.212  17.852 -0.2199  0.2441  0.1612
  302POPC   C3B 3623  12.007  30.301  17.569 -0.1609  0.2014 -0.0861
  302POPC   C4B 3624  11.693  30.356  17.215 -0.2004  0.1972 -0.0575
  303POPC   NC3 3625  11.382   0.197  19.699  0.1746  0.0061 -0.0154
  303POPC   PO4 3626  11.534   0.086  19.382  0.1250  0.0511 -0.1467
  303POPC   GL1 3627  11.293   0.325  19.120 -0.0028 -0.0670 -0.3757
  303POPC   GL2 3628  11.038   0.326  19.161  0.0638  0.1673  0.0369
  303POPC   C1A 3629  11.272   0.288  18.675  0.3363  0.1921 -0.2735
  303POPC   D2A 3630  11.255   0.283  18.242  0.1666  0.0022  0.1714
  303POPC   C3A 3631  11.029   0.598  18.024 -0.1902  0.3372  0.0015
  303POPC   C4A 3632  10.841   0.602  17.598  0.1618 -0.0230  0.4823
  303POPC   C1B 3633  10.785   0.510  18.836  0.2493 -0.1178 -0.0514
  303POPC   C2B 3634  10.636   0.615  18.407  0.4231  0.0004  0.1585
  303POPC   C3B 3635  10.563   0.899  18.025 -0.1832 -0.0071 -0.0990
  303POPC   C4B 3636  10.574   1.018  17.564  0.0116  0.4016 -0.0223
  304POPC   NC3 3637  22.703   4.651  18.896 -0.0190 -0.2525  0.0087
  304POPC   PO4 3638  23.095   4.590  18.877 -0.2404  0.2344  0.0554
  304POPC   GL1 3639  23.142   4.530  18.507 -0.3833  0.0327  0.0898
  304POPC   GL2 3640  23.174   4.856  18.396  0.0460  0.1662 -0.0510
  304POPC   C1A 3641  23.085   4.476  18.033 -0.0742  0.1154 -0.0514
  304POPC   D2A 3642  23.402   4.572  17.676  0.0144  0.0120 -0.1297
  304POPC   C3A 3643  23.687   4.325  17.399 -0.1550  0.0771 -0.0291
  304POPC   C4A 3644  24.040   4.537  17.183  0.0252 -0.1060  0.2118
  304POPC   C1B 3645  23.213   4.963  17.947 -0.1263 -0.3765 -0.0080
  304POPC   C2B 3646  23.381   5.098  17.509  0.3305 -0.3400 -0.0039
  304POPC   C3B 3647  23.438   5.428  17.233 -0.4102 -0.2558 -0.3146
  304POPC   C4B 3648  23.540   5.691  16.843 -0.2192  0.0799  0.0416
  305POPC   NC3 3649  17.536  24.277  19.292  0.0873 -0.1082  0.2028
  305POPC   PO4 3650  17.448  24.543  19.561  0.1712 -0.1239  0.2242
  305POPC   GL1 3651  17.332  24.721  19.277  0.0973  0.5096  0.2943
  305POPC   GL2 3652  17.350  24.997  19.160  0.0198 -0.3501 -0.0020
  305POPC   C1A 3653  17.222  24.523  18.862  0.2772 -0.0010 -0.1883
  305POPC   D2A 3654  17.247  24.302  18.431 -0.0010  0.2653  0.0654
  305POPC   C3A 3655  17.269  24.448  18.000  0.0261 -0.1065 -0.2083
  305POPC   C4A 3656  17.343  24.669  17.589 -0.3716  0.0878 -0.1919
  305POPC   C1B 3657  17.130  25.004  18.722  0.2046  0.0831 -0.2904
  305POPC   C2B 3658  17.037  24.734  18.382 -0.1363  0.1933 -0.1391
  305POPC   C3B 3659  16.813  24.416  18.163 -0.1420  0.2582 -0.1238
  305POPC   C4B 3660  16.609  24.428  17.706  0.3141  0.0642  0.1613
  306POPC   NC3 3661  10.777  22.418  19.387  0.2469 -0.3325 -0.5137
  306POPC   PO4 3662  10.677  22.633  19.062  0.1915  0.0741  0.0268
  306POPC   GL1 3663  10.600  22.682  18.635  0.1847 -0.3523 -0.1265
  306POPC   GL2 3664  10.861  22.883  18.608 -0.1812  0.0508  0.2684
  306POPC   C1A 3665  10.270  22.645  18.335  0.2130  0.2671  0.1334
  306POPC   D2A 3666  10.272  22.667  17.838 -0.0811  0.0791  0.1649
  306POPC   C3A 3667  10.224  23.123  17.562  0.0281  0.0434 -0.1335
  306POPC   C4A 3668  10.500  23.479  17.569 -0.0083 -0.3157  0.0644
  306POPC   C1B 3669  10.709  22.817  18.136 -0.1230  0.0386  0.1120
  306POPC   C2B 3670  10.622  23.016  17.784 -0.5191 -0.2474  0.3563
  306POPC   C3B 3671  10.653  23.066  17.292 -0.0478 -0.0993 -0.5391
  306POPC   C4B 3672  10.589  22.898  16.924  0.0085 -0.1925  0.0659
  307POPC   NC3 3673  10.775  26.326  19.242  0.2651  0.1910  0.0416
  307POPC   PO4 3674  10.782  26.719  19.401  0.0394 -0.2809  0.0511
  307POPC   GL1 3675  10.478  26.715  19.032 -0.1285 -0.0287 -0.4360
  307POPC   GL2 3676  10.616  26.550  18.861 -0.0210  0.3443 -0.0212
  307POPC   C1A 3677  10.532  27.023  18.714  0.2781 -0.2991  0.0778
  307POPC   D2A 3678  10.738  27.203  18.339  0.2371  0.1803 -0.2267
  307POPC   C3A 3679  11.193  27.220  18.381 -0.0652 -0.4431 -0.1103
  307POPC   C4A 3680  11.490  27.400  18.115 -0.1000 -0.2061 -0.1781
  307POPC   C1B 3681  10.824  26.668  18.433 -0.1586  0.0281 -0.0933
  307POPC   C2B 3682  10.963  26.804  18.027  0.1181  0.1961 -0.2530
  307POPC   C3B 3683  11.149  26.600  17.678  0.3568  0.1341  0.1695
  307POPC   C4B 3684  11.178  26.757  17.216 -0.0370  0.0186 -0.1060
  308POPC   NC3 3685   6.848  29.416  19.449 -0.2212 -0.2673  0.3942
  308POPC   PO4 3686   7.178  29.262  19.287  0.1399  0.0070 -0.2160
  308POPC   GL1 3687   7.314  29.357  18.914 -0.0269  0.0620 -0.3211
  308POPC   GL2 3688   7.089  29.385  18.718  0.0825 -0.2468  0.3397
  308POPC   C1A 3689   7.540  29.590  18.600  0.0084  0.1236  0.2079
  308POPC   D2A 3690   7.626  29.738  18.157 -0.1932  0.2141  0.1608
  308POPC   C3A 3691   7.794  29.766  17.721  0.0909 -0.0541 -0.1471
  308POPC   C4A 3692   8.221  29.632  17.622 -0.1225 -0.2362 -0.0769
  308POPC   C1B 3693   7.232  29.438  18.237 -0.0595 -0.1628 -0.1753
  308POPC   C2B 3694   7.349  29.453  17.795 -0.1770  0.0281  0.0823
  308POPC   C3B 3695   7.543  29.454  17.371 -0.0825 -0.1984  0.0668
  308POPC   C4B 3696   7.764  29.173  17.067 -0.0156 -0.0533 -0.1555
  309POPC   NC3 3697   1.969  12.162  19.876 -0.2493 -0.0932 -0.3569
  309POPC   PO4 3698   2.216  12.120  19.540 -0.1270 -0.0639 -0.0336
  309POPC   GL1 3699   2.319  12.110  19.176 -0.0171  0.1765 -0.0339
  309POPC   GL2 3700   2.335  12.323  18.936  0.1419  0.1492 -0.0276
  309POPC   C1A 3701   2.221  11.848  18.750  0.1816 -0.3868  0.0053
  309POPC   D2A 3702   1.968  11.712  18.336  0.2253 -0.3996 -0.1813
  309POPC   C3A 3703   2.057  12.000  17.989 -0.7180 -0.0298  0.4006
  309POPC   C4A 3704   2.258  12.059  17.577  0.0008  0.0531  0.1328
  309POPC   C1B 3705   2.285  12.253  18.464 -0.0403  0.1820  0.0272
  309POPC   C2B 3706   2.542  12.267  18.068  0.0841  0.1330 -0.2743
  309POPC   C3B 3707   2.780  12.581  17.802 -0.1486 -0.0979  0.0666
  309POPC   C4B 3708   3.133  12.545  17.510 -0.0470 -0.2648 -0.1300
  310POPC   NC3 3709   0.161   4.307  19.707  0.0130 -0.4456  0.0494
  310POPC   PO4 3710  -0.015   4.638  19.535 -0.2954 -0.0817  0.0072
  310POPC   GL1 3711  -0.099   4.942  19.223 -0.3442 -0.3094  0.2805
  310POPC   GL2 3712  -0.330   5.099  19.168  0.2273  0.0998  0.0490
  310POPC   C1A 3713  -0.086   4.812  18.764  0.0374 -0.0443 -0.0381
  310POPC   D2A 3714   0.122   4.403  18.684 -0.2058 -0.0266  0.0417
  310POPC   C3A 3715   0.324   4.320  18.228  0.3817  0.3688  0.0045
  310POPC   C4A 3716   0.520   4.648  18.032 -0.3156 -0.0254  0.0130
  310POPC   C1B 3717  -0.674   4.788  19.046 -0.2049 -0.3450 -0.0543
  310POPC   C2B 3718  -0.885   4.547  18.714  0.0513  0.1967 -0.0862
  310POPC   C3B 3719  -1.249   4.310  18.473 -0.0990  0.0496 -0.2453
  310POPC   C4B 3720  -1.289   3.970  18.135 -0.2431 -0.0426  0.1154
  311POPC   NC3 3721  12.329  18.992  19.055  0.3131 -0.0423 -0.0075
  311POPC   PO4 3722  12.356  19.388  18.996  0.1247 -0.0501  0.2564
  311POPC   GL1 3723  12.332  19.782  18.890 -0.0909  0.2211 -0.0749
  311POPC   GL2 3724  12.334  19.649  18.546 -0.1404 -0.1598 -0.0205
  311POPC   C1A 3725  12.394  20.221  18.725  0.0566  0.3218 -0.4151
  311POPC   D2A 3726  12.363  20.538  18.361  0.2879  0.0334 -0.0235
  311POPC   C3A 3727  12.522  20.401  17.924  0.1284 -0.3514 -0.1622
  311POPC   C4A 3728  12.568  20.130  17.540 -0.0174 -0.2421  0.0053
  311POPC   C1B 3729  12.154  19.443  18.180 -0.4255  0.0972 -0.2580
  311POPC   C2B 3730  11.841  19.374  17.779 -0.0511 -0.0646  0.4216
  311POPC   C3B 3731  11.450  19.153  17.747  0.1458  0.4099 -0.0224
  311POPC   C4B 3732  11.249  18.946  17.410 -0.1870 -0.1567 -0.0239
  312POPC   NC3 3733  15.036   8.713  19.661  0.0437  0.0997  0.1507
  312POPC   PO4 3734  15.078   9.065  19.463 -0.1442 -0.0875  0.0499
  312POPC   GL1 3735  15.272   8.715  19.240 -0.4300  0.0943 -0.2219
  312POPC   GL2 3736  15.445   8.702  19.029  0.1900 -0.0976 -0.1350
  312POPC   C1A 3737  15.113   8.363  18.943  0.1750  0.0559  0.1201
  312POPC   D2A 3738  14.866   8.266  18.567 -0.2715 -0.1835  0.6834
  312POPC   C3A 3739  15.099   8.298  18.193  0.0264  0.0086  0.0810
  312POPC   C4A 3740  15.381   8.725  18.169 -0.0611  0.5870  0.0595
  312POPC   C1B 3741  15.553   8.499  18.615  0.1224  0.2871 -0.0441
  312POPC   C2B 3742  15.663   8.289  18.248  0.0670  0.2408  0.0563
  312POPC   C3B 3743  15.488   8.351  17.836  0.2462  0.0455  0.0417
  312POPC   C4B 3744  15.474   8.576  17.442  0.2520  0.1272 -0.1581
  313POPC   NC3 3745  30.443  17.958  19.502 -0.0014 -0.3163 -0.0440
  313POPC   PO4 3746  30.115  17.864  19.314  0.0970  0.0297 -0.2180
  313POPC   GL1 3747  30.010  17.920  19.000  0.0829  0.3308  0.3978
  313POPC   GL2 3748  29.795  17.809  18.900 -0.0382  0.2207 -0.2871
  313POPC   C1A 3749  30.155  17.880  18.561  0.2102 -0.0626 -0.1557
  313POPC   D2A 3750  30.470  17.962  18.278  0.0761  0.0116 -0.0708
  313POPC   C3A 3751  30.409  17.805  17.787  0.2654 -0.1575 -0.0227
  313POPC   C4A 3752  30.108  17.932  17.527 -0.2402 -0.1896  0.5469
  313POPC   C1B 3753  29.551  17.970  18.490  0.0834 -0.2379  0.1201
  313POPC   C2B 3754  29.389  17.875  18.068  0.1120 -0.2174  0.0240
  313POPC   C3B 3755  29.370  17.629  17.693 -0.1633 -0.2224 -0.1121
  313POPC   C4B 3756  29.047  17.334  17.534 -0.0102 -0.2120  0.2778
  314POPC   NC3 3757   5.424   4.176  19.456  0.0231  0.2737  0.1409
  314POPC   PO4 3758   5.132   3.926  19.382  0.1163  0.4206 -0.1172
  314POPC   GL1 3759   5.068   3.976  19.043  0.1694 -0.2117 -0.3334
  314POPC   GL2 3760   5.148   4.259  18.970 -0.0138 -0.1508  0.1607
  314POPC   C1A 3761   4.848   3.842  18.652 -0.1674 -0.0962 -0.0557
  314POPC   D2A 3762   4.768   4.055  18.281  0.2117 -0.2577 -0.0397
  314POPC   C3A 3763   4.542   4.270  17.956  0.1939  0.1816  0.1772
  314POPC   C4A 3764   4.276   4.259  17.553 -0.2143  0.2854 -0.1522
  314POPC   C1B 3765   4.775   4.364  18.739 -0.0069  0.0803  0.0282
  314POPC   C2B 3766   4.673   4.524  18.342  0.1021 -0.2320  0.2352
  314POPC   C3B 3767   4.326   4.688  18.070 -0.1460  0.3190 -0.1423
  314POPC   C4B 3768   4.331   5.100  17.893  0.2416  0.3116  0.0846
  315POPC   NC3 3769   7.693  28.247  18.906 -0.1045  0.2356 -0.2483
  315POPC   PO4 3770   7.522  27.882  18.932 -0.0524  0.2547  0.0226
  315POPC   GL1 3771   7.729  27.699  18.608  0.1606 -0.3849  0.0411
  315POPC   GL2 3772   7.579  27.521  18.473 -0.0127  0.0265  0.1463
  315POPC   C1A 3773   7.839  27.919  18.168 -0.0310 -0.0228  0.1689
  315POPC   D2A 3774   8.015  28.070  17.777 -0.1614 -0.1852  0.2967
  315POPC   C3A 3775   7.957  28.319  17.337 -0.2496 -0.1593 -0.0513
  315POPC   C4A 3776   8.048  28.732  17.105  0.0102 -0.0710 -0.0310
  315POPC   C1B 3777   7.542  27.575  18.026  0.0981 -0.1179  0.0698
  315POPC   C2B 3778   7.492  27.767  17.607 -0.3216  0.1244 -0.2384
  315POPC   C3B 3779   7.576  28.008  17.216 -0.1489 -0.0057  0.1710
  315POPC   C4B 3780   7.475  28.197  16.821 -0.3473  0.2220  0.2168
  316POPC   NC3 3781   9.246  28.466  18.946  0.1549  0.0870  0.2688
  316POPC   PO4 3782   9.562  28.383  19.169 -0.0126  0.1195 -0.0367
  316POPC   GL1 3783   9.689  28.428  18.814 -0.0936 -0.1886  0.2537
  316POPC   GL2 3784   9.994  28.514  18.744 -0.0389  0.0865 -0.1001
  316POPC   C1A 3785   9.595  28.560  18.392 -0.5639  0.1041 -0.0762
  316POPC   D2A 3786   9.781  28.507  18.019  0.1705  0.0179  0.4128
  316POPC   C3A 3787  10.123  28.317  17.762  0.1150 -0.0970  0.2577
  316POPC   C4A 3788  10.195  27.875  17.681  0.3798 -0.1030 -0.2407
  316POPC   C1B 3789  10.081  28.812  18.465  0.1317 -0.2503  0.3493
  316POPC   C2B 3790  10.221  28.796  17.991  0.0210  0.1637  0.0426
  316POPC   C3B 3791  10.383  28.728  17.551 -0.3175 -0.0166 -0.0031
  316POPC   C4B 3792  10.400  28.344  17.321 -0.0139  0.0230  0.0779
  317POPC   NC3 3793  13.801  19.753  19.186  0.0813  0.2354  0.0344
  317POPC   PO4 3794  13.881  19.392  19.336  0.0769 -0.1939 -0.2575
  317POPC   GL1 3795  14.148  19.435  18.935 -0.3113  0.1251 -0.2233
  317POPC   GL2 3796  13.968  19.564  18.678 -0.1210  0.1216  0.0783
  317POPC   C1A 3797  14.323  19.224  18.569  0.0859 -0.3191  0.1631
  317POPC   D2A 3798  14.439  18.921  18.197  0.0395  0.5773  0.1085
  317POPC   C3A 3799  14.503  19.073  17.696 -0.1543  0.3163  0.1368
  317POPC   C4A 3800  14.430  19.198  17.199  0.1490  0.0066  0.2557
  317POPC   C1B 3801  13.970  19.412  18.258 -0.2968 -0.3780  0.0419
  317POPC   C2B 3802  14.165  19.413  17.807 -0.0559 -0.0741 -0.2961
  317POPC   C3B 3803  14.063  19.414  17.354  0.2810 -0.1592  0.0056
  317POPC   C4B 3804  14.069  19.355  16.875 -0.0229  0.1486 -0.0208
  318POPC   NC3 3805  31.015  20.554  19.879  0.1072 -0.1195  0.1969
  318POPC   PO4 3806  31.022  20.582  19.440  0.1440  0.0327 -0.0846
  318POPC   GL1 3807  31.374  20.308  19.221  0.1677  0.2601 -0.2947
  318POPC   GL2 3808  31.141  20.109  19.192  0.3167 -0.0333 -0.1115
  318POPC   C1A 3809  31.528  20.040  18.876  0.0495 -0.3088 -0.0094
  318POPC   D2A 3810  31.707  19.692  18.658  0.0333  0.2381  0.0187
  318POPC   C3A 3811  31.659  19.674  18.206 -0.0436 -0.0433 -0.3158
  318POPC   C4A 3812  31.685  19.474  17.847 -0.0665  0.0782  0.1909
  318POPC   C1B 3813  31.014  20.202  18.771  0.2982 -0.1860  0.0710
  318POPC   C2B 3814  31.078  20.404  18.355 -0.0760 -0.0002 -0.1773
  318POPC   C3B 3815  31.114  20.396  17.907  0.0650 -0.0709 -0.1036
  318POPC   C4B 3816  31.400  20.379  17.573  0.2209  0.3267  0.0406
  319POPC   NC3 3817   0.269  25.378  19.490 -0.3527  0.0154 -0.2125
  319POPC   PO4 3818   0.644  25.122  19.446 -0.0870 -0.3467  0.2572
  319POPC   GL1 3819   0.746  25.467  19.160 -0.1456  0.1968 -0.3221
  319POPC   GL2 3820   0.700  25.217  18.992 -0.2871 -0.2359 -0.0318
  319POPC   C1A 3821   0.653  25.670  18.717 -0.1479  0.1915 -0.0628
  319POPC   D2A 3822   0.694  25.822  18.256 -0.2838  0.0261 -0.1287
  319POPC   C3A 3823   0.612  25.864  17.751  0.5692  0.2885  0.0982
  319POPC   C4A 3824   0.697  26.120  17.369 -0.0771  0.0302  0.5024
  319POPC   C1B 3825   0.718  24.893  18.703 -0.2030 -0.0356  0.3835
  319POPC   C2B 3826   0.668  24.553  18.365  0.0515  0.1615 -0.1472
  319POPC   C3B 3827   0.603  24.588  17.987  0.2377 -0.1804  0.0750
  319POPC   C4B 3828   0.803  24.824  17.642  0.0015 -0.2142 -0.2242
  320POPC   NC3 3829   5.469  24.933  19.088 -0.0219  0.1845 -0.1043
  320POPC   PO4 3830   5.757  24.705  19.169 -0.1397  0.1139 -0.0542
  320POPC   GL1 3831   5.689  24.472  18.735 -0.2156  0.0076  0.2420
  320POPC   GL2 3832   5.540  24.209  18.608 -0.0727  0.0308 -0.0250
  320POPC   C1A 3833   6.038  24.172  18.527  0.0750 -0.0333  0.1271
  320POPC   D2A 3834   6.153  24.136  18.103  0.0262  0.1482 -0.5165
  320POPC   C3A 3835   6.477  23.947  17.844  0.0546 -0.2533  0.0803
  320POPC   C4A 3836   6.777  23.557  17.785 -0.0097 -0.0954  0.0786
  320POPC   C1B 3837   5.311  24.160  18.181  0.1479 -0.1153 -0.0225
  320POPC   C2B 3838   5.096  24.024  17.770 -0.0987  0.3317  0.1373
  320POPC   C3B 3839   4.662  24.067  17.670 -0.0678  0.2092 -0.0615
  320POPC   C4B 3840   4.365  24.286  17.389  0.1256 -0.0263  0.1217
  321POPC   NC3 3841   2.225   8.642  19.234 -0.1272  0.1984  0.0406
  321POPC   PO4 3842   1.963   8.368  19.379  0.0505  0.1593  0.2284
  321POPC   GL1 3843   1.961   8.357  18.942  0.0759  0.2357 -0.0694
  321POPC   GL2 3844   2.035   8.561  18.719 -0.3891 -0.2278  0.2445
  321POPC   C1A 3845   1.641   8.319  18.647  0.3003  0.0634 -0.0090
  321POPC   D2A 3846   1.297   8.325  18.362 -0.0004  0.2495 -0.2354
  321POPC   C3A 3847   1.236   7.968  18.150 -0.1293  0.0391  0.0172
  321POPC   C4A 3848   1.381   7.551  17.996 -0.2062  0.0857  0.2988
  321POPC   C1B 3849   2.025   8.314  18.297  0.1592 -0.1257  0.0257
  321POPC   C2B 3850   2.195   8.177  17.906 -0.4565 -0.1760 -0.0526
  321POPC   C3B 3851   2.611   8.060  17.854  0.1839  0.2421  0.1177
  321POPC   C4B 3852   2.761   8.126  17.444 -0.0043 -0.4379  0.0679
  322POPC   NC3 3853  16.297  15.585  19.789  0.1622  0.2635  0.0685
  322POPC   PO4 3854  16.400  15.644  19.399  0.1974  0.0692 -0.2959
  322POPC   GL1 3855  16.566  15.725  19.028  0.1145 -0.0646 -0.0537
  322POPC   GL2 3856  16.640  15.415  18.992  0.0977 -0.0502 -0.0499
  322POPC   C1A 3857  16.315  15.598  18.629  0.0170 -0.1200 -0.0099
  322POPC   D2A 3858  16.393  15.644  18.210  0.0107 -0.1463 -0.2871
  322POPC   C3A 3859  16.225  15.440  17.842  0.0483  0.1750 -0.1529
  322POPC   C4A 3860  16.376  15.175  17.460  0.2997  0.3314 -0.1778
  322POPC   C1B 3861  16.824  15.652  18.643 -0.0016 -0.0948 -0.0332
  322POPC   C2B 3862  16.846  15.860  18.233  0.0758 -0.0897 -0.1136
  322POPC   C3B 3863  16.717  15.654  17.836 -0.0489 -0.1762 -0.3571
  322POPC   C4B 3864  16.505  15.657  17.393 -0.2537  0.0423  0.0235
  323POPC   NC3 3865  24.222   0.310  19.644 -0.0781 -0.1015 -0.0751
  323POPC   PO4 3866  24.359   0.695  19.514  0.2855  0.2229  0.2295
  323POPC   GL1 3867  24.271   0.541  19.160  0.1288  0.1305  0.0595
  323POPC   GL2 3868  23.997   0.512  19.178  0.0819 -0.1378  0.2068
  323POPC   C1A 3869  24.458   0.552  18.688 -0.1256  0.1494  0.1517
  323POPC   D2A 3870  24.599   0.569  18.206 -0.2744  0.0357  0.1479
  323POPC   C3A 3871  24.665   0.977  18.043  0.0853 -0.1553 -0.0406
  323POPC   C4A 3872  24.843   1.154  17.613 -0.0685 -0.2612  0.0922
  323POPC   C1B 3873  23.943   0.509  18.731 -0.0190  0.0422  0.2633
  323POPC   C2B 3874  24.159   0.465  18.292  0.0975 -0.2723 -0.4283
  323POPC   C3B 3875  24.315   0.363  17.846  0.1921 -0.5061  0.0248
  323POPC   C4B 3876  24.501   0.365  17.398  0.0791 -0.1868  0.0318
  324POPC   NC3 3877  19.706  28.165  19.545  0.4926 -0.0945 -0.0654
  324POPC   PO4 3878  20.071  28.238  19.506  0.1228  0.2235 -0.1752
  324POPC   GL1 3879  20.068  28.122  19.129  0.1312 -0.2688 -0.1306
  324POPC   GL2 3880  20.150  27.929  18.989 -0.1105 -0.0042  0.1388
  324POPC   C1A 3881  20.136  28.412  18.732  0.1953 -0.1835 -0.3119
  324POPC   D2A 3882  20.182  28.873  18.661  0.0163  0.0887 -0.2402
  324POPC   C3A 3883  20.501  29.060  18.441  0.0709  0.0021  0.2503
  324POPC   C4A 3884  20.761  28.964  18.038 -0.1889  0.0265 -0.3180
  324POPC   C1B 3885  19.991  27.862  18.583 -0.1002  0.0464  0.3168
  324POPC   C2B 3886  19.924  27.829  18.157 -0.2255 -0.1221 -0.1026
  324POPC   C3B 3887  19.995  27.918  17.711  0.2386 -0.2684 -0.3458
  324POPC   C4B 3888  20.210  27.730  17.332  0.1357  0.2037  0.1284
  325POPC   NC3 3889   1.111  19.457  19.669 -0.1223  0.1902  0.0044
  325POPC   PO4 3890   1.122  19.550  19.277 -0.1409 -0.1156 -0.0851
  325POPC   GL1 3891   0.961  19.477  18.905 -0.2335  0.0644  0.1277
  325POPC   GL2 3892   0.896  19.675  18.832 -0.1524 -0.1716 -0.2199
  325POPC   C1A 3893   0.936  19.217  18.487 -0.0610 -0.0600 -0.0665
  325POPC   D2A 3894   0.779  18.987  18.106  0.0660 -0.2046 -0.1302
  325POPC   C3A 3895   0.915  19.079  17.668  0.1549  0.0183  0.0129
  325POPC   C4A 3896   1.226  18.916  17.377 -0.0477  0.0857 -0.2066
  325POPC   C1B 3897   0.812  19.679  18.375 -0.1320  0.0213 -0.2854
  325POPC   C2B 3898   0.920  19.474  17.945 -0.1260  0.4019 -0.1164
  325POPC   C3B 3899   1.310  19.486  17.675  0.0633  0.1872 -0.2143
  325POPC   C4B 3900   1.649  19.217  17.567 -0.1417 -0.1285  0.0054
  326POPC   NC3 3901   7.949   8.836  19.321  0.1873  0.2017  0.1994
  326POPC   PO4 3902   7.907   8.850  18.901  0.1459  0.2344  0.4087
  326POPC   GL1 3903   7.919   8.624  18.511 -0.0293  0.0022 -0.2106
  326POPC   GL2 3904   8.224   8.727  18.530  0.0489 -0.1097 -0.0191
  326POPC   C1A 3905   7.563   8.700  18.223  0.0041 -0.0726  0.0923
  326POPC   D2A 3906   7.675   8.780  17.788  0.1284 -0.5585 -0.3793
  326POPC   C3A 3907   7.795   8.542  17.466  0.0176 -0.0907  0.0648
  326POPC   C4A 3908   7.859   8.191  17.202  0.0913 -0.0206 -0.1963
  326POPC   C1B 3909   8.521   8.494  18.403  0.1719  0.0361  0.4779
  326POPC   C2B 3910   8.689   8.441  17.982  0.0011 -0.1954  0.2390
  326POPC   C3B 3911   8.758   8.318  17.534  0.0386 -0.1743  0.2296
  326POPC   C4B 3912   9.168   8.126  17.454  0.1095 -0.0903 -0.1747
  327POPC   NC3 3913   5.105  27.955  19.162  0.1007  0.0819 -0.0346
  327POPC   PO4 3914   4.762  28.022  19.377  0.2188  0.1795  0.0169
  327POPC   GL1 3915   4.709  27.820  18.987  0.1077 -0.0083 -0.2686
  327POPC   GL2 3916   4.423  27.781  18.970  0.2644 -0.1340 -0.0231
  327POPC   C1A 3917   4.821  27.546  18.671 -0.1848  0.2441  0.2553
  327POPC   D2A 3918   5.052  27.296  18.315 -0.0990  0.0368  0.1927
  327POPC   C3A 3919   5.053  27.177  17.836  0.4200  0.5628 -0.0367
  327POPC   C4A 3920   5.174  26.987  17.403  0.1625  0.1036 -0.1274
  327POPC   C1B 3921   4.444  28.011  18.522 -0.1646  0.0395  0.0943
  327POPC   C2B 3922   4.407  28.127  18.096 -0.1040  0.1038 -0.0804
  327POPC   C3B 3923   4.450  27.829  17.708 -0.2846  0.1107 -0.3357
  327POPC   C4B 3924   4.562  27.657  17.267  0.1094  0.1853  0.1870
  328POPC   NC3 3925  18.301   2.217  19.775  0.1319  0.0366  0.3156
  328POPC   PO4 3926  17.982   2.316  19.552  0.0225  0.0456 -0.0276
  328POPC   GL1 3927  18.154   2.192  19.277  0.0798 -0.0737 -0.0251
  328POPC   GL2 3928  18.011   2.245  19.050  0.0345  0.0523  0.3296
  328POPC   C1A 3929  18.462   1.902  19.041 -0.1891  0.1625  0.0983
  328POPC   D2A 3930  18.623   1.565  18.814 -0.0107  0.0936  0.1168
  328POPC   C3A 3931  18.434   1.521  18.413 -0.3974  0.1983  0.2245
  328POPC   C4A 3932  18.086   1.508  18.114 -0.1643 -0.3446  0.0199
  328POPC   C1B 3933  18.258   2.662  18.910 -0.2173  0.0956  0.1238
  328POPC   C2B 3934  18.599   2.797  18.577 -0.0632  0.0845 -0.1652
  328POPC   C3B 3935  18.576   2.946  18.200  0.1883  0.1479 -0.2535
  328POPC   C4B 3936  18.582   2.940  17.749 -0.0836 -0.1962 -0.3876
  329POPC   NC3 3937  16.724  29.366  19.170 -0.1726 -0.0749 -0.1794
  329POPC   PO4 3938  16.810  28.952  19.260 -0.1713  0.0037 -0.0172
  329POPC   GL1 3939  16.922  28.915  18.837 -0.0006 -0.1609  0.0606
  329POPC   GL2 3940  16.910  29.206  18.747  0.1188 -0.1983  0.1167
  329POPC   C1A 3941  17.252  28.851  18.523 -0.0003  0.0907 -0.1038
  329POPC   D2A 3942  17.291  28.716  18.087  0.2584  0.0457 -0.1608
  329POPC   C3A 3943  17.409  28.623  17.654  0.1088  0.0784 -0.1148
  329POPC   C4A 3944  17.609  28.475  17.303 -0.2027 -0.3024  0.0268
  329POPC   C1B 3945  17.209  29.369  18.387  0.1231  0.2688 -0.0408
  329POPC   C2B 3946  17.107  29.562  18.045  0.1619 -0.1002  0.0258
  329POPC   C3B 3947  17.042  29.828  17.687  0.1143  0.0104  0.0900
  329POPC   C4B 3948  17.275  30.055  17.250 -0.0856 -0.1245  0.2173
  330POPC   NC3 3949  19.046  29.075  19.492  0.1064 -0.0012  0.0374
  330POPC   PO4 3950  18.924  28.742  19.333 -0.1103  0.0749  0.1347
  330POPC   GL1 3951  18.975  28.842  18.949 -0.2478  0.0635  0.4231
  330POPC   GL2 3952  19.127  29.060  18.869  0.0980 -0.1527  0.0819
  330POPC   C1A 3953  18.881  28.862  18.508  0.1734 -0.1383 -0.1019
  330POPC   D2A 3954  19.036  29.205  18.234 -0.1702 -0.1094  0.0943
  330POPC   C3A 3955  19.231  28.959  17.847 -0.4482 -0.0564  0.3146
  330POPC   C4A 3956  19.423  29.118  17.428  0.2857 -0.3943 -0.2041
  330POPC   C1B 3957  19.000  29.477  18.638 -0.1466 -0.0568  0.2125
  330POPC   C2B 3958  19.101  29.743  18.287 -0.1324 -0.0291 -0.0752
  330POPC   C3B 3959  19.404  29.831  17.937  0.1103 -0.1682  0.1750
  330POPC   C4B 3960  19.562  29.747  17.529  0.0737 -0.0502  0.2644
  331POPC   NC3 3961  28.989   4.355  19.139  0.0730 -0.1053 -0.0446
  331POPC   PO4 3962  29.235   4.160  19.154  0.0808 -0.0686 -0.0627
  331POPC   GL1 3963  29.454   4.032  18.902  0.1054 -0.2282  0.3908
  331POPC   GL2 3964  29.675   4.270  18.860 -0.0616  0.2625  0.2844
  331POPC   C1A 3965  29.475   4.168  18.387  0.0139  0.1943  0.0005
  331POPC   D2A 3966  29.477   4.049  17.901 -0.0128  0.1478  0.1276
  331POPC   C3A 3967  29.280   4.166  17.529  0.3294  0.1457  0.0238
  331POPC   C4A 3968  28.882   3.949  17.322  0.1044 -0.3960 -0.0269
  331POPC   C1B 3969  29.891   3.937  18.601  0.3009 -0.0177  0.1516
  331POPC   C2B 3970  29.903   3.947  18.136 -0.2447  0.2514  0.0044
  331POPC   C3B 3971  30.145   3.861  17.748 -0.1429 -0.0596  0.1904
  331POPC   C4B 3972  30.361   3.600  17.442  0.0335  0.2903  0.0476
  332POPC   NC3 3973  31.500   1.367  19.926  0.3720  0.0075 -0.1060
  332POPC   PO4 3974  31.756   1.241  19.601 -0.0628  0.0919  0.0248
  332POPC   GL1 3975  32.036   1.135  19.265  0.1652 -0.4119  0.4489
  332POPC   GL2 3976  31.885   0.881  19.179  0.0666  0.0077 -0.2643
  332POPC   C1A 3977  31.989   1.176  18.792 -0.0629 -0.0338 -0.0436
  332POPC   D2A 3978  31.778   1.447  18.503  0.4226  0.0192  0.2287
  332POPC   C3A 3979  31.408   1.320  18.250 -0.2622 -0.3053  0.2929
  332POPC   C4A 3980  31.034   1.233  18.014 -0.0103  0.1827  0.0267
  332POPC   C1B 3981  31.639   0.794  18.800  0.3105  0.0123  0.3737
  332POPC   C2B 3982  31.455   0.865  18.415 -0.1385  0.0559 -0.0313
  332POPC   C3B 3983  31.232   0.757  18.022  0.0298  0.1229 -0.5284
  332POPC   C4B 3984  31.124   0.920  17.634  0.0168 -0.2252  0.3004
  333POPC   NC3 3985  20.724   5.303  19.582 -0.3338  0.0387 -0.2551
  333POPC   PO4 3986  20.843   5.655  19.601  0.1456  0.0461  0.0984
  333POPC   GL1 3987  20.849   5.893  19.231  0.2444  0.1035  0.1435
  333POPC   GL2 3988  21.117   5.927  19.185  0.2088 -0.1282  0.2292
  333POPC   C1A 3989  20.496   5.808  18.883  0.0207 -0.1780 -0.1387
  333POPC   D2A 3990  20.196   6.025  18.636 -0.0651 -0.3053 -0.0780
  333POPC   C3A 3991  20.114   5.943  18.207 -0.2391 -0.0497  0.1106
  333POPC   C4A 3992  20.079   5.821  17.770 -0.0240  0.0652  0.3153
  333POPC   C1B 3993  21.001   5.719  18.739 -0.1116  0.2965 -0.2792
  333POPC   C2B 3994  21.086   5.551  18.316 -0.3674 -0.0013  0.2740
  333POPC   C3B 3995  21.213   5.890  17.991  0.2274  0.0629  0.1851
  333POPC   C4B 3996  21.536   6.011  17.649  0.0574 -0.2748 -0.1250
  334POPC   NC3 3997  16.797  13.981  19.380  0.1735 -0.1019  0.1784
  334POPC   PO4 3998  16.455  14.069  19.551  0.2299 -0.0749  0.1956
  334POPC   GL1 3999  16.378  14.245  19.274  0.0381  0.2003  0.2244
  334POPC   GL2 4000  16.155  14.155  19.169 -0.0924  0.1572  0.0198
  334POPC   C1A 4001  16.237  14.495  18.855 -0.2481 -0.1276 -0.0924
  334POPC   D2A 4002  16.239  14.731  18.513 -0.0308  0.6405  0.0417
  334POPC   C3A 4003  16.017  14.457  18.173  0.0493 -0.3244 -0.1461
  334POPC   C4A 4004  16.112  14.020  17.934  0.0279 -0.1804  0.3952
  334POPC   C1B 4005  16.146  14.056  18.718 -0.1684  0.2497  0.1542
  334POPC   C2B 4006  16.426  13.928  18.364 -0.4846  0.3435  0.1618
  334POPC   C3B 4007  16.776  13.689  18.226  0.2624  0.1224  0.1274
  334POPC   C4B 4008  17.116  13.505  18.185  0.1938 -0.1427  0.2017
  335POPC   NC3 4009  12.110   2.801  18.941 -0.4802  0.0537 -0.0456
  335POPC   PO4 4010  11.825   2.594  18.830  0.3099 -0.0588  0.0088
  335POPC   GL1 4011  11.829   2.593  18.426  0.1892 -0.1371 -0.0969
  335POPC   GL2 4012  11.882   2.920  18.466 -0.0242  0.1840  0.1410
  335POPC   C1A 4013  11.488   2.731  18.094 -0.3061 -0.1410  0.0491
  335POPC   D2A 4014  11.367   2.868  17.679  0.0027  0.0480  0.1558
  335POPC   C3A 4015  11.570   3.115  17.348 -0.2163  0.0448  0.2010
  335POPC   C4A 4016  11.434   3.260  16.909 -0.0176 -0.1587 -0.1676
  335POPC   C1B 4017  12.032   2.742  18.094  0.2243  0.2217 -0.2108
  335POPC   C2B 4018  11.840   2.629  17.649  0.2966 -0.0840  0.3348
  335POPC   C3B 4019  11.567   2.505  17.293  0.0535  0.1843 -0.0355
  335POPC   C4B 4020  11.187   2.702  17.177  0.3554  0.1317  0.0307
  336POPC   NC3 4021   1.152  23.138  19.176  0.1759 -0.0479 -0.3380
  336POPC   PO4 4022   1.153  23.475  18.971 -0.0677  0.0370  0.0416
  336POPC   GL1 4023   1.111  23.580  18.633 -0.1881 -0.2495 -0.0776
  336POPC   GL2 4024   0.954  23.774  18.611  0.0769 -0.2644  0.1443
  336POPC   C1A 4025   1.461  23.404  18.392 -0.1668 -0.0621  0.0865
  336POPC   D2A 4026   1.312  23.324  17.955 -0.4674  0.3043 -0.0478
  336POPC   C3A 4027   1.426  23.345  17.557 -0.3603  0.1869 -0.1977
  336POPC   C4A 4028   1.253  23.344  17.144 -0.0319  0.0347 -0.0385
  336POPC   C1B 4029   1.169  23.768  18.210 -0.0490 -0.2084  0.1914
  336POPC   C2B 4030   1.290  23.968  17.795 -0.0044  0.0492  0.1897
  336POPC   C3B 4031   1.528  24.288  17.669 -0.2965  0.2014 -0.1024
  336POPC   C4B 4032   1.421  24.677  17.392  0.3396 -0.1890 -0.0229
  337POPC   NC3 4033   9.549  21.883  19.480 -0.1299 -0.2276  0.0900
  337POPC   PO4 4034   9.228  22.150  19.514  0.0939  0.0158  0.1276
  337POPC   GL1 4035   9.066  22.051  19.166 -0.0586 -0.3398 -0.2520
  337POPC   GL2 4036   9.287  22.216  18.943 -0.3031  0.1068 -0.4181
  337POPC   C1A 4037   8.766  22.326  18.926  0.1714 -0.1267  0.0122
  337POPC   D2A 4038   8.514  22.667  18.748  0.1980  0.1010 -0.0502
  337POPC   C3A 4039   8.190  22.876  19.013 -0.1946 -0.3968  0.0169
  337POPC   C4A 4040   8.188  23.324  19.036 -0.1166  0.0087 -0.0145
  337POPC   C1B 4041   9.102  21.893  18.724 -0.0365  0.1853 -0.0875
  337POPC   C2B 4042   9.107  22.003  18.303  0.3503 -0.0781 -0.1710
  337POPC   C3B 4043   9.223  21.850  17.894 -0.0115  0.0935  0.2005
  337POPC   C4B 4044   9.425  21.611  17.527  0.1113 -0.0396  0.0243
  338POPC   NC3 4045  16.349  30.010  19.596 -0.0645 -0.4061 -0.0867
  338POPC   PO4 4046  16.725  30.191  19.688 -0.3049 -0.2818 -0.0875
  338POPC   GL1 4047  16.750  30.124  19.326  0.2344 -0.0693 -0.1286
  338POPC   GL2 4048  16.576  29.915  19.184 -0.0029  0.1847  0.1111
  338POPC   C1A 4049  16.916  30.198  18.891  0.0533 -0.0912 -0.0579
  338POPC   D2A 4050  17.340  30.050  18.667 -0.2096  0.0250 -0.1246
  338POPC   C3A 4051  17.181  30.042  18.228 -0.0159 -0.0636 -0.0924
  338POPC   C4A 4052  17.325  30.220  17.782  0.0588  0.1495  0.2167
  338POPC   C1B 4053  16.293  29.878  18.781  0.0522 -0.0541 -0.0801
  338POPC   C2B 4054  16.391  29.773  18.303 -0.0938  0.5297  0.1961
  338POPC   C3B 4055  16.401  29.620  17.896  0.3291 -0.1554  0.0022
  338POPC   C4B 4056  16.626  29.544  17.489  0.1807 -0.1475  0.0035
  339POPC   NC3 4057   8.932   5.217  19.243 -0.0375  0.1427 -0.0975
  339POPC   PO4 4058   8.899   4.804  19.162 -0.1401 -0.1033 -0.1275
  339POPC   GL1 4059   9.040   4.694  18.755 -0.0113 -0.0551 -0.1742
  339POPC   GL2 4060   8.971   4.439  18.768 -0.0719  0.0662  0.0449
  339POPC   C1A 4061   8.878   4.763  18.322  0.0713 -0.1348  0.3424
  339POPC   D2A 4062   8.711   5.031  17.986 -0.1363 -0.0217 -0.0742
  339POPC   C3A 4063   8.907   5.083  17.566  0.1666  0.1532 -0.1901
  339POPC   C4A 4064   9.090   4.870  17.201  0.0382  0.1715  0.3394
  339POPC   C1B 4065   9.242   4.423  18.345 -0.3128  0.1691 -0.0886
  339POPC   C2B 4066   9.277   4.231  17.922  0.3388 -0.1083  0.2517
  339POPC   C3B 4067   9.267   4.116  17.460 -0.0235 -0.1020  0.2260
  339POPC   C4B 4068   9.206   3.820  17.131  0.0978  0.0197 -0.0401
  340POPC   NC3 4069  24.031  15.516  19.966  0.1930  0.2615 -0.0897
  340POPC   PO4 4070  24.285  15.770  20.148  0.0524  0.0757 -0.0106
  340POPC   GL1 4071  24.210  15.978  19.689  0.3290  0.0192 -0.1372
  340POPC   GL2 4072  24.187  15.720  19.495  0.0686  0.0708 -0.0957
  340POPC   C1A 4073  24.043  16.426  19.671 -0.1676  0.1892 -0.1206
  340POPC   D2A 4074  23.926  16.775  19.859 -0.2315 -0.1464  0.0215
  340POPC   C3A 4075  23.740  17.144  19.683 -0.1886 -0.1799 -0.3236
  340POPC   C4A 4076  24.001  17.538  19.686 -0.1041  0.0172 -0.4275
  340POPC   C1B 4077  23.884  16.073  19.309  0.0077 -0.0975  0.0650
  340POPC   C2B 4078  23.635  16.392  19.057  0.0218  0.1712  0.1635
  340POPC   C3B 4079  23.398  16.716  18.736  0.0448 -0.2415 -0.1570
  340POPC   C4B 4080  23.177  17.060  18.570 -0.2964 -0.0876  0.1449
  341POPC   NC3 4081   8.179  30.994  19.467 -0.1797 -0.2254 -0.1230
  341POPC   PO4 4082   8.457  30.798  19.266 -0.1263 -0.1998 -0.0346
  341POPC   GL1 4083   8.463  31.021  18.948  0.1129 -0.1029  0.3842
  341POPC   GL2 4084   8.215  31.229  19.009 -0.0413 -0.0823  0.1961
  341POPC   C1A 4085   8.430  31.278  18.545  0.0868  0.0923  0.0479
  341POPC   D2A 4086   8.646  31.257  18.173 -0.1570 -0.5856  0.2110
  341POPC   C3A 4087   8.650  30.949  17.870 -0.0594  0.0603 -0.0866
  341POPC   C4A 4088   8.790  30.619  17.563  0.0421  0.1239  0.2281
  341POPC   C1B 4089   8.042  31.578  18.715  0.2390  0.1884  0.2339
  341POPC   C2B 4090   8.083  31.649  18.229 -0.1578  0.0739 -0.1334
  341POPC   C3B 4091   8.473  31.642  17.896  0.2434  0.1120  0.0042
  341POPC   C4B 4092   8.732  31.884  17.615  0.0496  0.3260 -0.2479
  342POPC   NC3 4093  21.746  10.060  19.739  0.3775  0.2955  0.0955
  342POPC   PO4 4094  21.922   9.690  19.697  0.0998  0.1881  0.1025
  342POPC   GL1 4095  21.890   9.658  19.345  0.1040  0.4807 -0.3318
  342POPC   GL2 4096  21.616   9.816  19.263 -0.1584  0.2157 -0.1090
  342POPC   C1A 4097  22.162   9.634  18.990 -0.3275 -0.1871  0.0863
  342POPC   D2A 4098  22.616   9.561  18.821 -0.0751 -0.0320  0.2145
  342POPC   C3A 4099  22.639   9.730  18.350 -0.0932  0.3305 -0.1725
  342POPC   C4A 4100  22.730   9.579  17.894 -0.1031  0.1805  0.2131
  342POPC   C1B 4101  21.842   9.974  18.874  0.1528  0.3919  0.0416
  342POPC   C2B 4102  21.987   9.809  18.421  0.4568 -0.5347 -0.2168
  342POPC   C3B 4103  22.103   9.923  17.997  0.0721  0.0375 -0.1167
  342POPC   C4B 4104  22.529   9.985  17.856 -0.1397  0.1745  0.2214
  343POPC   NC3 4105  21.320  21.524  20.186  0.3623 -0.0230 -0.1188
  343POPC   PO4 4106  21.126  21.298  19.958 -0.3298  0.0173  0.1174
  343POPC   GL1 4107  21.119  20.796  19.995 -0.0474  0.1444  0.2014
  343POPC   GL2 4108  20.969  20.592  19.904 -0.0505  0.1813 -0.0592
  343POPC   C1A 4109  21.558  20.691  19.970 -0.1389  0.1974  0.0307
  343POPC   D2A 4110  21.740  20.309  20.056 -0.2042  0.3443 -0.2059
  343POPC   C3A 4111  21.414  20.078  20.224 -0.0931  0.2546  0.1364
  343POPC   C4A 4112  21.403  20.044  20.695  0.0948 -0.1057  0.2637
  343POPC   C1B 4113  21.138  20.199  19.858 -0.0553  0.1450  0.2480
  343POPC   C2B 4114  21.521  19.908  19.762 -0.3631 -0.0988 -0.1775
  343POPC   C3B 4115  21.859  19.820  19.407  0.1333  0.2796  0.0420
  343POPC   C4B 4116  22.229  19.644  19.167  0.0446  0.1503 -0.2419
  344POPC   NC3 4117  26.925  13.666  19.673  0.2261 -0.1605 -0.1482
  344POPC   PO4 4118  26.830  13.717  19.316 -0.0285 -0.0269 -0.0278
  344POPC   GL1 4119  26.866  13.609  18.986 -0.1881 -0.1598  0.1137
  344POPC   GL2 4120  26.639  13.396  18.926 -0.2722 -0.4206  0.4555
  344POPC   C1A 4121  26.971  13.493  18.558  0.0825 -0.0729  0.2201
  344POPC   D2A 4122  26.973  13.306  18.136 -0.0646 -0.0639  0.2747
  344POPC   C3A 4123  26.819  13.508  17.733 -0.2530  0.0446 -0.2045
  344POPC   C4A 4124  26.667  13.709  17.327  0.1870  0.0268  0.1679
  344POPC   C1B 4125  26.399  13.400  18.545  0.0582  0.1740  0.0198
  344POPC   C2B 4126  26.368  13.337  18.068  0.1143 -0.1590 -0.2617
  344POPC   C3B 4127  26.623  13.044  17.846 -0.2061  0.5295  0.2005
  344POPC   C4B 4128  27.059  13.006  17.759  0.1449 -0.1444  0.0366
  345POPC   NC3 4129  18.839  31.257  19.417 -0.0694  0.1150 -0.1276
  345POPC   PO4 4130  19.192  31.129  19.245  0.0333 -0.0941  0.0272
  345POPC   GL1 4131  19.277  30.743  19.049 -0.0236 -0.0524 -0.1260
  345POPC   GL2 4132  19.445  30.546  19.109  0.3288 -0.1805 -0.0091
  345POPC   C1A 4133  19.211  30.811  18.622  0.0387 -0.1985  0.6018
  345POPC   D2A 4134  19.234  30.836  18.166 -0.0954  0.0054  0.0330
  345POPC   C3A 4135  19.747  30.823  18.070  0.0208 -0.0491  0.0653
  345POPC   C4A 4136  20.074  30.449  18.209  0.2994 -0.0744 -0.2239
  345POPC   C1B 4137  19.145  30.381  18.887  0.1965  0.0123 -0.1029
  345POPC   C2B 4138  19.193  30.309  18.421  0.3160  0.2064  0.0073
  345POPC   C3B 4139  19.195  30.408  17.980  0.0910 -0.1708 -0.0863
  345POPC   C4B 4140  19.272  30.487  17.561 -0.4214  0.2301 -0.0090
  346POPC   NC3 4141  19.277  21.607  19.504  0.0793  0.1963 -0.1084
  346POPC   PO4 4142  19.554  21.663  19.247  0.0059  0.2078 -0.2226
  346POPC   GL1 4143  19.635  21.736  18.918  0.2316 -0.0033 -0.0644
  346POPC   GL2 4144  19.981  21.668  18.934 -0.2503  0.0096  0.0400
  346POPC   C1A 4145  19.642  21.353  18.648  0.0752 -0.1950 -0.0001
  346POPC   D2A 4146  19.446  21.061  18.281  0.4243 -0.1671 -0.0719
  346POPC   C3A 4147  19.219  21.354  17.968  0.1839 -0.1875  0.2305
  346POPC   C4A 4148  19.070  21.584  17.599 -0.2108  0.0570 -0.3747
  346POPC   C1B 4149  20.104  22.116  18.700 -0.1012  0.4757 -0.1124
  346POPC   C2B 4150  20.279  22.279  18.308 -0.0095 -0.1881 -0.0556
  346POPC   C3B 4151  20.455  22.374  17.931 -0.1649  0.0467 -0.0093
  346POPC   C4B 4152  20.455  22.515  17.466 -0.1767 -0.3758 -0.0894
  347POPC   NC3 4153  14.497  16.776  18.888  0.1476  0.0886 -0.1639
  347POPC   PO4 4154  14.709  16.635  19.223 -0.2302  0.1564  0.3265
  347POPC   GL1 4155  14.993  16.569  18.971  0.2798  0.0678  0.2130
  347POPC   GL2 4156  15.201  16.661  19.046  0.1997  0.1195  0.0399
  347POPC   C1A 4157  15.138  16.466  18.554  0.1412 -0.0920  0.2919
  347POPC   D2A 4158  15.059  16.217  18.131 -0.0049  0.2437  0.1780
  347POPC   C3A 4159  15.385  16.324  17.837  0.1356  0.1448 -0.3126
  347POPC   C4A 4160  15.808  16.420  17.805  0.1487 -0.0173  0.2406
  347POPC   C1B 4161  15.567  16.458  18.772  0.0708 -0.0518 -0.1570
  347POPC   C2B 4162  15.773  16.516  18.329 -0.0259  0.5041 -0.2403
  347POPC   C3B 4163  15.705  16.054  18.095 -0.0486  0.2393 -0.3214
  347POPC   C4B 4164  15.664  15.943  17.662 -0.2940 -0.0008 -0.1629
  348POPC   NC3 4165  21.096  16.042  18.940 -0.0678  0.1397  0.1442
  348POPC   PO4 4166  21.228  16.398  18.850 -0.1947  0.1545  0.4211
  348POPC   GL1 4167  21.410  16.369  18.514 -0.0909 -0.3278  0.0477
  348POPC   GL2 4168  21.184  16.456  18.285 -0.3079  0.1844  0.0754
  348POPC   C1A 4169  21.709  16.505  18.179  0.2656 -0.3614  0.2220
  348POPC   D2A 4170  22.123  16.612  17.998 -0.2142  0.2226  0.2454
  348POPC   C3A 4171  22.373  16.743  17.724  0.3033  0.0764 -0.0861
  348POPC   C4A 4172  22.838  16.881  17.645 -0.1662 -0.0210 -0.0011
  348POPC   C1B 4173  20.962  16.629  17.897  0.0865 -0.0419  0.2399
  348POPC   C2B 4174  21.079  16.664  17.407  0.3275  0.0429 -0.1282
  348POPC   C3B 4175  21.079  16.288  17.138 -0.1719 -0.1264 -0.2539
  348POPC   C4B 4176  21.511  16.080  17.120 -0.4096  0.0535  0.0033
  349POPC   NC3 4177  23.374  10.929  19.783 -0.2433  0.2766  0.3165
  349POPC   PO4 4178  23.141  10.675  20.017  0.0416 -0.0598  0.0921
  349POPC   GL1 4179  22.995  10.730  19.601 -0.1149  0.0451 -0.2375
  349POPC   GL2 4180  22.830  10.930  19.617  0.0662 -0.3173  0.1192
  349POPC   C1A 4181  23.030  10.976  19.170 -0.1580  0.0388  0.0005
  349POPC   D2A 4182  23.344  10.907  18.794  0.1329 -0.0895  0.0810
  349POPC   C3A 4183  23.262  11.008  18.385 -0.2915 -0.1586  0.0028
  349POPC   C4A 4184  23.173  11.341  18.048  0.1323  0.2457 -0.0674
  349POPC   C1B 4185  22.507  10.888  19.360 -0.0028 -0.0084  0.0424
  349POPC   C2B 4186  22.336  10.971  18.904  0.1917  0.1270 -0.2901
  349POPC   C3B 4187  21.966  10.899  18.614  0.3684  0.1535  0.2549
  349POPC   C4B 4188  21.915  11.043  18.184  0.2622 -0.2185  0.2178
  350POPC   NC3 4189  26.470   6.367  19.495  0.1885  0.2880  0.2366
  350POPC   PO4 4190  26.433   6.543  19.159 -0.1194 -0.0280  0.1258
  350POPC   GL1 4191  26.298   6.514  18.778  0.4892 -0.0766  0.1280
  350POPC   GL2 4192  26.483   6.445  18.541  0.1050 -0.0295 -0.2785
  350POPC   C1A 4193  26.004   6.162  18.732 -0.0115  0.0276  0.0912
  350POPC   D2A 4194  25.874   5.741  18.628  0.1186  0.4464  0.0533
  350POPC   C3A 4195  26.031   5.606  18.224  0.1739 -0.1073 -0.0654
  350POPC   C4A 4196  26.241   5.469  17.864 -0.0394 -0.0156 -0.1776
  350POPC   C1B 4197  26.438   6.516  18.060 -0.2501  0.1131 -0.0873
  350POPC   C2B 4198  26.358   6.708  17.647  0.0159 -0.2064 -0.1586
  350POPC   C3B 4199  26.496   6.713  17.220 -0.1410  0.0073 -0.1713
  350POPC   C4B 4200  26.752   6.334  17.107  0.1504  0.2122 -0.1609
  351POPC   NC3 4201  30.827  25.850  18.741  0.0827 -0.0201  0.0024
  351POPC   PO4 4202  30.771  25.487  18.776 -0.1660 -0.0309  0.2379
  351POPC   GL1 4203  30.873  25.396  18.379 -0.1307 -0.6391 -0.1043
  351POPC   GL2 4204  31.187  25.553  18.381 -0.0312  0.0274 -0.2413
  351POPC   C1A 4205  30.854  25.505  17.900 -0.0225 -0.2170  0.0878
  351POPC   D2A 4206  30.984  25.617  17.444  0.1100  0.1455  0.0791
  351POPC   C3A 4207  31.229  25.997  17.371 -0.2411 -0.0444 -0.2913
  351POPC   C4A 4208  31.315  26.457  17.423  0.0325 -0.1931 -0.1739
  351POPC   C1B 4209  31.352  25.657  17.946 -0.0588 -0.1156 -0.1420
  351POPC   C2B 4210  31.628  25.665  17.634 -0.0332 -0.0302  0.0565
  351POPC   C3B 4211  31.916  26.082  17.487  0.0099  0.1118  0.2006
  351POPC   C4B 4212  31.853  26.489  17.234  0.4418  0.0131  0.1510
  352POPC   NC3 4213  17.317  21.042  19.666  0.4120 -0.1405  0.3081
  352POPC   PO4 4214  17.574  20.988  19.425  0.0481 -0.2641  0.1795
  352POPC   GL1 4215  17.718  20.770  19.192  0.3136  0.0574  0.1385
  352POPC   GL2 4216  17.696  20.669  18.934 -0.2062 -0.2567  0.2473
  352POPC   C1A 4217  18.128  20.567  19.114  0.0645 -0.2783  0.1684
  352POPC   D2A 4218  18.351  20.158  18.980  0.0805  0.1292  0.0188
  352POPC   C3A 4219  18.410  20.264  18.524  0.3755  0.0539 -0.1440
  352POPC   C4A 4220  18.248  20.275  18.111  0.1752 -0.0608 -0.0023
  352POPC   C1B 4221  18.083  20.707  18.647 -0.1089 -0.0231  0.1817
  352POPC   C2B 4222  18.315  20.767  18.254 -0.0291  0.2145  0.0763
  352POPC   C3B 4223  18.454  20.570  17.806 -0.0511 -0.1551 -0.1173
  352POPC   C4B 4224  18.622  20.221  17.655 -0.0524  0.0526  0.2201
  353POPC   NC3 4225   8.970  29.244  19.734 -0.2533 -0.2663 -0.1495
  353POPC   PO4 4226   9.224  29.200  19.460 -0.0557 -0.3239  0.0530
  353POPC   GL1 4227   9.170  29.273  19.045 -0.2928 -0.2526  0.2389
  353POPC   GL2 4228   9.340  29.487  19.027 -0.0671 -0.0414  0.1064
  353POPC   C1A 4229   8.791  29.347  18.807  0.1923  0.0157 -0.1425
  353POPC   D2A 4230   8.736  29.497  18.349  0.1278 -0.0698 -0.0980
  353POPC   C3A 4231   8.369  29.421  18.043  0.0688 -0.1135  0.2465
  353POPC   C4A 4232   7.884  29.314  17.978  0.0943 -0.0335 -0.2189
  353POPC   C1B 4233   9.357  29.406  18.585  0.5085  0.0533 -0.0332
  353POPC   C2B 4234   9.226  29.367  18.168 -0.0752 -0.1460 -0.0878
  353POPC   C3B 4235   9.109  29.454  17.720 -0.2120  0.1164  0.1620
  353POPC   C4B 4236   9.086  29.419  17.233  0.1825 -0.1557  0.1555
  354POPC   NC3 4237  27.861   9.298  19.558  0.0120  0.2732  0.1008
  354POPC   PO4 4238  27.764   9.676  19.580 -0.1226  0.0585  0.0872
  354POPC   GL1 4239  27.872   9.611  19.202 -0.0952  0.0021 -0.1012
  354POPC   GL2 4240  27.833   9.883  19.098  0.1684  0.1007 -0.0946
  354POPC   C1A 4241  27.836   9.448  18.766 -0.1726  0.0432  0.0325
  354POPC   D2A 4242  27.852   9.000  18.543 -0.1006 -0.1130 -0.1678
  354POPC   C3A 4243  27.862   8.897  18.055  0.1164  0.0889 -0.3108
  354POPC   C4A 4244  27.923   8.889  17.580  0.1359  0.1829  0.1863
  354POPC   C1B 4245  27.683   9.927  18.605  0.0577 -0.4812 -0.0649
  354POPC   C2B 4246  27.663  10.104  18.163  0.0093  0.0372 -0.1333
  354POPC   C3B 4247  27.538  10.281  17.740 -0.0231  0.1291 -0.2237
  354POPC   C4B 4248  27.675  10.417  17.291  0.1808  0.1297  0.1786
  355POPC   NC3 4249  20.107   0.740  18.956  0.1292 -0.0542  0.2497
  355POPC   PO4 4250  20.344   0.857  19.206 -0.0743 -0.1104  0.3492
  355POPC   GL1 4251  20.484   0.978  18.801  0.3950 -0.1878  0.1184
  355POPC   GL2 4252  20.312   1.243  18.662  0.0358  0.2639  0.1308
  355POPC   C1A 4253  20.562   0.876  18.333 -0.4316 -0.2396  0.0788
  355POPC   D2A 4254  20.691   0.889  17.944  0.1780  0.1432  0.3064
  355POPC   C3A 4255  20.574   1.208  17.673 -0.0991  0.0372  0.0134
  355POPC   C4A 4256  20.210   1.374  17.343 -0.2944 -0.1216  0.0350
  355POPC   C1B 4257  19.899   1.019  18.475 -0.0970 -0.0962 -0.2325
  355POPC   C2B 4258  19.671   1.023  18.014  0.2334  0.0071 -0.1512
  355POPC   C3B 4259  19.777   0.687  17.738  0.1298 -0.1956 -0.0044
  355POPC   C4B 4260  20.054   0.408  17.566 -0.2371  0.1625 -0.4857
  356POPC   NC3 4261  27.540  18.472  19.448  0.1954 -0.0106 -0.1569
  356POPC   PO4 4262  27.248  18.274  19.260 -0.1535 -0.3367 -0.1834
  356POPC   GL1 4263  27.080  18.651  19.028 -0.2689  0.2554  0.0076
  356POPC   GL2 4264  26.949  18.392  18.857 -0.1644  0.3373  0.0629
  356POPC   C1A 4265  27.258  18.686  18.628  0.0285 -0.0190 -0.2352
  356POPC   D2A 4266  27.336  18.733  18.206  0.0858  0.2046  0.2450
  356POPC   C3A 4267  27.481  18.733  17.760 -0.1312  0.0064 -0.0702
  356POPC   C4A 4268  27.849  18.633  17.486 -0.2939 -0.3624  0.4817
  356POPC   C1B 4269  26.958  18.406  18.384  0.2909 -0.0751  0.0598
  356POPC   C2B 4270  27.133  18.345  17.992 -0.2237  0.0174  0.3368
  356POPC   C3B 4271  27.290  18.305  17.532 -0.1030 -0.0401 -0.1644
  356POPC   C4B 4272  27.651  18.165  17.237 -0.0688  0.0265  0.2811
  357POPC   NC3 4273  28.726  13.943  19.061  0.1121  0.0490  0.2732
  357POPC   PO4 4274  28.770  14.312  18.984 -0.1440  0.2532  0.0960
  357POPC   GL1 4275  28.646  14.429  18.588  0.1589 -0.0411  0.1818
  357POPC   GL2 4276  28.825  14.507  18.359 -0.1991 -0.1537 -0.1846
  357POPC   C1A 4277  28.412  14.289  18.184  0.0435  0.2012  0.1612
  357POPC   D2A 4278  28.463  14.122  17.804  0.1915  0.0288 -0.0546
  357POPC   C3A 4279  28.831  13.880  17.708  0.1651  0.0020 -0.2249
  357POPC   C4A 4280  29.272  13.843  17.566 -0.1995 -0.0755 -0.1522
  357POPC   C1B 4281  28.868  14.400  17.884  0.0874 -0.1876  0.0571
  357POPC   C2B 4282  28.817  14.442  17.433 -0.1362 -0.1617  0.0288
  357POPC   C3B 4283  28.778  14.479  16.952 -0.0244  0.1440 -0.1644
  357POPC   C4B 4284  28.995  14.695  16.557  0.0483  0.0993  0.1552
  358POPC   NC3 4285  31.281   2.594  19.991 -0.3216 -0.0480 -0.0548
  358POPC   PO4 4286  31.582   2.772  19.771  0.0598 -0.2093 -0.0116
  358POPC   GL1 4287  31.341   2.533  19.445  0.0262 -0.1171 -0.1537
  358POPC   GL2 4288  31.470   2.610  19.227 -0.0838  0.0247 -0.0322
  358POPC   C1A 4289  31.358   2.087  19.220  0.0945  0.1297  0.2499
  358POPC   D2A 4290  31.546   1.792  18.912  0.1855 -0.0720  0.3135
  358POPC   C3A 4291  31.319   1.729  18.531  0.4058  0.3360 -0.2304
  358POPC   C4A 4292  31.170   1.761  18.139 -0.0914  0.2002 -0.3194
  358POPC   C1B 4293  31.522   2.716  18.764 -0.1963 -0.0776 -0.1283
  358POPC   C2B 4294  31.517   2.675  18.302 -0.3260 -0.0297  0.1122
  358POPC   C3B 4295  31.397   2.546  17.859  0.0445  0.0382 -0.2528
  358POPC   C4B 4296  31.131   2.550  17.460 -0.1691  0.1790  0.1484
  359POPC   NC3 4297  10.480  30.917  19.018 -0.1717  0.0415 -0.1337
  359POPC   PO4 4298  10.322  31.155  19.312 -0.1481  0.2329 -0.1090
  359POPC   GL1 4299  10.288  31.365  18.937 -0.0356 -0.2228 -0.4679
  359POPC   GL2 4300  10.585  31.368  18.834  0.0072 -0.2555  0.1836
  359POPC   C1A 4301  10.063  31.767  18.812  0.0530  0.1318  0.0192
  359POPC   D2A 4302  10.241  32.015  18.481  0.0029 -0.0023 -0.0206
  359POPC   C3A 4303  10.157  32.320  18.159 -0.2885  0.1209  0.0052
  359POPC   C4A 4304  10.049  32.629  17.825 -0.0198 -0.0728  0.1735
  359POPC   C1B 4305  10.404  31.570  18.487 -0.1662 -0.3754 -0.1269
  359POPC   C2B 4306  10.304  31.695  18.065 -0.3115 -0.2023  0.1005
  359POPC   C3B 4307  10.092  31.927  17.756 -0.0588 -0.1986 -0.2687
  359POPC   C4B 4308   9.719  32.231  17.745  0.0152  0.0095 -0.2082
  360POPC   NC3 4309  29.992  11.516  19.802 -0.1810 -0.1152  0.1195
  360POPC   PO4 4310  29.985  11.817  19.559  0.1201 -0.1086 -0.0933
  360POPC   GL1 4311  29.930  12.085  19.222 -0.1004 -0.0136 -0.3132
  360POPC   GL2 4312  30.070  12.153  18.963 -0.0341  0.2328 -0.3377
  360POPC   C1A 4313  29.560  12.196  18.930 -0.0373 -0.1450 -0.4148
  360POPC   D2A 4314  29.362  12.560  18.762 -0.0160  0.1307 -0.0546
  360POPC   C3A 4315  29.307  12.586  18.310 -0.1067  0.0081  0.2754
  360POPC   C4A 4316  29.285  12.844  17.934 -0.0811  0.1683  0.0540
  360POPC   C1B 4317  30.223  12.188  18.565  0.2296  0.3945 -0.4887
  360POPC   C2B 4318  30.032  12.172  18.154  0.1953 -0.0780 -0.2871
  360POPC   C3B 4319  29.871  12.224  17.732 -0.1402  0.1151 -0.4959
  360POPC   C4B 4320  29.608  12.628  17.571 -0.0655  0.1540  0.0823
  361POPC   NC3 4321  21.522  29.316  19.135  0.0018 -0.2355 -0.1342
  361POPC   PO4 4322  21.218  29.100  19.140 -0.2158 -0.2468  0.3798
  361POPC   GL1 4323  21.243  28.994  18.751 -0.0968  0.1042  0.2224
  361POPC   GL2 4324  20.964  28.942  18.632  0.0691 -0.0030  0.0918
  361POPC   C1A 4325  21.311  29.105  18.294 -0.1957  0.1767  0.0512
  361POPC   D2A 4326  21.088  29.352  17.891 -0.3122 -0.3397 -0.1621
  361POPC   C3A 4327  21.380  29.345  17.468 -0.2834  0.0032  0.4218
  361POPC   C4A 4328  21.783  29.184  17.492 -0.1567  0.1248  0.0022
  361POPC   C1B 4329  20.933  29.373  18.497  0.0905 -0.1202 -0.0979
  361POPC   C2B 4330  20.716  29.531  18.084 -0.1806  0.2044 -0.3542
  361POPC   C3B 4331  20.492  29.771  17.788  0.1120 -0.2842  0.1008
  361POPC   C4B 4332  20.272  29.693  17.446  0.1296  0.0563 -0.1112
  362POPC   NC3 4333   1.207  28.984  19.568  0.2137  0.1953  0.3682
  362POPC   PO4 4334   1.255  28.681  19.327 -0.1890  0.0848  0.2456
  362POPC   GL1 4335   1.085  28.924  19.105  0.5274  0.0904 -0.2413
  362POPC   GL2 4336   0.881  29.171  19.146 -0.0954 -0.0420 -0.0108
  362POPC   C1A 4337   1.065  29.099  18.655  0.0391  0.0509 -0.0635
  362POPC   D2A 4338   1.452  29.155  18.381 -0.3332 -0.1392 -0.0516
  362POPC   C3A 4339   1.386  29.304  17.942 -0.2375  0.3062  0.1472
  362POPC   C4A 4340   1.459  29.211  17.488  0.1994 -0.2988  0.1713
  362POPC   C1B 4341   0.740  28.801  18.886  0.0399 -0.0204 -0.2358
  362POPC   C2B 4342   0.976  28.569  18.548 -0.1071 -0.1970  0.2549
  362POPC   C3B 4343   0.973  28.447  18.092 -0.2765  0.0876  0.2566
  362POPC   C4B 4344   0.877  28.333  17.645  0.0472  0.0038  0.0302
  363POPC   NC3 4345   0.528   3.870  19.265  0.2310  0.5009 -0.1242
  363POPC   PO4 4346   0.715   4.068  18.993  0.0343  0.0345  0.1781
  363POPC   GL1 4347   0.566   4.149  18.610 -0.2621 -0.0157  0.0630
  363POPC   GL2 4348   0.397   3.927  18.519 -0.0507 -0.1928 -0.2033
  363POPC   C1A 4349   0.869   4.455  18.366 -0.0227 -0.0629  0.3298
  363POPC   D2A 4350   1.153   4.710  18.102 -0.1017 -0.0421 -0.0913
  363POPC   C3A 4351   1.400   5.082  18.233 -0.0378 -0.1375 -0.0671
  363POPC   C4A 4352   1.776   5.356  18.186 -0.3215 -0.2371  0.1391
  363POPC   C1B 4353   0.688   4.002  18.150 -0.4253 -0.0684  0.0915
  363POPC   C2B 4354   0.909   4.260  17.890 -0.1587 -0.1196  0.0235
  363POPC   C3B 4355   0.921   4.653  17.686  0.1177 -0.1719 -0.1469
  363POPC   C4B 4356   0.669   5.014  17.647 -0.1181 -0.2484 -0.0648
  364POPC   NC3 4357  24.453  16.265  19.968  0.1108  0.0901 -0.3825
  364POPC   PO4 4358  24.793  16.331  19.775  0.2103 -0.0848 -0.1117
  364POPC   GL1 4359  24.657  16.502  19.510 -0.0651 -0.0817  0.4389
  364POPC   GL2 4360  24.460  16.268  19.357 -0.2685 -0.2577  0.2134
  364POPC   C1A 4361  24.291  16.788  19.454  0.0004  0.0559  0.1798
  364POPC   D2A 4362  23.883  16.797  19.327  0.1484 -0.1961 -0.0809
  364POPC   C3A 4363  23.733  16.987  18.968 -0.0487  0.2708 -0.4217
  364POPC   C4A 4364  23.498  17.330  18.828  0.0125  0.0212  0.1062
  364POPC   C1B 4365  24.137  16.299  18.957 -0.1137  0.0450 -0.0931
  364POPC   C2B 4366  23.807  16.372  18.614  0.6699  0.0079 -0.0540
  364POPC   C3B 4367  23.509  16.515  18.249 -0.1264  0.4536 -0.1302
  364POPC   C4B 4368  23.235  16.448  17.884 -0.0454 -0.0632 -0.4056
  365POPC   NC3 4369  30.062   0.417  19.867  0.0040  0.0677  0.0722
  365POPC   PO4 4370  30.140   0.526  19.487 -0.1126  0.0477 -0.1820
  365POPC   GL1 4371  30.137   0.335  19.125  0.0644 -0.1691  0.3854
  365POPC   GL2 4372  30.055   0.072  19.155  0.0943 -0.0003 -0.3921
  365POPC   C1A 4373  29.952   0.541  18.772 -0.1962  0.1535 -0.2016
  365POPC   D2A 4374  29.900   0.981  18.676  0.0302 -0.1640  0.0971
  365POPC   C3A 4375  29.916   1.149  18.281  0.0611 -0.2227 -0.5117
  365POPC   C4A 4376  30.135   1.066  17.893  0.0276 -0.1554 -0.3429
  365POPC   C1B 4377  30.298   0.120  18.764  0.3801  0.1496  0.1671
  365POPC   C2B 4378  30.546   0.028  18.371  0.0040  0.0990 -0.1277
  365POPC   C3B 4379  30.460   0.313  18.091 -0.1534  0.0752  0.2086
  365POPC   C4B 4380  30.222   0.523  17.812 -0.2171  0.1011  0.3224
  366POPC   NC3 4381  27.789  12.358  19.670  0.2662  0.2045  0.3353
  366POPC   PO4 4382  28.118  12.180  19.590 -0.1138 -0.1044 -0.2117
  366POPC   GL1 4383  28.200  12.339  19.272 -0.0895  0.4215  0.1618
  366POPC   GL2 4384  28.317  12.125  19.129 -0.0231 -0.0087  0.3918
  366POPC   C1A 4385  27.967  12.307  18.858 -0.1568  0.0879  0.0884
  366POPC   D2A 4386  27.991  12.477  18.462 -0.2370  0.3819  0.2631
  366POPC   C3A 4387  28.382  12.757  18.435  0.3221  0.0617 -0.0708
  366POPC   C4A 4388  28.501  13.176  18.288 -0.1691  0.0221 -0.0044
  366POPC   C1B 4389  28.527  12.317  18.731 -0.0757 -0.2329  0.2151
  366POPC   C2B 4390  28.608  12.364  18.278  0.1336 -0.0303  0.0147
  366POPC   C3B 4391  28.954  12.400  17.975  0.0600 -0.1759  0.1452
  366POPC   C4B 4392  29.128  12.465  17.560 -0.2427 -0.1000 -0.0420
  367POPC   NC3 4393  19.255  11.810  19.409  0.0862  0.0588 -0.1056
  367POPC   PO4 4394  18.980  11.594  19.478 -0.0488  0.1208 -0.0869
  367POPC   GL1 4395  18.939  11.621  19.064  0.0554  0.1310  0.0889
  367POPC   GL2 4396  18.771  11.853  19.066 -0.2418 -0.0573 -0.1994
  367POPC   C1A 4397  19.151  11.446  18.708  0.1909 -0.2750 -0.1039
  367POPC   D2A 4398  19.473  11.126  18.670  0.1697  0.1675  0.3639
  367POPC   C3A 4399  19.730  11.047  18.295  0.2041 -0.0415 -0.1170
  367POPC   C4A 4400  20.013  11.009  17.931 -0.2649 -0.0131  0.1128
  367POPC   C1B 4401  18.526  11.749  18.695 -0.5360  0.0456 -0.2591
  367POPC   C2B 4402  18.235  11.692  18.339  0.0604 -0.1000 -0.1976
  367POPC   C3B 4403  18.115  11.608  17.924  0.0860 -0.0040 -0.0768
  367POPC   C4B 4404  18.376  11.497  17.498 -0.0328  0.1230 -0.1332
  368POPC   NC3 4405  20.145  24.571  19.362 -0.0875  0.1001  0.2424
  368POPC   PO4 4406  20.491  24.396  19.326  0.1348  0.1921  0.1647
  368POPC   GL1 4407  20.400  24.155  19.040  0.1163 -0.0734  0.0115
  368POPC   GL2 4408  20.621  24.151  18.881  0.1859  0.1555 -0.1586
  368POPC   C1A 4409  20.296  23.750  18.815 -0.0966  0.2017  0.1579
  368POPC   D2A 4410  19.903  23.564  18.644 -0.1133 -0.0370 -0.3195
  368POPC   C3A 4411  19.832  23.367  18.213 -0.2986  0.1163 -0.1555
  368POPC   C4A 4412  19.830  23.224  17.815  0.3388  0.1363 -0.0449
  368POPC   C1B 4413  20.299  24.402  18.691 -0.0514  0.0251  0.2017
  368POPC   C2B 4414  20.322  24.715  18.361  0.1566  0.1996 -0.0600
  368POPC   C3B 4415  20.285  24.738  17.921 -0.0880  0.3462  0.2691
  368POPC   C4B 4416  20.077  24.565  17.617 -0.1085 -0.0436  0.1817
  369POPC   NC3 4417  23.149  21.226  19.258  0.2326  0.1644 -0.1592
  369POPC   PO4 4418  23.454  20.962  19.257 -0.2247  0.3565 -0.0400
  369POPC   GL1 4419  23.265  20.823  18.970  0.1071 -0.4367 -0.0365
  369POPC   GL2 4420  23.409  20.881  18.698  0.1567 -0.1938 -0.0095
  369POPC   C1A 4421  23.224  20.409  18.780 -0.1596  0.1411  0.2576
  369POPC   D2A 4422  23.240  20.246  18.334 -0.3823  0.1380  0.1880
  369POPC   C3A 4423  22.911  20.222  18.011  0.0958  0.2810  0.2887
  369POPC   C4A 4424  22.723  20.072  17.597 -0.0340 -0.0691 -0.2082
  369POPC   C1B 4425  23.607  20.737  18.319 -0.0009  0.0096 -0.1894
  369POPC   C2B 4426  23.470  20.449  17.930 -0.1240  0.0826  0.1591
  369POPC   C3B 4427  23.270  20.119  17.682  0.1146 -0.1975 -0.0854
  369POPC   C4B 4428  23.065  19.757  17.483  0.1626 -0.0041  0.1268
  370POPC   NC3 4429  10.515  11.954  19.534  0.1354  0.1525 -0.1172
  370POPC   PO4 4430  10.821  12.165  19.539  0.1281 -0.1424  0.4305
  370POPC   GL1 4431  10.751  12.055  19.151 -0.0896 -0.2828 -0.1687
  370POPC   GL2 4432  10.836  11.836  19.077 -0.1965  0.0441  0.0013
  370POPC   C1A 4433  10.488  11.923  18.787 -0.2417 -0.1720 -0.0125
  370POPC   D2A 4434  10.329  11.898  18.368 -0.2268 -0.1892 -0.0779
  370POPC   C3A 4435  10.561  11.786  17.987  0.3683  0.1285  0.1350
  370POPC   C4A 4436  10.785  11.725  17.555  0.2820  0.1618 -0.1978
  370POPC   C1B 4437  10.940  11.935  18.661  0.1076  0.1997 -0.0898
  370POPC   C2B 4438  10.923  12.059  18.225  0.0882 -0.0784  0.1689
  370POPC   C3B 4439  10.860  12.144  17.800  0.0045 -0.2296  0.1212
  370POPC   C4B 4440  10.572  12.204  17.457  0.1106 -0.1174  0.1500
  371POPC   NC3 4441  20.728   3.865  19.596  0.2408 -0.1387 -0.0633
  371POPC   PO4 4442  20.910   3.569  19.429 -0.2508  0.1533 -0.0816
  371POPC   GL1 4443  20.734   3.588  19.174 -0.0964  0.2019 -0.1088
  371POPC   GL2 4444  20.442   3.737  19.219  0.0963  0.4335 -0.2901
  371POPC   C1A 4445  20.798   3.632  18.708 -0.0359  0.2978  0.1878
  371POPC   D2A 4446  20.624   3.538  18.299  0.1028 -0.1465  0.0460
  371POPC   C3A 4447  20.850   3.348  17.924 -0.1878 -0.2437 -0.2160
  371POPC   C4A 4448  20.947   3.284  17.466  0.0225 -0.1427 -0.3143
  371POPC   C1B 4449  20.233   3.695  18.846  0.2403  0.0506 -0.2116
  371POPC   C2B 4450  20.023   3.612  18.446  0.1673  0.2007 -0.1318
  371POPC   C3B 4451  19.809   3.422  18.115  0.0253  0.1652  0.0241
  371POPC   C4B 4452  19.851   3.114  17.757  0.2034 -0.2466  0.1057
  372POPC   NC3 4453   3.105  12.220  19.815  0.0353  0.1442 -0.1188
  372POPC   PO4 4454   3.124  12.486  19.536  0.2055 -0.0534  0.5415
  372POPC   GL1 4455   3.340  12.676  19.127  0.0006  0.0849 -0.1306
  372POPC   GL2 4456   3.066  12.843  19.159 -0.2600  0.0226 -0.0489
  372POPC   C1A 4457   3.380  12.502  18.719  0.1534  0.1211 -0.1379
  372POPC   D2A 4458   3.692  12.645  18.470  0.0938  0.2664  0.3869
  372POPC   C3A 4459   3.715  12.641  17.962  0.2594 -0.3120 -0.0591
  372POPC   C4A 4460   3.591  12.342  17.639  0.1440 -0.2573  0.0945
  372POPC   C1B 4461   3.050  12.906  18.692 -0.1320 -0.1916 -0.3548
  372POPC   C2B 4462   3.256  12.873  18.269 -0.3046 -0.0662 -0.1620
  372POPC   C3B 4463   3.390  12.916  17.793  0.1821  0.1666  0.3476
  372POPC   C4B 4464   3.510  13.268  17.530 -0.0109  0.1875 -0.0444
  373POPC   NC3 4465  12.269  26.226  19.443 -0.0579 -0.0357 -0.0898
  373POPC   PO4 4466  11.925  26.386  19.547 -0.2284 -0.1541  0.0917
  373POPC   GL1 4467  12.054  26.498  19.100 -0.4120  0.3086 -0.2974
  373POPC   GL2 4468  12.300  26.673  19.114  0.2627  0.0492 -0.1812
  373POPC   C1A 4469  12.061  26.723  18.695 -0.0088  0.2878 -0.2963
  373POPC   D2A 4470  12.305  26.788  18.290 -0.0960  0.3534 -0.0720
  373POPC   C3A 4471  11.944  26.895  17.988  0.4490 -0.2085 -0.0329
  373POPC   C4A 4472  11.663  26.644  17.593  0.0856 -0.4172 -0.0304
  373POPC   C1B 4473  12.515  26.967  18.782 -0.0825  0.1960 -0.1403
  373POPC   C2B 4474  12.651  27.257  18.444 -0.3424  0.1100  0.1543
  373POPC   C3B 4475  12.909  27.470  18.107  0.2311 -0.2085 -0.3913
  373POPC   C4B 4476  13.180  27.812  17.878  0.2961  0.1245 -0.1133
  374POPC   NC3 4477   4.289  15.755  19.528  0.3125 -0.1580 -0.0586
  374POPC   PO4 4478   4.711  15.847  19.468  0.1949 -0.3116  0.1712
  374POPC   GL1 4479   4.618  15.827  19.087  0.2903  0.0211 -0.2925
  374POPC   GL2 4480   4.317  15.960  19.102 -0.1588 -0.3826  0.0853
  374POPC   C1A 4481   4.836  15.542  18.868 -0.0823  0.1954 -0.0144
  374POPC   D2A 4482   5.155  15.346  18.529 -0.0120 -0.0566  0.2059
  374POPC   C3A 4483   5.161  15.287  18.092 -0.0231 -0.1537 -0.1368
  374POPC   C4A 4484   5.295  15.071  17.759 -0.0986 -0.1751  0.2270
  374POPC   C1B 4485   4.488  16.132  18.712  0.0258 -0.3130  0.1345
  374POPC   C2B 4486   4.397  16.368  18.309  0.1127  0.0615  0.0934
  374POPC   C3B 4487   4.114  16.287  17.958 -0.0435  0.0505  0.2017
  374POPC   C4B 4488   4.163  16.361  17.491 -0.1984 -0.2905  0.0673
  375POPC   NC3 4489  28.397  25.731  19.317  0.0363 -0.0544  0.0108
  375POPC   PO4 4490  28.713  25.596  19.152 -0.1387 -0.0344  0.1112
  375POPC   GL1 4491  28.464  25.567  18.818  0.0169  0.1195 -0.1762
  375POPC   GL2 4492  28.294  25.282  18.848 -0.0003 -0.2640 -0.2075
  375POPC   C1A 4493  28.478  25.861  18.401  0.1862  0.2305  0.0096
  375POPC   D2A 4494  28.247  26.114  18.064 -0.0355 -0.0973  0.0644
  375POPC   C3A 4495  28.369  26.329  17.681 -0.2385  0.0273 -0.0002
  375POPC   C4A 4496  28.119  26.714  17.455  0.0961  0.0565 -0.3062
  375POPC   C1B 4497  27.944  25.154  18.592 -0.0199  0.2652  0.2511
  375POPC   C2B 4498  27.852  25.256  18.167  0.3381  0.1918 -0.1624
  375POPC   C3B 4499  27.977  25.343  17.731  0.2288 -0.1661  0.0519
  375POPC   C4B 4500  28.383  25.373  17.472 -0.2937  0.1813  0.0320
  376POPC   NC3 4501  27.679  24.199  18.898  0.1162 -0.1503 -0.0986
  376POPC   PO4 4502  27.315  24.354  18.990 -0.2272  0.2773  0.0232
  376POPC   GL1 4503  27.255  24.033  18.863 -0.1362  0.2332  0.0205
  376POPC   GL2 4504  27.026  24.090  18.678  0.2210 -0.3693 -0.1971
  376POPC   C1A 4505  27.483  23.783  18.603 -0.0883  0.0670  0.0923
  376POPC   D2A 4506  27.859  23.827  18.412 -0.1962 -0.2875  0.2652
  376POPC   C3A 4507  27.874  23.601  18.013 -0.1131 -0.1048  0.1028
  376POPC   C4A 4508  27.714  23.323  17.724  0.0536  0.2124  0.1592
  376POPC   C1B 4509  27.337  24.268  18.387 -0.1701 -0.2274  0.0302
  376POPC   C2B 4510  27.313  24.475  17.946  0.2253 -0.0001 -0.2698
  376POPC   C3B 4511  27.642  24.543  17.625 -0.1908 -0.2815 -0.3249
  376POPC   C4B 4512  27.779  24.710  17.221 -0.0933  0.2440  0.0189
  377POPC   NC3 4513   1.769  19.518  19.085 -0.0308 -0.2293  0.2016
  377POPC   PO4 4514   1.964  19.872  19.165 -0.2652  0.0585  0.2748
  377POPC   GL1 4515   2.091  19.729  18.803  0.0791 -0.5120  0.0833
  377POPC   GL2 4516   2.145  19.998  18.705  0.0729  0.0814 -0.0633
  377POPC   C1A 4517   1.929  19.661  18.381  0.0601 -0.3231  0.2602
  377POPC   D2A 4518   1.950  19.350  18.010 -0.2521  0.1181 -0.0546
  377POPC   C3A 4519   2.203  19.291  17.604 -0.1015  0.0398  0.2692
  377POPC   C4A 4520   2.212  19.703  17.367 -0.2152  0.2040  0.3040
  377POPC   C1B 4521   2.349  20.103  18.259 -0.0042 -0.1110  0.0059
  377POPC   C2B 4522   2.503  20.043  17.817  0.2212 -0.0920 -0.2171
  377POPC   C3B 4523   2.466  20.176  17.356 -0.0612 -0.2021 -0.1095
  377POPC   C4B 4524   2.207  20.060  17.001 -0.1809  0.2940  0.0993
  378POPC   NC3 4525  31.428   9.812  19.405 -0.1935 -0.1143 -0.0894
  378POPC   PO4 4526  31.684  10.116  19.445  0.1395 -0.1101 -0.3460
  378POPC   GL1 4527  31.691   9.983  19.020 -0.1033  0.1485 -0.3374
  378POPC   GL2 4528  31.749  10.222  18.891  0.0919  0.3470 -0.0039
  378POPC   C1A 4529  31.631   9.728  18.634  0.0975 -0.3776  0.0074
  378POPC   D2A 4530  31.694   9.768  18.147 -0.0140 -0.3050 -0.1635
  378POPC   C3A 4531  31.629  10.191  17.916  0.1722  0.0407 -0.2150
  378POPC   C4A 4532  31.513  10.567  17.667  0.0903 -0.0342 -0.1716
  378POPC   C1B 4533  31.869  10.175  18.407  0.1292  0.1110  0.0852
  378POPC   C2B 4534  32.157  10.199  18.029  0.1083 -0.2015 -0.1723
  378POPC   C3B 4535  32.098   9.783  17.774  0.1462  0.1101  0.1297
  378POPC   C4B 4536  31.894   9.423  17.599 -0.1797 -0.1451  0.1490
  379POPC   NC3 4537  25.173  21.132  18.980 -0.1139 -0.0348  0.1131
  379POPC   PO4 4538  24.851  21.017  19.072  0.3546  0.1504  0.0934
  379POPC   GL1 4539  24.832  20.850  18.664  0.2019 -0.2106 -0.2593
  379POPC   GL2 4540  24.832  20.578  18.580  0.1015  0.2168  0.0420
  379POPC   C1A 4541  25.056  20.843  18.250 -0.2007  0.2205  0.4947
  379POPC   D2A 4542  25.014  20.953  17.818 -0.1172  0.2873  0.2569
  379POPC   C3A 4543  25.238  20.923  17.465 -0.1217  0.1035  0.0467
  379POPC   C4A 4544  25.648  21.073  17.296  0.1052  0.2517 -0.0702
  379POPC   C1B 4545  24.579  20.649  18.168 -0.0075  0.2065  0.0111
  379POPC   C2B 4546  24.412  20.341  17.866  0.1700 -0.0788  0.2048
  379POPC   C3B 4547  24.408  20.030  17.554  0.4083  0.1824 -0.2977
  379POPC   C4B 4548  24.391  19.561  17.391 -0.2400 -0.3246 -0.0062
  380POPC   NC3 4549  10.319   2.733  20.153 -0.0217 -0.0756  0.2777
  380POPC   PO4 4550  10.537   2.611  19.824 -0.0263  0.2280 -0.0992
  380POPC   GL1 4551  10.178   2.563  19.782 -0.1003 -0.0140  0.3997
  380POPC   GL2 4552  10.186   2.229  19.721 -0.2321 -0.2455  0.1366
  380POPC   C1A 4553   9.811   2.547  19.483  0.0720  0.2517  0.0132
  380POPC   D2A 4554   9.550   2.565  19.154 -0.2531 -0.2723 -0.0309
  380POPC   C3A 4555   9.453   2.161  19.244 -0.0230  0.1061  0.1633
  380POPC   C4A 4556   9.269   1.838  18.996  0.2765  0.1940 -0.0537
  380POPC   C1B 4557   9.919   1.987  19.382 -0.1593 -0.0050 -0.1811
  380POPC   C2B 4558   9.667   1.671  19.168 -0.3042 -0.0675  0.0457
  380POPC   C3B 4559   9.564   1.266  18.981  0.1527 -0.1996  0.3313
  380POPC   C4B 4560   9.406   0.822  18.936  0.1820  0.2114 -0.0340
  381POPC   NC3 4561  16.981  16.736  19.086  0.2084 -0.1105  0.1057
  381POPC   PO4 4562  17.352  16.838  19.162 -0.0377 -0.1053 -0.0042
  381POPC   GL1 4563  17.336  16.693  18.769  0.1444  0.2721 -0.2830
  381POPC   GL2 4564  17.199  16.877  18.646 -0.1046 -0.0276 -0.0007
  381POPC   C1A 4565  17.626  16.350  18.555 -0.3141 -0.4009 -0.1113
  381POPC   D2A 4566  17.658  16.088  18.197  0.0122  0.3103 -0.1971
  381POPC   C3A 4567  17.870  16.163  17.841 -0.3344 -0.0624  0.1142
  381POPC   C4A 4568  18.127  16.296  17.540  0.0304 -0.3287 -0.2548
  381POPC   C1B 4569  17.210  16.572  18.330  0.1843  0.2247  0.0586
  381POPC   C2B 4570  17.474  16.494  17.930  0.0529 -0.2219  0.2726
  381POPC   C3B 4571  17.771  16.643  17.623  0.2819 -0.1956 -0.2097
  381POPC   C4B 4572  17.775  16.570  17.204  0.2085 -0.1661 -0.0334
  382POPC   NC3 4573  29.345   0.699  19.382 -0.2197 -0.0042 -0.1849
  382POPC   PO4 4574  29.039   0.679  19.128 -0.0358  0.1758 -0.0136
  382POPC   GL1 4575  29.273   0.915  18.998 -0.1459 -0.4075  0.0222
  382POPC   GL2 4576  29.103   1.141  18.847  0.0597  0.4227  0.1698
  382POPC   C1A 4577  29.373   0.893  18.531  0.1224 -0.1448  0.3743
  382POPC   D2A 4578  29.364   1.022  18.088 -0.0295  0.3405  0.0310
  382POPC   C3A 4579  29.655   1.106  17.711  0.1642 -0.0232 -0.1958
  382POPC   C4A 4580  29.760   1.144  17.266 -0.1869  0.1105 -0.2653
  382POPC   C1B 4581  29.041   1.264  18.419 -0.0391  0.1537  0.0651
  382POPC   C2B 4582  29.045   1.380  17.957 -0.0380  0.2643 -0.1374
  382POPC   C3B 4583  29.084   1.712  17.639  0.0011 -0.4322 -0.0286
  382POPC   C4B 4584  29.054   2.169  17.513 -0.3160 -0.0267 -0.1641
  383POPC   NC3 4585   6.668  13.028  19.190 -0.0889 -0.0276 -0.3806
  383POPC   PO4 4586   6.925  12.713  19.113  0.0514  0.0015 -0.1798
  383POPC   GL1 4587   7.216  12.724  18.749  0.1527  0.0491 -0.0207
  383POPC   GL2 4588   7.088  12.969  18.699  0.0773  0.0743  0.2373
  383POPC   C1A 4589   7.669  12.691  18.594 -0.2958 -0.0588  0.0551
  383POPC   D2A 4590   8.137  12.861  18.457  0.1117 -0.2375 -0.2426
  383POPC   C3A 4591   8.429  12.514  18.301  0.1251  0.0242  0.1520
  383POPC   C4A 4592   8.684  12.213  18.144  0.3765 -0.0789 -0.0091
  383POPC   C1B 4593   6.843  13.259  18.497  0.2059 -0.3767 -0.0053
  383POPC   C2B 4594   6.690  13.486  18.125 -0.1437 -0.0150 -0.0509
  383POPC   C3B 4595   6.869  13.691  17.770 -0.0171 -0.0422 -0.1867
  383POPC   C4B 4596   7.064  14.055  17.508 -0.0998 -0.0508  0.0876
  384POPC   NC3 4597  10.371  16.902  19.342  0.0410  0.1257 -0.0412
  384POPC   PO4 4598  10.401  16.526  19.384 -0.0108  0.3323 -0.1465
  384POPC   GL1 4599  10.499  16.520  19.037 -0.3133  0.0986  0.2019
  384POPC   GL2 4600  10.188  16.366  18.996 -0.2697 -0.2971 -0.1955
  384POPC   C1A 4601  10.576  16.196  18.748  0.0774 -0.0587 -0.1389
  384POPC   D2A 4602  10.514  15.912  18.405 -0.1808  0.3872 -0.0108
  384POPC   C3A 4603  10.367  15.960  17.932  0.0334 -0.4365  0.0263
  384POPC   C4A 4604  10.462  16.265  17.620 -0.1279 -0.0605  0.0414
  384POPC   C1B 4605   9.997  16.292  18.568  0.2881 -0.2163  0.0913
  384POPC   C2B 4606   9.979  16.196  18.120 -0.1425 -0.3147 -0.0930
  384POPC   C3B 4607   9.864  16.148  17.662 -0.1294  0.2395  0.2616
  384POPC   C4B 4608  10.060  16.262  17.281 -0.1137 -0.0994  0.0955
  385POPC   NC3 4609  22.239  11.606  19.832  0.1648 -0.1269 -0.4035
  385POPC   PO4 4610  22.171  11.978  19.937 -0.1852  0.2260 -0.2138
  385POPC   GL1 4611  22.140  12.119  19.509 -0.2113 -0.0908  0.2493
  385POPC   GL2 4612  22.277  11.834  19.378  0.0472 -0.1899 -0.0137
  385POPC   C1A 4613  22.595  12.316  19.385  0.1420  0.1821 -0.2646
  385POPC   D2A 4614  22.890  12.669  19.356 -0.3183  0.1917 -0.0501
  385POPC   C3A 4615  22.813  12.803  18.963  0.3018  0.1331 -0.1268
  385POPC   C4A 4616  22.648  12.682  18.563 -0.1633  0.2637 -0.0947
  385POPC   C1B 4617  22.327  12.072  19.014 -0.0352  0.3622 -0.1414
  385POPC   C2B 4618  22.347  12.212  18.571  0.0105 -0.0475 -0.0382
  385POPC   C3B 4619  22.093  12.039  18.153  0.1580  0.4475  0.0883
  385POPC   C4B 4620  22.147  11.957  17.730 -0.2010  0.0018 -0.2141
  386POPC   NC3 4621  15.159  29.574  19.229  0.2615  0.1839  0.0071
  386POPC   PO4 4622  14.779  29.488  19.371  0.0201 -0.0955  0.2712
  386POPC   GL1 4623  14.559  29.576  19.138 -0.3072  0.0233 -0.2036
  386POPC   GL2 4624  14.777  29.711  18.930  0.0812 -0.0005 -0.1095
  386POPC   C1A 4625  14.378  29.375  18.793  0.0158 -0.1584  0.1757
  386POPC   D2A 4626  14.274  29.374  18.315 -0.1054 -0.4324  0.0350
  386POPC   C3A 4627  14.465  29.280  17.831  0.0675  0.5563 -0.1832
  386POPC   C4A 4628  14.842  29.042  17.638  0.1806 -0.1363  0.0926
  386POPC   C1B 4629  14.622  29.739  18.523  0.0031  0.2943  0.1028
  386POPC   C2B 4630  14.537  29.720  18.100 -0.1697  0.1100  0.1285
  386POPC   C3B 4631  14.261  29.796  17.759  0.0827  0.0062 -0.1065
  386POPC   C4B 4632  13.853  29.828  17.527  0.0491  0.0991 -0.0438
  387POPC   NC3 4633   2.068  25.488  19.230 -0.1310 -0.0334  0.2141
  387POPC   PO4 4634   2.425  25.572  19.154 -0.0156  0.2582 -0.1838
  387POPC   GL1 4635   2.375  25.534  18.724  0.2982 -0.1325 -0.0794
  387POPC   GL2 4636   2.293  25.768  18.720 -0.3238  0.1389  0.1861
  387POPC   C1A 4637   2.642  25.464  18.361  0.2586 -0.1001  0.2804
  387POPC   D2A 4638   2.808  25.618  17.968  0.1694  0.1867 -0.0459
  387POPC   C3A 4639   3.262  25.541  17.732 -0.1386 -0.0617 -0.2944
  387POPC   C4A 4640   3.649  25.789  17.785 -0.0257 -0.1827 -0.0460
  387POPC   C1B 4641   2.453  25.917  18.286  0.2855 -0.0484 -0.1430
  387POPC   C2B 4642   2.656  26.059  17.947 -0.0115 -0.1197 -0.0864
  387POPC   C3B 4643   2.700  26.371  17.645 -0.0860  0.1404 -0.1600
  387POPC   C4B 4644   2.734  26.639  17.273 -0.1900 -0.0055 -0.1871
  388POPC   NC3 4645   0.284   0.692  19.646  0.0149 -0.1335 -0.2056
  388POPC   PO4 4646   0.022   0.448  19.566 -0.1406  0.0375  0.0016
  388POPC   GL1 4647  -0.088   0.489  19.231 -0.1540 -0.0198  0.3410
  388POPC   GL2 4648  -0.389   0.457  19.152 -0.2650 -0.2797 -0.1748
  388POPC   C1A 4649  -0.037   0.224  18.836 -0.1348 -0.2192  0.0651
  388POPC   D2A 4650  -0.343   0.238  18.513  0.1754  0.1016 -0.2919
  388POPC   C3A 4651  -0.054   0.485  18.258  0.1304 -0.0080  0.4092
  388POPC   C4A 4652   0.183   0.574  17.860  0.1309  0.0289 -0.1103
  388POPC   C1B 4653  -0.592   0.633  18.784 -0.2742  0.1923 -0.1045
  388POPC   C2B 4654  -0.825   0.830  18.479  0.0763 -0.0460  0.0096
  388POPC   C3B 4655  -1.054   0.759  18.065  0.1342 -0.3618 -0.2114
  388POPC   C4B 4656  -1.153   0.821  17.603 -0.2479 -0.0676  0.3941
  389POPC   NC3 4657  20.274  26.221  18.768 -0.3353  0.3645 -0.2338
  389POPC   PO4 4658  20.171  26.454  19.063 -0.1129  0.1559  0.1342
  389POPC   GL1 4659  19.931  26.522  18.782 -0.0517 -0.0297  0.0771
  389POPC   GL2 4660  19.673  26.372  18.542  0.1154 -0.0769 -0.1881
  389POPC   C1A 4661  20.153  26.417  18.372  0.0842 -0.3935  0.1197
  389POPC   D2A 4662  20.304  26.320  18.007 -0.0630  0.0138  0.1938
  389POPC   C3A 4663  20.192  26.389  17.526  0.1500 -0.1166 -0.4087
  389POPC   C4A 4664  20.123  26.214  17.102 -0.0917 -0.2520  0.0990
  389POPC   C1B 4665  19.468  26.358  18.135 -0.1428 -0.0090  0.2273
  389POPC   C2B 4666  19.297  26.375  17.696 -0.0402 -0.2367 -0.1118
  389POPC   C3B 4667  19.059  26.343  17.293  0.0579 -0.1003  0.0432
  389POPC   C4B 4668  18.617  26.200  17.211  0.2084 -0.1217  0.0651
  390POPC   NC3 4669  29.144   9.902  19.412 -0.2794  0.0948  0.2853
  390POPC   PO4 4670  28.850  10.146  19.459  0.4234 -0.2518  0.1904
  390POPC   GL1 4671  29.031  10.270  19.130  0.1306  0.0995  0.1921
  390POPC   GL2 4672  29.268  10.243  19.018 -0.1510  0.2724 -0.1680
  390POPC   C1A 4673  28.965  10.687  18.916  0.0914  0.0226  0.0320
  390POPC   D2A 4674  28.794  10.998  18.565 -0.3173  0.1714  0.0667
  390POPC   C3A 4675  28.855  10.934  18.092  0.1645  0.2247 -0.2199
  390POPC   C4A 4676  29.161  10.703  17.858 -0.0244  0.1260 -0.2284
  390POPC   C1B 4677  29.371  10.376  18.618  0.0592 -0.0638 -0.3121
  390POPC   C2B 4678  29.656  10.556  18.345 -0.2203  0.1312  0.0731
  390POPC   C3B 4679  29.999  10.346  18.077 -0.0583  0.2365 -0.0928
  390POPC   C4B 4680  30.312  10.072  18.280 -0.1199  0.0219 -0.1020
  391POPC   NC3 4681   9.749  23.023  18.921  0.2421 -0.1760 -0.1881
  391POPC   PO4 4682   9.574  22.682  18.990 -0.0177  0.2224  0.1688
  391POPC   GL1 4683   9.493  22.664  18.592  0.2200 -0.4360 -0.0504
  391POPC   GL2 4684   9.784  22.667  18.466  0.1534 -0.0485 -0.0850
  391POPC   C1A 4685   9.274  22.927  18.207 -0.0231  0.4149  0.1690
  391POPC   D2A 4686   9.207  23.026  17.804 -0.0930 -0.1227 -0.2557
  391POPC   C3A 4687   8.921  22.784  17.485 -0.1241 -0.3266 -0.2044
  391POPC   C4A 4688   8.796  22.364  17.426  0.5396  0.1548 -0.0577
  391POPC   C1B 4689   9.825  22.613  18.038 -0.1272  0.0283 -0.2510
  391POPC   C2B 4690   9.760  22.161  17.877 -0.2309 -0.2241  0.2370
  391POPC   C3B 4691   9.781  21.956  17.444  0.1628  0.1783 -0.0778
  391POPC   C4B 4692   9.696  21.671  17.082 -0.2978 -0.1540  0.2518
  392POPC   NC3 4693  29.043   7.244  18.909 -0.4310 -0.0757 -0.0176
  392POPC   PO4 4694  29.120   7.614  19.021 -0.0177 -0.0742  0.1659
  392POPC   GL1 4695  29.284   7.593  18.631  0.0309  0.1798 -0.3805
  392POPC   GL2 4696  29.314   7.314  18.453 -0.0370 -0.1523  0.1480
  392POPC   C1A 4697  29.454   7.830  18.341 -0.0037 -0.3658 -0.0393
  392POPC   D2A 4698  29.501   7.756  17.857 -0.0386 -0.2390 -0.0251
  392POPC   C3A 4699  29.062   7.857  17.674  0.0149  0.2331  0.1438
  392POPC   C4A 4700  29.069   7.991  17.206 -0.1845 -0.0619  0.0485
  392POPC   C1B 4701  29.323   6.902  18.163  0.2218 -0.0804 -0.0657
  392POPC   C2B 4702  29.272   6.772  17.735  0.0241 -0.1440  0.3785
  392POPC   C3B 4703  29.148   6.917  17.345 -0.3270  0.2003 -0.0099
  392POPC   C4B 4704  29.275   7.062  16.910  0.1438 -0.0284  0.1391
  393POPC   NC3 4705  31.262  20.922  19.182  0.0489  0.0715 -0.2961
  393POPC   PO4 4706  31.579  21.142  19.303 -0.0702  0.0470 -0.3681
  393POPC   GL1 4707  31.668  20.863  18.983 -0.0906 -0.1908 -0.0453
  393POPC   GL2 4708  31.849  21.009  18.810 -0.1482  0.0702  0.1245
  393POPC   C1A 4709  31.504  20.532  18.694 -0.1861  0.0534  0.3702
  393POPC   D2A 4710  31.535  20.255  18.292  0.0383  0.0895  0.2095
  393POPC   C3A 4711  31.799  20.193  17.944 -0.2520  0.0492  0.3047
  393POPC   C4A 4712  32.164  20.072  17.591  0.0295  0.2520 -0.1695
  393POPC   C1B 4713  31.832  20.958  18.358  0.0101 -0.4776 -0.1548
  393POPC   C2B 4714  31.691  21.186  17.990  0.1037  0.0110 -0.3428
  393POPC   C3B 4715  31.598  21.632  17.931 -0.0119 -0.0746  0.0767
  393POPC   C4B 4716  31.162  21.687  17.749  0.2581  0.0348 -0.2881
  394POPC   NC3 4717  27.034  13.233  19.172 -0.2995 -0.0955  0.1322
  394POPC   PO4 4718  27.291  13.567  19.271 -0.1883  0.0352 -0.2252
  394POPC   GL1 4719  27.443  13.415  18.976  0.0400 -0.0599 -0.0412
  394POPC   GL2 4720  27.795  13.333  18.997 -0.0100  0.2017 -0.0469
  394POPC   C1A 4721  27.192  13.098  18.727 -0.3134 -0.0426 -0.1365
  394POPC   D2A 4722  26.763  13.006  18.526  0.3163  0.0916  0.0799
  394POPC   C3A 4723  26.866  12.724  18.140  0.0656 -0.2299 -0.2264
  394POPC   C4A 4724  26.927  12.545  17.698 -0.1721 -0.0164  0.3221
  394POPC   C1B 4725  27.613  13.356  18.523 -0.1798 -0.1600 -0.1804
  394POPC   C2B 4726  27.586  13.197  18.111  0.2628 -0.1800 -0.2684
  394POPC   C3B 4727  27.585  12.931  17.727 -0.1133 -0.0654 -0.0603
  394POPC   C4B 4728  27.943  12.707  17.525  0.3446 -0.0515 -0.1495
  395POPC   NC3 4729   6.132  19.059  19.190 -0.1179 -0.3431  0.1301
  395POPC   PO4 4730   6.511  18.996  19.215 -0.1083  0.1261  0.0868
  395POPC   GL1 4731   6.516  18.894  18.856  0.0694 -0.2749 -0.0490
  395POPC   GL2 4732   6.506  19.077  18.585 -0.2366  0.1590 -0.1041
  395POPC   C1A 4733   6.170  18.671  18.584 -0.1023 -0.0720  0.3590
  395POPC   D2A 4734   5.720  18.545  18.623  0.2094  0.0182 -0.0428
  395POPC   C3A 4735   5.399  18.508  18.262  0.2093  0.1217  0.0630
  395POPC   C4A 4736   5.080  18.193  17.976 -0.5646 -0.0865  0.1766
  395POPC   C1B 4737   6.360  18.917  18.169  0.0407 -0.2617  0.0572
  395POPC   C2B 4738   6.382  18.602  17.871  0.1971  0.0061 -0.1646
  395POPC   C3B 4739   6.406  18.186  17.569 -0.0101 -0.1815  0.1549
  395POPC   C4B 4740   6.247  17.925  17.269  0.0886  0.3385  0.2374
  396POPC   NC3 4741  12.919  15.462  19.399 -0.0208 -0.0257 -0.2654
  396POPC   PO4 4742  12.970  15.783  19.228 -0.1404  0.0421  0.0826
  396POPC   GL1 4743  12.905  15.758  18.855 -0.1384  0.2183  0.5347
  396POPC   GL2 4744  12.774  15.520  18.768  0.1593  0.3011 -0.2487
  396POPC   C1A 4745  12.886  15.941  18.410 -0.0489 -0.3138 -0.1237
  396POPC   D2A 4746  13.064  16.195  18.102 -0.1142 -0.1262 -0.2901
  396POPC   C3A 4747  13.048  16.011  17.703  0.0058  0.0829 -0.4145
  396POPC   C4A 4748  13.051  16.052  17.228 -0.0258  0.1674 -0.1299
  396POPC   C1B 4749  12.699  15.436  18.312 -0.3193 -0.0397  0.3568
  396POPC   C2B 4750  12.369  15.480  18.025 -0.3746 -0.2478  0.3096
  396POPC   C3B 4751  12.196  15.387  17.563  0.0584 -0.0535  0.3430
  396POPC   C4B 4752  11.978  15.217  17.201 -0.1422  0.3999 -0.1925
  397POPC   NC3 4753  23.828  27.517  18.715 -0.2828 -0.0164 -0.2061
  397POPC   PO4 4754  23.999  27.745  18.999 -0.2832  0.2823 -0.1022
  397POPC   GL1 4755  23.696  27.964  18.830  0.1434 -0.0213 -0.2863
  397POPC   GL2 4756  23.649  28.146  18.975 -0.2912  0.0117 -0.1173
  397POPC   C1A 4757  23.814  27.914  18.377  0.2803 -0.1181 -0.0072
  397POPC   D2A 4758  23.666  27.779  17.945 -0.0303  0.1660 -0.1777
  397POPC   C3A 4759  23.331  27.519  17.802 -0.2238  0.1100 -0.0476
  397POPC   C4A 4760  22.982  27.258  17.699 -0.0568  0.0511  0.1720
  397POPC   C1B 4761  23.555  28.268  18.563  0.0898 -0.1650  0.1234
  397POPC   C2B 4762  23.472  28.223  18.136  0.1539 -0.0764  0.0170
  397POPC   C3B 4763  23.374  28.116  17.704 -0.1595 -0.1710 -0.2111
  397POPC   C4B 4764  23.607  27.808  17.464  0.0288  0.0786  0.2039
  398POPC   NC3 4765  27.818   0.624  19.183  0.0004  0.2910  0.0745
  398POPC   PO4 4766  28.101   0.552  19.441  0.0454 -0.0512  0.3794
  398POPC   GL1 4767  28.266   0.494  19.008 -0.1056  0.1068  0.0751
  398POPC   GL2 4768  28.236   0.703  18.898  0.1489 -0.2891  0.1781
  398POPC   C1A 4769  28.141   0.267  18.622 -0.0591 -0.0818  0.2642
  398POPC   D2A 4770  28.114   0.135  18.158  0.0500  0.0582  0.1174
  398POPC   C3A 4771  28.236   0.298  17.771  0.1942 -0.0772 -0.1907
  398POPC   C4A 4772  28.524   0.364  17.400 -0.0660  0.0339 -0.0097
  398POPC   C1B 4773  28.319   0.737  18.452  0.0862  0.2420  0.0397
  398POPC   C2B 4774  28.340   0.704  17.974  0.1154  0.0094  0.0433
  398POPC   C3B 4775  28.290   0.789  17.481  0.1960  0.0303 -0.0371
  398POPC   C4B 4776  28.271   0.664  17.009 -0.0499  0.0367  0.1365
  399POPC   NC3 4777   3.812  23.669  19.585  0.0574 -0.1230  0.1402
  399POPC   PO4 4778   3.830  23.955  19.363  0.2038 -0.0390  0.0721
  399POPC   GL1 4779   3.952  24.049  18.986  0.0747  0.0381  0.0304
  399POPC   GL2 4780   3.675  24.068  18.890  0.0408  0.3589  0.2016
  399POPC   C1A 4781   4.266  23.818  18.707 -0.1590  0.0092 -0.1349
  399POPC   D2A 4782   4.630  23.687  18.438  0.0147 -0.2988  0.0192
  399POPC   C3A 4783   4.817  23.657  18.036 -0.0024  0.0912 -0.0073
  399POPC   C4A 4784   4.974  23.577  17.588  0.3640 -0.0389  0.1892
  399POPC   C1B 4785   3.814  24.027  18.425 -0.4192  0.0046 -0.1465
  399POPC   C2B 4786   3.909  24.059  17.980 -0.3021  0.1359 -0.0176
  399POPC   C3B 4787   4.060  24.004  17.607 -0.2516 -0.0267  0.0739
  399POPC   C4B 4788   4.041  24.079  17.127 -0.0706 -0.1383 -0.0495
  400POPC   NC3 4789  10.341  27.464  19.479 -0.0683 -0.0739 -0.1951
  400POPC   PO4 4790  10.164  27.822  19.513 -0.1822  0.1810  0.2651
  400POPC   GL1 4791  10.228  27.753  19.114  0.3231 -0.1490 -0.4025
  400POPC   GL2 4792  10.450  27.608  19.022  0.0442  0.1729 -0.0061
  400POPC   C1A 4793   9.989  27.521  18.757 -0.1567  0.0832 -0.2674
  400POPC   D2A 4794   9.841  27.274  18.417 -0.1002  0.0965 -0.1154
  400POPC   C3A 4795  10.195  27.146  18.152 -0.0783  0.2680 -0.1488
  400POPC   C4A 4796  10.547  27.010  17.926 -0.1210  0.0613 -0.3595
  400POPC   C1B 4797  10.472  27.497  18.577  0.1348  0.0542  0.1589
  400POPC   C2B 4798  10.475  27.505  18.043 -0.0884  0.1315  0.0312
  400POPC   C3B 4799  10.356  27.397  17.588 -0.3981 -0.1658  0.3786
  400POPC   C4B 4800  10.709  27.436  17.290  0.0164 -0.3324  0.0582
  401POPC   NC3 4801  19.544  27.124  19.664  0.0022  0.1609  0.5117
  401POPC   PO4 4802  19.575  26.958  19.288 -0.0868  0.1572 -0.2168
  401POPC   GL1 4803  19.540  26.840  19.003  0.1545  0.2223 -0.3360
  401POPC   GL2 4804  19.346  26.724  18.792  0.1158  0.2541 -0.1579
  401POPC   C1A 4805  19.750  26.995  18.576 -0.2638  0.0392  0.0021
  401POPC   D2A 4806  19.828  26.747  18.211  0.1092  0.1946  0.0711
  401POPC   C3A 4807  19.805  26.469  17.814 -0.0269 -0.1143  0.0455
  401POPC   C4A 4808  19.740  26.292  17.373  0.2905  0.2723  0.2975
  401POPC   C1B 4809  19.325  26.911  18.320  0.2082  0.2041 -0.0156
  401POPC   C2B 4810  19.473  26.851  17.848 -0.0039  0.2967  0.0214
  401POPC   C3B 4811  19.287  26.969  17.392 -0.2631 -0.1561  0.3255
  401POPC   C4B 4812  18.901  27.076  17.151 -0.0729 -0.1328 -0.2115
  402POPC   NC3 4813  29.615  31.603  19.176  0.0134 -0.0410 -0.2051
  402POPC   PO4 4814  29.563  31.310  18.947  0.0133 -0.1309  0.1157
  402POPC   GL1 4815  29.579  31.424  18.461 -0.1078  0.0376  0.1558
  402POPC   GL2 4816  29.551  31.175  18.408  0.0813  0.1862 -0.2101
  402POPC   C1A 4817  29.593  31.777  18.180  0.0893 -0.0561 -0.0179
  402POPC   D2A 4818  29.677  32.083  17.837  0.0101 -0.2220 -0.0100
  402POPC   C3A 4819  29.809  32.050  17.418 -0.0629  0.2093 -0.1296
  402POPC   C4A 4820  29.456  32.041  17.099 -0.3110 -0.2601  0.1969
  402POPC   C1B 4821  29.813  31.048  18.014  0.0931 -0.0773 -0.0086
  402POPC   C2B 4822  29.675  31.107  17.549 -0.2216 -0.2330  0.0136
  402POPC   C3B 4823  29.416  31.456  17.310 -0.0783  0.2012  0.1386
  402POPC   C4B 4824  29.018  31.646  17.287  0.1662  0.2471  0.0646
  403POPC   NC3 4825  21.439  23.635  18.706  0.0082 -0.1049  0.1200
  403POPC   PO4 4826  21.805  23.742  18.692  0.2227  0.0810 -0.0011
  403POPC   GL1 4827  21.832  23.738  18.360  0.0650 -0.2023  0.0767
  403POPC   GL2 4828  22.005  23.447  18.313  0.0260  0.1322 -0.3132
  403POPC   C1A 4829  21.895  24.261  18.238  0.4196 -0.2176  0.3255
  403POPC   D2A 4830  21.799  24.666  17.989  0.1337 -0.0297  0.0204
  403POPC   C3A 4831  22.040  24.870  17.626 -0.0493 -0.0623  0.0180
  403POPC   C4A 4832  21.990  24.828  17.172  0.0229  0.2098 -0.2066
  403POPC   C1B 4833  21.895  23.674  17.916 -0.1562  0.1096 -0.0675
  403POPC   C2B 4834  21.958  23.855  17.502  0.2037 -0.0052 -0.0415
  403POPC   C3B 4835  22.163  23.987  17.106 -0.1512 -0.0206  0.1992
  403POPC   C4B 4836  22.603  23.858  17.102  0.1665 -0.0986  0.1160
  404POPC   NC3 4837  28.376   8.554  19.346 -0.1956 -0.0190 -0.1468
  404POPC   PO4 4838  28.510   8.186  19.327  0.0947  0.2650 -0.0585
  404POPC   GL1 4839  28.611   8.405  18.950 -0.0534 -0.1607 -0.0697
  404POPC   GL2 4840  28.823   8.299  18.971 -0.0077 -0.0865 -0.0591
  404POPC   C1A 4841  28.768   8.614  18.604  0.0955 -0.1788 -0.1532
  404POPC   D2A 4842  28.691   8.963  18.386 -0.1374 -0.0756 -0.2344
  404POPC   C3A 4843  28.402   9.154  18.085 -0.3029  0.1626 -0.1290
  404POPC   C4A 4844  28.415   9.099  17.604 -0.0171  0.0462 -0.0101
  404POPC   C1B 4845  29.039   8.137  18.593  0.1871 -0.1448 -0.1979
  404POPC   C2B 4846  29.004   7.885  18.200  0.0935 -0.0578 -0.4505
  404POPC   C3B 4847  29.001   7.439  18.084 -0.0763 -0.1042  0.0604
  404POPC   C4B 4848  28.850   7.081  17.985 -0.1493  0.2634  0.3147
  405POPC   NC3 4849  25.897  12.193  18.941  0.1156  0.2490  0.1497
  405POPC   PO4 4850  25.935  12.582  19.017 -0.2521  0.2527  0.2081
  405POPC   GL1 4851  25.949  12.644  18.688  0.2635 -0.2201 -0.3083
  405POPC   GL2 4852  26.204  12.777  18.626 -0.0772  0.0474 -0.4145
  405POPC   C1A 4853  25.976  12.464  18.258 -0.1793 -0.0710  0.1658
  405POPC   D2A 4854  26.013  12.452  17.787 -0.1098  0.2372  0.1452
  405POPC   C3A 4855  26.221  12.333  17.422 -0.2467  0.1897  0.0510
  405POPC   C4A 4856  26.719  12.335  17.289  0.0646 -0.0419 -0.1805
  405POPC   C1B 4857  26.305  12.857  18.176 -0.2107  0.0989  0.3636
  405POPC   C2B 4858  26.080  12.902  17.775 -0.1619 -0.0686  0.2111
  405POPC   C3B 4859  25.701  12.792  17.449  0.0796 -0.0238 -0.0697
  405POPC   C4B 4860  25.564  12.589  17.071  0.1217  0.0146  0.0313
  406POPC   NC3 4861  24.923  27.939  19.539 -0.0730 -0.0503 -0.1210
  406POPC   PO4 4862  25.255  28.113  19.510  0.0866  0.2920 -0.0763
  406POPC   GL1 4863  25.218  28.111  19.081  0.5254 -0.1367  0.0076
  406POPC   GL2 4864  25.074  27.801  19.053 -0.0713  0.0962 -0.0692
  406POPC   C1A 4865  25.364  28.209  18.661 -0.2147 -0.1769  0.1175
  406POPC   D2A 4866  25.460  28.147  18.218  0.0945 -0.1734  0.1371
  406POPC   C3A 4867  25.098  28.154  17.922 -0.0959  0.3603  0.1077
  406POPC   C4A 4868  25.002  28.100  17.496 -0.1446  0.2489 -0.1106
  406POPC   C1B 4869  24.952  27.930  18.647 -0.0760 -0.0119  0.1273
  406POPC   C2B 4870  25.068  27.779  18.207  0.0271  0.2372 -0.0719
  406POPC   C3B 4871  25.250  27.619  17.873  0.1304  0.0447  0.2598
  406POPC   C4B 4872  25.335  27.515  17.365 -0.1194  0.1261 -0.1745
  407POPC   NC3 4873   2.844  24.062  19.612 -0.0690 -0.0401 -0.2496
  407POPC   PO4 4874   2.598  23.820  19.430 -0.0538  0.1083 -0.3434
  407POPC   GL1 4875   2.755  23.804  18.997 -0.1227  0.3897  0.1733
  407POPC   GL2 4876   2.513  23.743  18.853  0.0909  0.0529  0.2071
  407POPC   C1A 4877   3.003  23.577  18.668 -0.0739  0.2326  0.0196
  407POPC   D2A 4878   3.070  23.656  18.256 -0.4006  0.0677 -0.1642
  407POPC   C3A 4879   2.702  23.749  17.938 -0.0153 -0.1520  0.0225
  407POPC   C4A 4880   2.348  23.797  17.622  0.2259  0.0575  0.0469
  407POPC   C1B 4881   2.452  23.603  18.385 -0.0083 -0.2110 -0.0861
  407POPC   C2B 4882   2.221  23.543  18.042  0.3544  0.0443  0.2945
  407POPC   C3B 4883   2.048  23.371  17.620  0.0068  0.1794 -0.1972
  407POPC   C4B 4884   2.203  23.527  17.222  0.1215  0.2208 -0.2818
  408POPC   NC3 4885  27.960  27.006  19.335 -0.2403 -0.1925  0.0697
  408POPC   PO4 4886  27.806  27.330  19.534 -0.2972  0.0424  0.0724
  408POPC   GL1 4887  27.638  27.320  19.197  0.0685 -0.0171 -0.1568
  408POPC   GL2 4888  27.519  27.020  19.130 -0.2865 -0.0360  0.0866
  408POPC   C1A 4889  27.678  27.388  18.740 -0.0847 -0.0805 -0.0578
  408POPC   D2A 4890  27.729  27.398  18.235 -0.0325 -0.0180 -0.0001
  408POPC   C3A 4891  27.620  27.366  17.846 -0.0869  0.1149  0.0839
  408POPC   C4A 4892  27.453  27.042  17.584  0.2691  0.2850 -0.0992
  408POPC   C1B 4893  27.206  27.135  18.787  0.4587 -0.3340 -0.0307
  408POPC   C2B 4894  27.244  27.265  18.354 -0.3102  0.3934  0.2463
  408POPC   C3B 4895  27.188  27.475  17.965  0.0749 -0.1750  0.0479
  408POPC   C4B 4896  27.179  27.640  17.499 -0.3951  0.0185 -0.1609
  409POPC   NC3 4897  24.724  15.463  20.060  0.1821 -0.2538  0.1124
  409POPC   PO4 4898  24.418  15.297  19.823  0.0469  0.0877  0.0319
  409POPC   GL1 4899  24.193  15.215  19.519  0.3064 -0.0762 -0.0445
  409POPC   GL2 4900  23.841  15.156  19.568  0.1330  0.2949 -0.3704
  409POPC   C1A 4901  24.077  15.464  19.137 -0.1668 -0.2543  0.0954
  409POPC   D2A 4902  23.625  15.474  18.948  0.3217 -0.0672 -0.3912
  409POPC   C3A 4903  23.495  15.387  18.573  0.0321  0.0670 -0.1979
  409POPC   C4A 4904  23.738  15.585  18.206  0.1526  0.0074 -0.1130
  409POPC   C1B 4905  23.692  15.547  19.444 -0.2486  0.0160 -0.1515
  409POPC   C2B 4906  23.477  15.890  19.126 -0.2858 -0.2319  0.0081
  409POPC   C3B 4907  23.212  16.181  18.878  0.0225 -0.0675  0.2041
  409POPC   C4B 4908  22.738  16.242  18.700 -0.1137 -0.0492  0.2488
  410POPC   NC3 4909  24.494  14.488  19.349 -0.0451 -0.1203 -0.1387
  410POPC   PO4 4910  24.393  14.189  19.107 -0.1468  0.1714 -0.0020
  410POPC   GL1 4911  24.277  14.037  18.817  0.2674  0.2061 -0.1775
  410POPC   GL2 4912  24.008  14.107  18.680 -0.0934 -0.0344  0.1059
  410POPC   C1A 4913  24.402  13.857  18.447  0.0320 -0.1045 -0.0123
  410POPC   D2A 4914  24.379  13.561  18.105  0.0887 -0.0009  0.1918
  410POPC   C3A 4915  24.355  13.405  17.629  0.1860 -0.1154 -0.2365
  410POPC   C4A 4916  24.016  13.105  17.508  0.0565  0.2356  0.0969
  410POPC   C1B 4917  24.179  14.534  18.632  0.1609  0.2075  0.0113
  410POPC   C2B 4918  24.275  14.821  18.234  0.0473 -0.3475  0.0147
  410POPC   C3B 4919  24.072  14.707  17.831  0.2152  0.0033  0.3648
  410POPC   C4B 4920  24.164  14.557  17.384 -0.0621 -0.0123 -0.0937
  411POPC   NC3 4921  18.255  14.786  18.975 -0.1012  0.0456 -0.0374
  411POPC   PO4 4922  18.074  14.453  18.951 -0.1653 -0.2808  0.0197
  411POPC   GL1 4923  18.140  14.310  18.592 -0.3845  0.2711 -0.0451
  411POPC   GL2 4924  17.870  14.171  18.560  0.0475  0.0343 -0.0282
  411POPC   C1A 4925  18.317  14.358  18.205  0.0661  0.1392  0.0482
  411POPC   D2A 4926  18.241  14.423  17.789  0.1103  0.4866  0.1990
  411POPC   C3A 4927  17.868  14.453  17.506 -0.0535  0.0574 -0.0076
  411POPC   C4A 4928  17.669  14.478  17.089  0.0192 -0.0805 -0.1914
  411POPC   C1B 4929  17.819  14.276  18.132  0.2569 -0.3262 -0.0795
  411POPC   C2B 4930  17.855  14.005  17.701  0.1743  0.0383  0.1000
  411POPC   C3B 4931  17.820  13.527  17.665 -0.0533 -0.0102  0.0015
  411POPC   C4B 4932  17.999  13.068  17.609  0.2256  0.2115 -0.2935
  412POPC   NC3 4933  10.700  11.321  19.715  0.3645 -0.0770  0.0448
  412POPC   PO4 4934  10.583  11.483  19.372  0.1608 -0.2521  0.1597
  412POPC   GL1 4935  10.289  11.494  19.040 -0.0132 -0.2317 -0.1338
  412POPC   GL2 4936  10.140  11.761  19.151  0.0091 -0.0156  0.0887
  412POPC   C1A 4937  10.237  11.378  18.530 -0.1221 -0.0024 -0.1037
  412POPC   D2A 4938  10.575  11.264  18.294  0.2010  0.1304  0.1965
  412POPC   C3A 4939  10.825  11.381  17.905  0.4238 -0.1372  0.0832
  412POPC   C4A 4940  11.112  11.325  17.553 -0.0089  0.0809  0.3107
  412POPC   C1B 4941   9.926  11.732  18.746  0.3502 -0.0938 -0.0020
  412POPC   C2B 4942   9.844  11.591  18.306 -0.1228  0.1179 -0.2210
  412POPC   C3B 4943   9.751  11.433  17.843  0.0287  0.0035  0.0881
  412POPC   C4B 4944  10.002  11.292  17.456  0.0916  0.1498 -0.1702
  413POPC   NC3 4945   2.542   7.901  19.353  0.1596 -0.3612  0.0969
  413POPC   PO4 4946   2.432   8.225  19.137 -0.0344  0.0644 -0.2298
  413POPC   GL1 4947   2.499   8.300  18.744  0.0192  0.1909 -0.2882
  413POPC   GL2 4948   2.752   8.145  18.741  0.2127 -0.0195 -0.2618
  413POPC   C1A 4949   2.427   7.998  18.436 -0.1164  0.0182 -0.0690
  413POPC   D2A 4950   2.210   7.691  18.184 -0.0958  0.4254  0.1433
  413POPC   C3A 4951   2.525   7.555  17.923 -0.2057 -0.1277 -0.1218
  413POPC   C4A 4952   2.825   7.545  17.533  0.0987 -0.0850 -0.3677
  413POPC   C1B 4953   3.018   7.916  18.360 -0.3260  0.0389 -0.2855
  413POPC   C2B 4954   3.076   7.780  17.927  0.1420 -0.0903  0.1735
  413POPC   C3B 4955   3.329   7.426  17.721  0.2275  0.2034  0.0788
  413POPC   C4B 4956   3.632   7.435  17.398 -0.1817 -0.2286 -0.1590
  414POPC   NC3 4957  20.821  23.682  18.910 -0.1842 -0.2879  0.2911
  414POPC   PO4 4958  21.129  23.888  18.989  0.0402  0.1646  0.1720
  414POPC   GL1 4959  21.250  24.127  18.591  0.1687 -0.0614  0.1289
  414POPC   GL2 4960  21.500  24.172  18.619  0.2330  0.0747  0.2944
  414POPC   C1A 4961  20.820  24.191  18.373 -0.0810 -0.0170 -0.1340
  414POPC   D2A 4962  20.462  24.305  18.055 -0.1999 -0.1227  0.1909
  414POPC   C3A 4963  20.563  24.303  17.649  0.1655  0.0639  0.3295
  414POPC   C4A 4964  20.827  24.429  17.252  0.1113  0.1254  0.0394
  414POPC   C1B 4965  21.445  23.966  18.168  0.1072  0.0584  0.0448
  414POPC   C2B 4966  21.430  23.779  17.691 -0.0689  0.1987  0.4067
  414POPC   C3B 4967  21.661  23.451  17.474  0.0795  0.1052 -0.1833
  414POPC   C4B 4968  21.664  23.110  17.184  0.1833 -0.1430  0.0739
  415POPC   NC3 4969  29.478  24.280  19.038 -0.3344  0.0919 -0.4220
  415POPC   PO4 4970  29.271  24.618  19.032  0.1553 -0.0228 -0.1202
  415POPC   GL1 4971  28.918  24.702  18.796 -0.2710  0.4783  0.2859
  415POPC   GL2 4972  28.645  24.500  18.831 -0.0515 -0.1618 -0.0488
  415POPC   C1A 4973  28.654  24.970  18.489 -0.0880  0.2747 -0.1216
  415POPC   D2A 4974  28.364  25.288  18.357 -0.0361  0.0772  0.4819
  415POPC   C3A 4975  28.340  25.587  17.977 -0.1226 -0.1656  0.0182
  415POPC   C4A 4976  28.360  25.842  17.625 -0.0661  0.0496 -0.1759
  415POPC   C1B 4977  28.482  24.148  18.522  0.1649 -0.1836  0.1793
  415POPC   C2B 4978  28.247  23.929  18.159  0.0328 -0.2259 -0.2010
  415POPC   C3B 4979  28.389  23.803  17.755 -0.3126 -0.3253  0.2917
  415POPC   C4B 4980  28.344  23.770  17.363  0.0187 -0.0619  0.1697
  416POPC   NC3 4981  25.625  18.803  18.847 -0.0729 -0.0248  0.2559
  416POPC   PO4 4982  25.963  18.644  19.004  0.2227  0.1633 -0.0702
  416POPC   GL1 4983  25.835  18.342  18.775  0.0490 -0.0074  0.2179
  416POPC   GL2 4984  25.989  18.421  18.569 -0.0698  0.0573 -0.0065
  416POPC   C1A 4985  25.425  18.236  18.545 -0.0986 -0.1377 -0.0441
  416POPC   D2A 4986  25.013  18.281  18.363  0.1237  0.1089 -0.0529
  416POPC   C3A 4987  24.820  17.916  18.485 -0.2273 -0.2109  0.1686
  416POPC   C4A 4988  24.881  17.452  18.306 -0.0272 -0.1740 -0.1874
  416POPC   C1B 4989  25.703  18.725  18.354 -0.1942 -0.0722  0.1908
  416POPC   C2B 4990  25.777  18.648  17.854 -0.1479 -0.0759  0.0253
  416POPC   C3B 4991  25.924  18.352  17.530  0.0502 -0.0519  0.1198
  416POPC   C4B 4992  26.085  18.341  17.101  0.0185 -0.0400  0.4846
  417POPC   NC3 4993   8.896  29.527  19.280 -0.0300 -0.1041 -0.0771
  417POPC   PO4 4994   8.508  29.527  19.372  0.1135  0.1003 -0.0632
  417POPC   GL1 4995   8.341  29.466  19.019  0.1395 -0.1316 -0.2260
  417POPC   GL2 4996   8.288  29.151  19.066  0.0430  0.0176  0.2088
  417POPC   C1A 4997   8.548  29.745  18.711  0.2734 -0.4522  0.1817
  417POPC   D2A 4998   8.790  30.121  18.603  0.1094 -0.2157 -0.1249
  417POPC   C3A 4999   8.759  30.462  18.227 -0.0331 -0.4613  0.0450
  417POPC   C4A 5000   8.439  30.490  17.899 -0.0428 -0.2279  0.2206
  417POPC   C1B 5001   8.302  29.189  18.595  0.1275 -0.1817 -0.0821
  417POPC   C2B 5002   8.002  29.509  18.433 -0.0888 -0.0839  0.2231
  417POPC   C3B 5003   8.075  29.848  18.180 -0.3768  0.3326 -0.0076
  417POPC   C4B 5004   8.164  30.099  17.830 -0.1093 -0.0064  0.0468
  418POPC   NC3 5005  11.473  19.552  19.269 -0.1901  0.1205  0.2060
  418POPC   PO4 5006  11.460  19.205  19.051 -0.4475 -0.3097  0.2521
  418POPC   GL1 5007  11.102  19.468  19.014  0.1639 -0.0513 -0.1003
  418POPC   GL2 5008  11.149  19.568  18.748 -0.1640 -0.0936  0.2147
  418POPC   C1A 5009  10.658  19.481  18.889  0.0133  0.0743  0.3362
  418POPC   D2A 5010  10.266  19.415  19.074  0.2055  0.0931  0.3266
  418POPC   C3A 5011  10.101  19.000  19.077 -0.0508 -0.1223  0.2797
  418POPC   C4A 5012   9.854  18.712  18.823 -0.3247  0.0354  0.3608
  418POPC   C1B 5013  11.034  19.704  18.296 -0.1504  0.0837  0.0216
  418POPC   C2B 5014  10.680  19.794  17.961 -0.0455  0.0401  0.2081
  418POPC   C3B 5015  10.415  19.872  17.655 -0.0812  0.2326 -0.1701
  418POPC   C4B 5016  10.338  19.848  17.188 -0.0811 -0.1644 -0.2570
  419POPC   NC3 5017  21.829  13.775  19.145 -0.2826  0.0967  0.0226
  419POPC   PO4 5018  21.788  14.157  19.027  0.1422 -0.1723  0.1694
  419POPC   GL1 5019  21.960  14.427  18.723 -0.1383 -0.0709  0.1577
  419POPC   GL2 5020  22.281  14.509  18.723  0.2328 -0.0375  0.2169
  419POPC   C1A 5021  21.853  14.495  18.300 -0.3025  0.0702  0.0333
  419POPC   D2A 5022  21.913  14.668  17.889  0.1320  0.0521 -0.2168
  419POPC   C3A 5023  22.308  14.384  17.775 -0.2350  0.0556  0.1789
  419POPC   C4A 5024  22.584  14.280  17.441 -0.3400 -0.0986  0.1239
  419POPC   C1B 5025  22.509  14.458  18.291  0.0340  0.0328 -0.1681
  419POPC   C2B 5026  22.707  14.608  17.914  0.3614 -0.0111  0.1238
  419POPC   C3B 5027  22.775  14.946  17.564 -0.0663  0.2711 -0.0552
  419POPC   C4B 5028  22.704  15.199  17.184  0.1352  0.3520 -0.4883
  420POPC   NC3 5029  13.415   5.969  19.192 -0.1249  0.0448 -0.0307
  420POPC   PO4 5030  13.335   5.615  19.376 -0.1134 -0.0102  0.1196
  420POPC   GL1 5031  13.233   5.544  18.987  0.0846  0.1750  0.1838
  420POPC   GL2 5032  12.988   5.717  18.905 -0.1242 -0.0604  0.0828
  420POPC   C1A 5033  13.183   5.504  18.502  0.0067  0.0048 -0.0094
  420POPC   D2A 5034  12.777   5.490  18.253  0.1319 -0.1006  0.0664
  420POPC   C3A 5035  12.766   5.481  17.757 -0.0131 -0.2395  0.0622
  420POPC   C4A 5036  12.902   5.804  17.405  0.2361 -0.0175  0.1134
  420POPC   C1B 5037  12.798   5.333  18.866 -0.1400 -0.1628 -0.0353
  420POPC   C2B 5038  12.482   5.198  18.558  0.0114  0.1004  0.1579
  420POPC   C3B 5039  12.099   5.095  18.294  0.0883 -0.2475 -0.0259
  420POPC   C4B 5040  11.780   5.278  17.951 -0.1226  0.2991 -0.2050
  421POPC   NC3 5041  27.349  20.187  19.021 -0.0779  0.0980 -0.0859
  421POPC   PO4 5042  27.323  20.539  19.238 -0.2957 -0.1370  0.0163
  421POPC   GL1 5043  27.113  20.710  19.061 -0.0010 -0.1881  0.0291
  421POPC   GL2 5044  27.285  20.703  18.773 -0.1593 -0.1952 -0.0154
  421POPC   C1A 5045  26.735  20.721  18.872  0.1233  0.0206 -0.0236
  421POPC   D2A 5046  26.346  20.900  18.817  0.2805  0.1035  0.0177
  421POPC   C3A 5047  26.146  21.145  18.540 -0.0848 -0.0863 -0.0794
  421POPC   C4A 5048  25.925  21.403  18.246 -0.0473 -0.1353 -0.0051
  421POPC   C1B 5049  27.438  20.588  18.312  0.1518 -0.0403  0.1080
  421POPC   C2B 5050  27.372  20.582  17.878 -0.0249 -0.0034 -0.1480
  421POPC   C3B 5051  27.344  20.787  17.477  0.0767  0.0530  0.0022
  421POPC   C4B 5052  27.257  21.062  17.117  0.1262  0.0957  0.0828
  422POPC   NC3 5053  11.427  10.608  19.543  0.2468  0.2629 -0.1629
  422POPC   PO4 5054  11.558  10.288  19.378 -0.2873 -0.0322  0.0767
  422POPC   GL1 5055  11.817  10.301  18.973  0.1040 -0.0943  0.2838
  422POPC   GL2 5056  12.098  10.397  18.860  0.0856 -0.0732 -0.0833
  422POPC   C1A 5057  11.731  10.304  18.485 -0.2434  0.0188  0.0429
  422POPC   D2A 5058  11.704  10.034  18.065 -0.2324  0.2312 -0.1296
  422POPC   C3A 5059  12.094  10.163  17.825  0.0216  0.2418  0.4120
  422POPC   C4A 5060  12.439   9.984  17.540 -0.0272 -0.2021  0.3861
  422POPC   C1B 5061  12.204  10.456  18.350 -0.0088 -0.2664 -0.1701
  422POPC   C2B 5062  12.340  10.590  17.901  0.1127  0.0530  0.3007
  422POPC   C3B 5063  12.363  10.700  17.490  0.1433 -0.1683  0.3035
  422POPC   C4B 5064  12.243  11.026  17.190  0.0669  0.0765  0.0281
  423POPC   NC3 5065  25.059  17.439  19.149  0.5110 -0.6102  0.3805
  423POPC   PO4 5066  24.860  17.538  19.472 -0.1273  0.2410  0.0494
  423POPC   GL1 5067  24.649  17.864  19.351  0.3986  0.3932 -0.5647
  423POPC   GL2 5068  24.658  17.849  19.068  0.1027 -0.1916 -0.0652
  423POPC   C1A 5069  24.163  17.814  19.336  0.0281 -0.0804 -0.1896
  423POPC   D2A 5070  23.839  17.478  19.205  0.1835 -0.1137 -0.0162
  423POPC   C3A 5071  24.028  17.345  18.709  0.0417  0.0503 -0.0159
  423POPC   C4A 5072  23.925  17.403  18.248 -0.2101  0.3368 -0.0333
  423POPC   C1B 5073  24.308  17.833  18.835  0.0805 -0.1290 -0.2822
  423POPC   C2B 5074  24.262  17.944  18.373  0.0174 -0.2083 -0.1408
  423POPC   C3B 5075  24.610  18.016  18.059  0.0567  0.1524  0.1458
  423POPC   C4B 5076  24.856  18.331  17.872 -0.2288  0.2151  0.1867
  424POPC   NC3 5077  23.265  29.256  19.406  0.2236  0.2996  0.2300
  424POPC   PO4 5078  23.539  29.531  19.301  0.0045 -0.3165 -0.1889
  424POPC   GL1 5079  23.598  29.495  19.014 -0.3153 -0.0587 -0.0112
  424POPC   GL2 5080  23.789  29.262  18.893  0.2246  0.1039  0.0556
  424POPC   C1A 5081  23.614  29.807  18.647  0.1052  0.0641  0.3413
  424POPC   D2A 5082  23.806  29.850  18.241 -0.3482 -0.4744 -0.1044
  424POPC   C3A 5083  23.536  29.935  17.871 -0.0116  0.1079  0.3339
  424POPC   C4A 5084  23.052  29.946  17.778 -0.0058 -0.0672  0.0322
  424POPC   C1B 5085  23.779  29.330  18.469 -0.0867 -0.0589 -0.0933
  424POPC   C2B 5086  23.875  29.370  17.967  0.2389  0.2508  0.0840
  424POPC   C3B 5087  23.618  29.446  17.605  0.2858  0.2039 -0.1471
  424POPC   C4B 5088  23.432  29.838  17.417 -0.0066 -0.0834  0.0562
  425POPC   NC3 5089  15.823  23.118  19.416  0.1508  0.0319 -0.1716
  425POPC   PO4 5090  15.614  23.387  19.260  0.2179  0.0253 -0.1143
  425POPC   GL1 5091  15.386  23.115  18.978  0.2592 -0.4368 -0.0733
  425POPC   GL2 5092  15.657  22.980  18.839 -0.6045  0.1257  0.1637
  425POPC   C1A 5093  15.287  23.062  18.542 -0.0070  0.2707 -0.0564
  425POPC   D2A 5094  14.935  22.796  18.415 -0.0768 -0.3626 -0.0013
  425POPC   C3A 5095  14.733  22.729  17.996  0.0943 -0.0109 -0.1516
  425POPC   C4A 5096  14.442  22.893  17.649  0.1611  0.0894  0.0363
  425POPC   C1B 5097  15.737  22.912  18.353 -0.0149 -0.1715  0.0764
  425POPC   C2B 5098  15.815  23.141  17.936 -0.0300  0.0597  0.1507
  425POPC   C3B 5099  15.578  23.045  17.566 -0.2042 -0.2578  0.1090
  425POPC   C4B 5100  15.359  22.682  17.336  0.1607  0.1030 -0.1884
  426POPC   NC3 5101  16.915   8.796  19.274 -0.2135  0.2102 -0.0688
  426POPC   PO4 5102  16.661   9.089  19.302  0.1522 -0.2185 -0.0216
  426POPC   GL1 5103  16.657   9.210  18.943 -0.0086 -0.3216  0.2782
  426POPC   GL2 5104  16.384   9.199  18.868  0.0477 -0.1860  0.0880
  426POPC   C1A 5105  16.906   9.231  18.544  0.1609  0.3027 -0.2123
  426POPC   D2A 5106  17.307   9.054  18.383  0.2670  0.2445 -0.0080
  426POPC   C3A 5107  17.226   8.833  17.951  0.0352  0.2314 -0.0523
  426POPC   C4A 5108  16.942   8.992  17.598  0.1044 -0.0062 -0.0044
  426POPC   C1B 5109  16.407   9.008  18.454 -0.1685 -0.0102  0.3954
  426POPC   C2B 5110  16.165   9.093  18.075 -0.0148  0.0461  0.0055
  426POPC   C3B 5111  16.466   9.197  17.720 -0.2207 -0.3806  0.1682
  426POPC   C4B 5112  16.441   9.195  17.280 -0.0596  0.0210 -0.0081
  427POPC   NC3 5113  13.582   8.178  19.191  0.2201 -0.0712 -0.0351
  427POPC   PO4 5114  13.974   8.116  19.119  0.2275 -0.1988  0.0205
  427POPC   GL1 5115  13.958   7.931  18.766  0.2178 -0.1440 -0.3531
  427POPC   GL2 5116  13.701   7.756  18.633  0.0897 -0.0531 -0.1783
  427POPC   C1A 5117  14.022   8.089  18.314  0.1248  0.4573  0.2144
  427POPC   D2A 5118  13.801   8.408  18.164  0.0789  0.2094 -0.2221
  427POPC   C3A 5119  13.498   8.515  17.833  0.0198  0.1101  0.0309
  427POPC   C4A 5120  13.422   8.629  17.400 -0.1367  0.1958 -0.1866
  427POPC   C1B 5121  13.624   7.783  18.194 -0.3112 -0.0761 -0.1347
  427POPC   C2B 5122  13.611   8.057  17.827  0.1694 -0.0961 -0.0057
  427POPC   C3B 5123  13.461   7.982  17.361 -0.1528 -0.0350 -0.0961
  427POPC   C4B 5124  13.109   7.710  17.216  0.0070 -0.0185 -0.2967
  428POPC   NC3 5125  26.236   2.712  18.942 -0.0832  0.1936 -0.0190
  428POPC   PO4 5126  26.576   2.949  18.899 -0.0191 -0.0517  0.0669
  428POPC   GL1 5127  26.487   2.728  18.576 -0.2635 -0.0227  0.0530
  428POPC   GL2 5128  26.680   2.494  18.702  0.0894 -0.3966  0.0567
  428POPC   C1A 5129  26.518   2.632  18.130  0.0205  0.2254 -0.0559
  428POPC   D2A 5130  26.462   2.552  17.660 -0.2513  0.3506 -0.1960
  428POPC   C3A 5131  26.233   2.920  17.489 -0.2835 -0.1949 -0.1117
  428POPC   C4A 5132  25.982   3.165  17.191 -0.2108  0.0077  0.0851
  428POPC   C1B 5133  27.040   2.714  18.525  0.1010 -0.0149 -0.3317
  428POPC   C2B 5134  27.394   2.867  18.313 -0.0042  0.0847 -0.0067
  428POPC   C3B 5135  27.538   2.781  17.851  0.1061  0.4969 -0.1329
  428POPC   C4B 5136  27.850   2.523  17.567  0.1533 -0.1932  0.1474
  429POPC   NC3 5137  13.749   8.313  18.659 -0.1603 -0.2173 -0.3137
  429POPC   PO4 5138  13.371   8.210  18.745  0.2269 -0.1173 -0.2492
  429POPC   GL1 5139  13.293   7.904  18.447 -0.1516  0.2862 -0.2450
  429POPC   GL2 5140  13.333   8.149  18.260 -0.1115 -0.0779 -0.1295
  429POPC   C1A 5141  13.095   7.723  18.113 -0.0655 -0.2302  0.1434
  429POPC   D2A 5142  13.288   7.676  17.761 -0.0655 -0.0572  0.0737
  429POPC   C3A 5143  13.371   7.313  17.458 -0.2815  0.1136 -0.0142
  429POPC   C4A 5144  13.591   6.974  17.331 -0.0273  0.1729 -0.3164
  429POPC   C1B 5145  13.134   8.138  17.864 -0.3137  0.0323  0.1783
  429POPC   C2B 5146  12.874   7.904  17.593  0.2237 -0.0336  0.0971
  429POPC   C3B 5147  12.507   7.703  17.337  0.0562 -0.2382  0.1131
  429POPC   C4B 5148  12.097   7.800  17.351  0.1049  0.0597  0.0911
  430POPC   NC3 5149  26.674  10.513  19.078  0.3284 -0.1457  0.1564
  430POPC   PO4 5150  27.007  10.345  19.259 -0.0731  0.0037 -0.0895
  430POPC   GL1 5151  26.916  10.181  18.871 -0.2097  0.1732 -0.0210
  430POPC   GL2 5152  26.994  10.423  18.704 -0.0719 -0.0390  0.0947
  430POPC   C1A 5153  27.185  10.033  18.472  0.2167 -0.2513 -0.2992
  430POPC   D2A 5154  27.119   9.966  18.047 -0.0510 -0.2343 -0.0762
  430POPC   C3A 5155  27.063  10.085  17.608  0.1108 -0.1656 -0.0091
  430POPC   C4A 5156  27.185  10.273  17.170  0.0628 -0.0632 -0.0081
  430POPC   C1B 5157  27.142  10.533  18.306  0.2156  0.0344 -0.0551
  430POPC   C2B 5158  27.077  10.576  17.846 -0.0283 -0.3723  0.0912
  430POPC   C3B 5159  27.173  10.710  17.417 -0.1481 -0.1447 -0.0468
  430POPC   C4B 5160  27.419  10.763  17.023  0.0589 -0.0423  0.2453
  431POPC   NC3 5161  23.306  10.574  19.253 -0.0643  0.1177 -0.0068
  431POPC   PO4 5162  23.387  10.182  19.259 -0.0301 -0.0169 -0.0736
  431POPC   GL1 5163  23.235  10.150  18.928 -0.2356 -0.1479 -0.1976
  431POPC   GL2 5164  23.383  10.383  18.776 -0.1312 -0.2586  0.4050
  431POPC   C1A 5165  23.563   9.935  18.671  0.0976  0.0778 -0.1004
  431POPC   D2A 5166  23.918   9.714  18.592 -0.5014 -0.0443 -0.1073
  431POPC   C3A 5167  23.964   9.771  18.134  0.0003 -0.1531  0.1476
  431POPC   C4A 5168  23.735   9.642  17.750  0.0330  0.2166 -0.0597
  431POPC   C1B 5169  23.183  10.204  18.447  0.0870  0.0282 -0.0047
  431POPC   C2B 5170  23.035  10.070  18.049 -0.1276 -0.0723 -0.0251
  431POPC   C3B 5171  23.232   9.802  17.808  0.5383  0.0340 -0.0734
  431POPC   C4B 5172  23.361   9.693  17.412 -0.2519  0.1957 -0.0437
  432POPC   NC3 5173  11.584  17.812  18.974  0.1204  0.0194  0.1562
  432POPC   PO4 5174  11.643  18.202  18.906 -0.1419 -0.0508 -0.0897
  432POPC   GL1 5175  11.543  18.376  18.597  0.1156  0.1631 -0.2778
  432POPC   GL2 5176  11.697  18.629  18.623 -0.1086  0.0321 -0.0311
  432POPC   C1A 5177  11.262  18.332  18.232  0.1859 -0.1407 -0.1121
  432POPC   D2A 5178  10.905  18.317  17.959  0.3551 -0.1242 -0.2187
  432POPC   C3A 5179  10.722  18.715  17.740  0.1320 -0.1116  0.0518
  432POPC   C4A 5180  10.535  18.870  17.377  0.0699 -0.3692 -0.1312
  432POPC   C1B 5181  11.713  18.455  18.116  0.3056 -0.3017  0.1614
  432POPC   C2B 5182  11.765  18.702  17.713 -0.0314 -0.2899  0.1838
  432POPC   C3B 5183  11.743  18.997  17.350  0.0183  0.1102  0.1720
  432POPC   C4B 5184  11.568  19.407  17.316 -0.1304 -0.1308 -0.2918
  433POPC   NC3 5185   4.954   1.217  19.427 -0.0436  0.3150  0.5348
  433POPC   PO4 5186   5.361   1.138  19.414  0.1688 -0.0128  0.1444
  433POPC   GL1 5187   5.198   0.821  19.078  0.1534  0.3394  0.1228
  433POPC   GL2 5188   5.344   0.565  19.015  0.1104  0.1031  0.2535
  433POPC   C1A 5189   5.113   0.844  18.646 -0.1123 -0.0170  0.1598
  433POPC   D2A 5190   5.086   0.872  18.193  0.1031 -0.3334  0.1479
  433POPC   C3A 5191   5.052   1.211  17.886 -0.0828 -0.1400 -0.2024
  433POPC   C4A 5192   4.931   1.375  17.493  0.2069 -0.1315  0.0966
  433POPC   C1B 5193   5.674   0.311  18.854  0.1727  0.0544 -0.0000
  433POPC   C2B 5194   6.057   0.046  18.705 -0.1131  0.2844  0.2381
  433POPC   C3B 5195   6.283  -0.168  18.388  0.1279 -0.1468  0.0063
  433POPC   C4B 5196   6.565  -0.564  18.309 -0.1940  0.0484 -0.2039
  434POPC   NC3 5197   1.260  25.646  19.530 -0.1093 -0.2990  0.0502
  434POPC   PO4 5198   1.664  25.750  19.502  0.0257 -0.0662  0.1705
  434POPC   GL1 5199   1.939  25.909  19.241 -0.0777 -0.1133 -0.2195
  434POPC   GL2 5200   1.865  25.848  18.981  0.1025  0.0031  0.2496
  434POPC   C1A 5201   2.102  26.276  18.984 -0.0718 -0.0950  0.1423
  434POPC   D2A 5202   2.101  26.736  18.828  0.0438 -0.0623 -0.2382
  434POPC   C3A 5203   2.060  26.931  18.409  0.1095 -0.2020  0.0161
  434POPC   C4A 5204   1.991  27.040  17.963  0.1682  0.2895  0.0339
  434POPC   C1B 5205   1.847  25.946  18.522  0.0593 -0.0746 -0.1908
  434POPC   C2B 5206   2.013  26.103  18.054 -0.0171  0.0726  0.4604
  434POPC   C3B 5207   2.107  26.204  17.602 -0.3229 -0.0144 -0.4039
  434POPC   C4B 5208   2.364  26.268  17.183 -0.0374 -0.0863 -0.1515
  435POPC   NC3 5209  25.146  14.300  18.916  0.1524 -0.0733 -0.1184
  435POPC   PO4 5210  24.912  14.559  19.062  0.0069  0.1576 -0.0569
  435POPC   GL1 5211  24.630  14.575  18.844 -0.1430  0.3011 -0.0467
  435POPC   GL2 5212  24.539  14.825  18.868  0.2382  0.0005 -0.2771
  435POPC   C1A 5213  24.650  14.531  18.378  0.0393 -0.0443 -0.2125
  435POPC   D2A 5214  24.505  14.511  17.952 -0.1593 -0.1478 -0.1222
  435POPC   C3A 5215  24.884  14.424  17.656  0.0729 -0.2107 -0.1592
  435POPC   C4A 5216  25.115  14.000  17.636 -0.0380 -0.1197  0.0448
  435POPC   C1B 5217  24.290  15.094  18.750 -0.0632  0.1932 -0.0062
  435POPC   C2B 5218  24.125  15.469  18.535 -0.1975 -0.0739  0.1033
  435POPC   C3B 5219  24.208  15.744  18.156  0.2081 -0.0153  0.0850
  435POPC   C4B 5220  24.313  16.048  17.806  0.0487 -0.2173  0.0203
  436POPC   NC3 5221  25.873  10.434  19.252 -0.3935  0.0563  0.0630
  436POPC   PO4 5222  26.205  10.630  19.231  0.2697 -0.2354  0.2987
  436POPC   GL1 5223  26.103  10.664  18.795  0.2596  0.3535 -0.3448
  436POPC   GL2 5224  26.345  10.714  18.709 -0.1770 -0.2233 -0.1473
  436POPC   C1A 5225  25.989  10.615  18.377  0.1657  0.0774 -0.1012
  436POPC   D2A 5226  26.315  10.652  18.026 -0.0292 -0.0189  0.0654
  436POPC   C3A 5227  26.471  10.523  17.601  0.1316  0.0068 -0.1054
  436POPC   C4A 5228  26.634  10.173  17.462  0.0147  0.0449 -0.0356
  436POPC   C1B 5229  26.637  10.529  18.384 -0.0883  0.0381 -0.3393
  436POPC   C2B 5230  26.733  10.267  18.013  0.2706  0.1598 -0.0738
  436POPC   C3B 5231  26.665   9.804  17.871  0.1872  0.2209  0.0135
  436POPC   C4B 5232  26.597   9.360  17.966  0.1272 -0.1809  0.1268
  437POPC   NC3 5233  15.606   6.940  19.321  0.3522 -0.2348  0.1720
  437POPC   PO4 5234  15.870   7.174  19.497 -0.5054  0.2872 -0.1269
  437POPC   GL1 5235  15.879   7.218  19.065  0.2455  0.3359  0.0230
  437POPC   GL2 5236  15.811   7.490  19.049  0.1967  0.3950  0.1078
  437POPC   C1A 5237  15.910   6.919  18.734  0.0334 -0.1002 -0.0143
  437POPC   D2A 5238  15.812   6.734  18.321  0.1007 -0.0014 -0.0083
  437POPC   C3A 5239  15.779   6.338  18.080  0.0154  0.0453  0.0435
  437POPC   C4A 5240  15.579   6.040  17.777  0.3850  0.3665  0.2227
  437POPC   C1B 5241  15.694   7.631  18.592  0.0226 -0.3335 -0.2845
  437POPC   C2B 5242  15.788   7.646  18.152  0.0188 -0.2480  0.3377
  437POPC   C3B 5243  15.811   7.760  17.702  0.2213 -0.1061  0.0133
  437POPC   C4B 5244  16.124   7.507  17.402  0.0899  0.1919  0.3401
  438POPC   NC3 5245  11.550  24.224  18.877 -0.0741  0.0733 -0.0343
  438POPC   PO4 5246  11.777  24.367  19.155 -0.0455 -0.3309 -0.0657
  438POPC   GL1 5247  12.088  24.460  18.963 -0.5578  0.0111 -0.1331
  438POPC   GL2 5248  12.070  24.307  18.704 -0.1602 -0.1413 -0.3617
  438POPC   C1A 5249  12.564  24.645  18.926  0.0606  0.4166 -0.2078
  438POPC   D2A 5250  12.853  24.744  18.601 -0.2808  0.0605 -0.1674
  438POPC   C3A 5251  12.789  24.817  18.218 -0.0899  0.1052 -0.0736
  438POPC   C4A 5252  12.964  24.582  17.812 -0.0797 -0.0590  0.0382
  438POPC   C1B 5253  11.992  24.437  18.294 -0.1241 -0.1295  0.0488
  438POPC   C2B 5254  11.921  24.426  17.846  0.1513  0.1728 -0.2671
  438POPC   C3B 5255  11.578  24.463  17.481  0.0458 -0.1017  0.0012
  438POPC   C4B 5256  11.499  24.568  17.003 -0.5149  0.0011  0.0366
  439POPC   NC3 5257  27.582   4.084  18.639 -0.0973  0.1085 -0.2025
  439POPC   PO4 5258  27.588   4.165  19.041  0.1303 -0.0169 -0.0258
  439POPC   GL1 5259  27.301   4.425  18.854 -0.1135  0.2354  0.0465
  439POPC   GL2 5260  27.470   4.543  18.649 -0.0677  0.0645 -0.0327
  439POPC   C1A 5261  26.976   4.297  18.579  0.0932  0.2508  0.0889
  439POPC   D2A 5262  26.770   3.941  18.356 -0.1073 -0.3236  0.0289
  439POPC   C3A 5263  26.833   3.516  18.364  0.1375  0.1127  0.1180
  439POPC   C4A 5264  26.772   3.099  18.316  0.1045 -0.1176 -0.1432
  439POPC   C1B 5265  27.689   4.424  18.252  0.3522  0.1932 -0.3801
  439POPC   C2B 5266  27.578   4.464  17.808 -0.1657  0.0740 -0.1711
  439POPC   C3B 5267  27.648   4.545  17.330  0.0965  0.2197 -0.0859
  439POPC   C4B 5268  27.532   4.307  16.979 -0.3053  0.0632 -0.1612
  440POPC   NC3 5269  12.846  25.709  19.258 -0.0438  0.0471 -0.5035
  440POPC   PO4 5270  13.143  25.756  19.047 -0.0441 -0.0419  0.2912
  440POPC   GL1 5271  13.169  25.573  18.750 -0.1162  0.2255 -0.1906
  440POPC   GL2 5272  13.077  25.842  18.560 -0.1049  0.4154 -0.1270
  440POPC   C1A 5273  13.540  25.372  18.528  0.0512 -0.0066 -0.3864
  440POPC   D2A 5274  13.907  25.477  18.225 -0.1080 -0.0434  0.0822
  440POPC   C3A 5275  14.128  25.647  17.831  0.3726 -0.1247  0.0509
  440POPC   C4A 5276  14.024  25.666  17.399 -0.0035  0.0686 -0.4610
  440POPC   C1B 5277  13.195  25.653  18.135  0.1312  0.2931 -0.1914
  440POPC   C2B 5278  13.425  25.361  17.844  0.3211 -0.0447  0.1706
  440POPC   C3B 5279  13.711  25.302  17.520  0.0243  0.0247 -0.0034
  440POPC   C4B 5280  13.963  25.225  17.108  0.1178 -0.2370 -0.2012
  441POPC   NC3 5281  22.599  22.602  18.893  0.2011  0.1313  0.1834
  441POPC   PO4 5282  22.891  22.856  18.993 -0.2116 -0.2913 -0.3383
  441POPC   GL1 5283  23.085  22.670  18.683  0.2089 -0.1941 -0.1478
  441POPC   GL2 5284  22.979  22.447  18.508 -0.1894 -0.1844  0.0205
  441POPC   C1A 5285  22.999  22.847  18.239 -0.1820 -0.1086  0.1625
  441POPC   D2A 5286  23.043  22.971  17.808 -0.3805 -0.0164  0.2916
  441POPC   C3A 5287  23.209  22.952  17.351  0.0916  0.0359 -0.5850
  441POPC   C4A 5288  22.943  23.025  17.033  0.0945 -0.3197  0.0292
  441POPC   C1B 5289  23.151  22.403  18.077 -0.0110 -0.1685 -0.0328
  441POPC   C2B 5290  23.234  22.509  17.608 -0.2255 -0.0907  0.2056
  441POPC   C3B 5291  23.118  22.169  17.348  0.1521  0.0439 -0.0959
  441POPC   C4B 5292  22.805  22.275  16.947  0.0176  0.3477  0.1000
  442POPC   NC3 5293  26.764  15.742  19.149  0.1394 -0.0150 -0.2352
  442POPC   PO4 5294  26.972  16.033  19.291  0.1012 -0.1366  0.2876
  442POPC   GL1 5295  27.084  16.008  18.900  0.3327 -0.1300 -0.2254
  442POPC   GL2 5296  27.304  16.074  18.842  0.0500  0.0909 -0.0370
  442POPC   C1A 5297  27.085  15.592  18.729  0.0017 -0.0125 -0.1158
  442POPC   D2A 5298  27.127  15.205  18.489  0.1624  0.0948 -0.0513
  442POPC   C3A 5299  27.173  15.169  18.002  0.1262  0.0964  0.1135
  442POPC   C4A 5300  27.097  15.141  17.539 -0.1145 -0.2410 -0.1222
  442POPC   C1B 5301  27.076  15.946  18.415  0.0602  0.1523  0.0739
  442POPC   C2B 5302  26.997  15.642  18.100  0.3360  0.2306 -0.0818
  442POPC   C3B 5303  26.763  15.413  17.758 -0.0190  0.1915 -0.2189
  442POPC   C4B 5304  26.558  15.502  17.343 -0.0197 -0.0123 -0.0054
  443POPC   NC3 5305  19.291  24.912  19.221  0.1973 -0.0678  0.1352
  443POPC   PO4 5306  19.537  25.161  19.387  0.0331 -0.1028 -0.1716
  443POPC   GL1 5307  19.466  25.259  18.965  0.1080 -0.0788  0.3068
  443POPC   GL2 5308  19.328  25.501  18.828 -0.3251 -0.2394  0.0693
  443POPC   C1A 5309  19.491  25.023  18.570 -0.0631  0.1313 -0.0516
  443POPC   D2A 5310  19.598  25.059  18.162 -0.1377  0.2734 -0.0541
  443POPC   C3A 5311  19.876  24.990  17.768  0.2215 -0.2362 -0.1898
  443POPC   C4A 5312  19.885  24.893  17.278 -0.1042  0.1874  0.0159
  443POPC   C1B 5313  19.232  25.410  18.402  0.0671 -0.1957  0.0718
  443POPC   C2B 5314  19.217  25.317  17.915 -0.2984 -0.0319 -0.2656
  443POPC   C3B 5315  19.056  25.565  17.551 -0.0564  0.0585  0.1437
  443POPC   C4B 5316  18.962  25.816  17.196  0.1533 -0.3723 -0.3451
  444POPC   NC3 5317  30.594  24.787  19.201 -0.1636 -0.1098  0.1412
  444POPC   PO4 5318  30.469  25.151  19.089  0.1817  0.0980  0.1566
  444POPC   GL1 5319  30.610  25.028  18.680 -0.0942  0.1753 -0.2064
  444POPC   GL2 5320  30.841  24.960  18.809  0.3180 -0.1293 -0.0801
  444POPC   C1A 5321  30.488  25.160  18.273 -0.2769 -0.0452  0.0465
  444POPC   D2A 5322  30.381  25.364  17.889 -0.1558 -0.0239  0.0540
  444POPC   C3A 5323  30.357  25.247  17.473  0.1413  0.0327  0.0962
  444POPC   C4A 5324  30.029  25.013  17.380  0.2645  0.2445 -0.0057
  444POPC   C1B 5325  31.038  24.979  18.395  0.1812  0.2649  0.0538
  444POPC   C2B 5326  31.161  25.180  18.045 -0.0576  0.2482 -0.2722
  444POPC   C3B 5327  31.313  25.281  17.609 -0.2402  0.0008  0.0668
  444POPC   C4B 5328  31.243  25.259  17.136 -0.0389  0.1987 -0.1180
  445POPC   NC3 5329  20.013  31.612  19.394 -0.0198  0.0795 -0.0594
  445POPC   PO4 5330  20.384  31.493  19.456  0.0300 -0.3061 -0.0785
  445POPC   GL1 5331  20.334  31.659  19.003  0.0133 -0.0048 -0.0582
  445POPC   GL2 5332  20.278  31.422  18.845  0.0161  0.2278  0.1089
  445POPC   C1A 5333  20.690  31.710  18.710 -0.1436  0.0852  0.1969
  445POPC   D2A 5334  20.743  31.657  18.276 -0.0049  0.3833 -0.3791
  445POPC   C3A 5335  20.642  31.506  17.847  0.0537 -0.2930 -0.0201
  445POPC   C4A 5336  20.448  31.198  17.596 -0.0018  0.1345 -0.3070
  445POPC   C1B 5337  20.261  31.491  18.407 -0.0142  0.0325 -0.1269
  445POPC   C2B 5338  20.125  31.296  18.005  0.2307 -0.2712 -0.1383
  445POPC   C3B 5339  19.919  31.068  17.675  0.0376 -0.0768  0.1793
  445POPC   C4B 5340  19.712  30.941  17.212  0.0459  0.1538  0.0960
  446POPC   NC3 5341  12.660   5.327  20.024 -0.0151 -0.3814 -0.0843
  446POPC   PO4 5342  12.837   5.172  19.709 -0.3628  0.1794 -0.0501
  446POPC   GL1 5343  12.963   5.038  19.404 -0.1784  0.0685  0.1193
  446POPC   GL2 5344  13.220   5.131  19.285 -0.1783  0.0804  0.1365
  446POPC   C1A 5345  13.123   4.659  19.188 -0.1587  0.1566  0.0867
  446POPC   D2A 5346  13.344   4.510  18.847  0.0039 -0.2550 -0.0911
  446POPC   C3A 5347  13.694   4.282  18.917 -0.0523  0.3287  0.0859
  446POPC   C4A 5348  13.924   3.950  19.098  0.0046  0.1921 -0.0491
  446POPC   C1B 5349  13.221   5.103  18.799 -0.1651 -0.1791 -0.5820
  446POPC   C2B 5350  12.984   5.012  18.402  0.1499  0.4196  0.0214
  446POPC   C3B 5351  13.035   5.149  17.955 -0.2256  0.0608 -0.0171
  446POPC   C4B 5352  13.124   5.189  17.511  0.0971  0.2815  0.0624
  447POPC   NC3 5353  15.011   3.202  19.245 -0.2581  0.0997 -0.0363
  447POPC   PO4 5354  15.401   3.261  19.288  0.1074 -0.4599  0.0773
  447POPC   GL1 5355  15.411   3.343  18.962  0.0007  0.1184 -0.1404
  447POPC   GL2 5356  15.350   3.083  18.838  0.2974 -0.3324  0.1489
  447POPC   C1A 5357  15.285   3.623  18.640  0.0081 -0.0362  0.1235
  447POPC   D2A 5358  15.107   3.904  18.231 -0.2728 -0.3175  0.0083
  447POPC   C3A 5359  14.828   3.638  17.950 -0.0220 -0.2684 -0.0253
  447POPC   C4A 5360  14.799   3.439  17.606 -0.0392 -0.0983  0.0622
  447POPC   C1B 5361  14.928   3.314  18.731  0.3409  0.2818  0.1263
  447POPC   C2B 5362  14.668   3.587  18.491 -0.1593 -0.2099 -0.4751
  447POPC   C3B 5363  14.474   3.927  18.250 -0.2175 -0.0080  0.3505
  447POPC   C4B 5364  14.675   4.146  17.891 -0.0841  0.4822  0.1484
  448POPC   NC3 5365  28.645   5.016  19.477 -0.0261  0.0975  0.0551
  448POPC   PO4 5366  28.974   4.855  19.363  0.0948  0.1801  0.1245
  448POPC   GL1 5367  29.240   4.746  18.999  0.1862  0.2527  0.2096
  448POPC   GL2 5368  29.536   4.728  18.909 -0.0485  0.2023 -0.1777
  448POPC   C1A 5369  29.210   5.070  18.688 -0.1596 -0.1732  0.0838
  448POPC   D2A 5370  29.365   5.134  18.264 -0.0825 -0.1109  0.5152
  448POPC   C3A 5371  29.417   4.848  17.857 -0.0469 -0.3090 -0.0432
  448POPC   C4A 5372  29.528   4.620  17.536 -0.3494  0.2543  0.2044
  448POPC   C1B 5373  29.508   4.662  18.476 -0.2121 -0.0561  0.2278
  448POPC   C2B 5374  29.719   4.483  18.041 -0.1636 -0.0620  0.1899
  448POPC   C3B 5375  29.851   4.183  17.647  0.0058  0.1067 -0.0669
  448POPC   C4B 5376  29.752   3.813  17.357  0.0664 -0.0428 -0.1010
  449POPC   NC3 5377  10.251  24.311  18.913 -0.0718  0.1719  0.1254
  449POPC   PO4 5378  10.036  23.979  18.984 -0.2070 -0.1524 -0.1671
  449POPC   GL1 5379   9.817  23.891  18.697  0.1814  0.1046  0.1312
  449POPC   GL2 5380   9.861  23.645  18.692 -0.2942 -0.0582  0.1303
  449POPC   C1A 5381   9.390  24.022  18.484  0.3428 -0.2871 -0.2597
  449POPC   D2A 5382   8.964  24.208  18.380 -0.2947  0.0565 -0.0236
  449POPC   C3A 5383   8.771  24.302  17.973  0.0639  0.1027 -0.4171
  449POPC   C4A 5384   8.817  24.305  17.571  0.0546  0.0722  0.1778
  449POPC   C1B 5385   9.792  23.667  18.273 -0.4200  0.0144  0.0507
  449POPC   C2B 5386   9.770  23.602  17.831  0.0945  0.0345 -0.0401
  449POPC   C3B 5387   9.991  23.679  17.386 -0.2354  0.0794 -0.0938
  449POPC   C4B 5388   9.853  23.574  16.907 -0.1633  0.1143 -0.1950
  450POPC   NC3 5389  13.579  28.356  19.622  0.2047 -0.2066  0.1987
  450POPC   PO4 5390  13.936  28.387  19.763 -0.0615 -0.1113 -0.3628
  450POPC   GL1 5391  14.044  28.274  19.375 -0.0327  0.0564  0.2660
  450POPC   GL2 5392  13.863  28.373  19.214  0.1381  0.2874  0.1232
  450POPC   C1A 5393  14.327  28.522  19.113  0.0689  0.2194  0.2004
  450POPC   D2A 5394  14.502  28.840  18.901  0.1090  0.4631  0.2241
  450POPC   C3A 5395  14.411  28.875  18.437  0.0031  0.0472 -0.0640
  450POPC   C4A 5396  14.612  28.852  18.056  0.1003 -0.0748  0.2347
  450POPC   C1B 5397  13.574  28.311  18.860  0.0014  0.0427 -0.2888
  450POPC   C2B 5398  13.305  28.216  18.521  0.1461 -0.0570 -0.0016
  450POPC   C3B 5399  13.232  28.362  18.055  0.1181  0.1256  0.0955
  450POPC   C4B 5400  13.150  28.244  17.612 -0.2157  0.0455 -0.0062
  451POPC   NC3 5401  17.574   2.816  19.801  0.2191  0.0779 -0.1727
  451POPC   PO4 5402  17.561   2.732  19.427  0.2027  0.2301 -0.1883
  451POPC   GL1 5403  17.666   2.641  19.021  0.0513 -0.0903 -0.1286
  451POPC   GL2 5404  17.814   2.899  18.929  0.3976  0.3375  0.2274
  451POPC   C1A 5405  17.436   2.672  18.603 -0.1226 -0.0093  0.2055
  451POPC   D2A 5406  17.392   2.738  18.140  0.0271 -0.0247 -0.4905
  451POPC   C3A 5407  17.254   2.483  17.790 -0.1450 -0.1234  0.0779
  451POPC   C4A 5408  17.418   2.041  17.763 -0.0473 -0.0614  0.1799
  451POPC   C1B 5409  18.062   2.853  18.477  0.1055  0.2321  0.0234
  451POPC   C2B 5410  18.069   2.779  18.013 -0.0089 -0.0999  0.1271
  451POPC   C3B 5411  17.855   2.547  17.669 -0.0059  0.0258 -0.0555
  451POPC   C4B 5412  17.872   2.230  17.306 -0.1935 -0.1387 -0.2500
  452POPC   NC3 5413  20.890   9.207  19.571 -0.1161  0.1056  0.0106
  452POPC   PO4 5414  21.049   9.488  19.300  0.0200  0.4527  0.1114
  452POPC   GL1 5415  21.175   9.660  18.993  0.3102 -0.1839 -0.1984
  452POPC   GL2 5416  21.261   9.915  18.960 -0.1413 -0.1079  0.0880
  452POPC   C1A 5417  20.969   9.600  18.571  0.2786 -0.2780 -0.1355
  452POPC   D2A 5418  21.048   9.503  18.103  0.2045  0.1554  0.0203
  452POPC   C3A 5419  20.938   9.197  17.776  0.0131  0.1637  0.1368
  452POPC   C4A 5420  20.602   8.849  17.627 -0.0225 -0.1012  0.3800
  452POPC   C1B 5421  21.476  10.127  18.600  0.2905 -0.1448  0.1029
  452POPC   C2B 5422  21.660  10.190  18.225 -0.1705  0.0262 -0.0198
  452POPC   C3B 5423  21.774  10.199  17.793 -0.0810 -0.2634  0.3357
  452POPC   C4B 5424  21.717  10.441  17.409  0.1249 -0.1891 -0.0437
  453POPC   NC3 5425  25.384  15.160  18.967 -0.3149 -0.0984  0.0554
  453POPC   PO4 5426  25.320  14.798  19.023  0.2535 -0.0489  0.1252
  453POPC   GL1 5427  25.216  14.854  18.657  0.2081  0.1921  0.1227
  453POPC   GL2 5428  24.909  14.853  18.605 -0.0075 -0.0139  0.2148
  453POPC   C1A 5429  25.244  14.640  18.214 -0.4932 -0.0035 -0.0197
  453POPC   D2A 5430  25.219  14.787  17.789 -0.0774 -0.0603 -0.1716
  453POPC   C3A 5431  25.233  15.255  17.698 -0.0593  0.1151  0.2700
  453POPC   C4A 5432  25.199  15.699  17.563  0.1017 -0.3901  0.1886
  453POPC   C1B 5433  24.778  14.941  18.119 -0.0487 -0.0121  0.3833
  453POPC   C2B 5434  24.556  14.951  17.702  0.0182 -0.1869  0.2637
  453POPC   C3B 5435  24.244  15.123  17.499  0.4545  0.0295 -0.1234
  453POPC   C4B 5436  23.859  15.275  17.454  0.1148 -0.1739 -0.1182
  454POPC   NC3 5437   8.997   7.508  19.172  0.2329 -0.0310  0.2150
  454POPC   PO4 5438   8.696   7.772  19.178 -0.0795  0.0899  0.1254
  454POPC   GL1 5439   8.899   7.742  18.736  0.0145  0.0339  0.1517
  454POPC   GL2 5440   9.110   7.900  18.871  0.1352  0.0529 -0.1654
  454POPC   C1A 5441   9.229   7.711  18.425  0.0070 -0.0273  0.2520
  454POPC   D2A 5442   9.479   7.488  18.063  0.4197  0.0446  0.0075
  454POPC   C3A 5443   9.844   7.472  17.778 -0.1738 -0.0371  0.0310
  454POPC   C4A 5444  10.169   7.162  17.560 -0.1129 -0.2941 -0.4228
  454POPC   C1B 5445   9.559   8.004  18.722 -0.2140  0.1980  0.0197
  454POPC   C2B 5446  10.005   8.068  18.572  0.2494 -0.1471 -0.1217
  454POPC   C3B 5447  10.274   8.195  18.204 -0.1806 -0.0128  0.1516
  454POPC   C4B 5448  10.584   8.473  18.178 -0.1300 -0.0658  0.0895
  455POPC   NC3 5449  20.598  11.347  19.303 -0.2453 -0.0306  0.1096
  455POPC   PO4 5450  20.975  11.192  19.408 -0.0919 -0.1910 -0.0055
  455POPC   GL1 5451  20.966  11.198  19.036 -0.1956 -0.1458  0.2623
  455POPC   GL2 5452  20.906  10.979  18.984 -0.1891  0.1204  0.7569
  455POPC   C1A 5453  20.936  11.167  18.527  0.1490 -0.1924  0.2873
  455POPC   D2A 5454  21.247  11.189  18.125  0.0498 -0.0059  0.1959
  455POPC   C3A 5455  21.638  11.272  17.846  0.0406  0.2665 -0.2593
  455POPC   C4A 5456  21.894  10.987  17.599 -0.2016 -0.0506  0.1119
  455POPC   C1B 5457  20.638  10.815  18.609  0.1031 -0.0603 -0.1779
  455POPC   C2B 5458  20.553  10.995  18.148  0.0189 -0.1252  0.0218
  455POPC   C3B 5459  20.461  11.165  17.773 -0.1714 -0.0455  0.1428
  455POPC   C4B 5460  20.249  11.132  17.316 -0.0887  0.0214  0.3796
  456POPC   NC3 5461   4.046   8.604  19.138  0.0902 -0.0446  0.2705
  456POPC   PO4 5462   4.119   9.002  19.108 -0.0123  0.2958  0.1992
  456POPC   GL1 5463   4.209   8.912  18.814 -0.0931 -0.0479  0.1489
  456POPC   GL2 5464   4.332   8.615  18.734 -0.0716 -0.0330  0.1363
  456POPC   C1A 5465   4.084   8.892  18.386 -0.3147 -0.1040  0.2738
  456POPC   D2A 5466   3.880   8.612  18.051 -0.2866  0.2140 -0.2757
  456POPC   C3A 5467   3.626   8.652  17.676  0.0399  0.0801 -0.0795
  456POPC   C4A 5468   3.314   8.761  17.364  0.0981 -0.1506 -0.1812
  456POPC   C1B 5469   4.212   8.412  18.314 -0.1823  0.0518 -0.1479
  456POPC   C2B 5470   4.182   8.170  17.884  0.3434  0.0702  0.0724
  456POPC   C3B 5471   4.364   8.228  17.424  0.1564  0.0781  0.3268
  456POPC   C4B 5472   4.247   8.479  17.028  0.1481 -0.0947 -0.1295
  457POPC   NC3 5473   2.129  23.619  19.326  0.1590 -0.1063  0.1258
  457POPC   PO4 5474   1.793  23.831  19.211  0.3421 -0.3766 -0.2436
  457POPC   GL1 5475   1.927  23.579  18.922  0.0044  0.6783  0.2629
  457POPC   GL2 5476   1.721  23.687  18.742 -0.3979 -0.1807 -0.3198
  457POPC   C1A 5477   2.224  23.223  18.759  0.0385 -0.0548  0.2003
  457POPC   D2A 5478   2.650  23.201  18.570 -0.0257  0.0449  0.2538
  457POPC   C3A 5479   2.681  23.261  18.147 -0.0949 -0.0359  0.0358
  457POPC   C4A 5480   2.683  23.341  17.624 -0.1240 -0.0542 -0.1205
  457POPC   C1B 5481   1.921  23.511  18.409 -0.2867 -0.0172  0.0770
  457POPC   C2B 5482   1.803  23.207  18.048  0.0770  0.0799  0.1184
  457POPC   C3B 5483   1.768  22.989  17.665  0.0811 -0.1170  0.1498
  457POPC   C4B 5484   1.912  22.741  17.308 -0.0468 -0.1668 -0.1820
  458POPC   NC3 5485   8.504  18.672  18.833 -0.4129  0.0986 -0.2109
  458POPC   PO4 5486   8.670  18.849  19.148  0.5941  0.1180 -0.1893
  458POPC   GL1 5487   8.970  18.595  19.002 -0.2126 -0.2565 -0.0096
  458POPC   GL2 5488   8.991  18.715  18.727 -0.0924 -0.0615 -0.0791
  458POPC   C1A 5489   9.016  18.252  18.706 -0.2803 -0.0198 -0.0397
  458POPC   D2A 5490   9.221  18.033  18.361  0.1049  0.1023  0.0178
  458POPC   C3A 5491   8.996  18.169  17.982 -0.0362 -0.2861 -0.2289
  458POPC   C4A 5492   9.151  18.332  17.566 -0.2124  0.0868  0.1898
  458POPC   C1B 5493   8.870  18.535  18.328  0.1155 -0.2602  0.1422
  458POPC   C2B 5494   8.749  18.557  17.854  0.3129 -0.0062  0.2145
  458POPC   C3B 5495   8.848  18.786  17.464 -0.0625 -0.0904  0.4759
  458POPC   C4B 5496   8.822  19.123  17.111 -0.0552 -0.0837  0.3602
  459POPC   NC3 5497   1.568   8.090  19.116  0.0473 -0.1199 -0.0040
  459POPC   PO4 5498   1.495   7.788  19.339  0.1101 -0.0862  0.0915
  459POPC   GL1 5499   1.708   7.597  18.993 -0.2079 -0.0145 -0.1838
  459POPC   GL2 5500   1.383   7.539  18.893 -0.2060 -0.0612 -0.0730
  459POPC   C1A 5501   1.952   7.385  18.671  0.0419  0.0151 -0.1783
  459POPC   D2A 5502   2.215   7.239  18.397 -0.1735  0.2505 -0.1033
  459POPC   C3A 5503   2.125   6.887  18.037  0.0464  0.2467  0.1560
  459POPC   C4A 5504   1.826   6.593  17.995 -0.1266 -0.0743  0.2052
  459POPC   C1B 5505   1.541   7.515  18.477 -0.4948  0.4681  0.1782
  459POPC   C2B 5506   1.837   7.367  18.109  0.0937 -0.0836 -0.0613
  459POPC   C3B 5507   2.090   7.461  17.747  0.1233  0.0743 -0.1549
  459POPC   C4B 5508   2.272   7.865  17.518  0.3505  0.0064 -0.3546
  460POPC   NC3 5509   8.110  26.982  19.173 -0.1241  0.1872  0.1491
  460POPC   PO4 5510   8.459  26.800  19.192 -0.2066  0.0656  0.0371
  460POPC   GL1 5511   8.479  26.881  18.875  0.2253  0.4910  0.3317
  460POPC   GL2 5512   8.225  26.760  18.731 -0.3705  0.0242  0.0891
  460POPC   C1A 5513   8.860  26.797  18.608  0.0861 -0.1955 -0.0757
  460POPC   D2A 5514   9.267  26.866  18.750  0.1798  0.1778 -0.1012
  460POPC   C3A 5515   9.400  27.086  18.375  0.1578  0.2860  0.2148
  460POPC   C4A 5516   9.261  27.406  18.053 -0.0052  0.2897 -0.1546
  460POPC   C1B 5517   8.255  26.818  18.255  0.2476  0.1216 -0.0029
  460POPC   C2B 5518   8.086  26.875  17.846 -0.0174  0.0789  0.2847
  460POPC   C3B 5519   7.849  26.840  17.482 -0.2935  0.2101  0.5094
  460POPC   C4B 5520   7.453  26.790  17.281 -0.0843 -0.0744  0.0740
  461POPC   NC3 5521   4.666   4.815  19.611 -0.0972 -0.1079  0.1047
  461POPC   PO4 5522   4.467   4.482  19.507  0.0036  0.2543 -0.1539
  461POPC   GL1 5523   4.514   4.625  19.174  0.2875  0.1553  0.1386
  461POPC   GL2 5524   4.337   4.597  18.935 -0.0674 -0.3684 -0.3540
  461POPC   C1A 5525   4.733   4.881  18.849 -0.2462  0.1422 -0.0481
  461POPC   D2A 5526   4.563   5.015  18.390 -0.0217  0.0201 -0.5212
  461POPC   C3A 5527   4.707   5.340  18.171 -0.2662 -0.0113 -0.0246
  461POPC   C4A 5528   4.901   5.721  17.998  0.0784  0.2662  0.0087
  461POPC   C1B 5529   3.940   4.422  18.791  0.1648  0.0347  0.3583
  461POPC   C2B 5530   3.671   4.498  18.370 -0.0817 -0.1379 -0.0507
  461POPC   C3B 5531   3.426   4.618  17.977 -0.1322 -0.0990  0.0749
  461POPC   C4B 5532   3.244   4.848  17.618 -0.2035 -0.1426  0.0839
  462POPC   NC3 5533   8.024  24.177  19.106 -0.1265 -0.0555 -0.1686
  462POPC   PO4 5534   7.805  24.447  19.209 -0.1423 -0.1478  0.0439
  462POPC   GL1 5535   7.707  24.470  18.874 -0.0276 -0.0855  0.1094
  462POPC   GL2 5536   7.787  24.746  18.817 -0.1096  0.2266  0.0952
  462POPC   C1A 5537   7.290  24.485  18.673 -0.0927 -0.1957 -0.1297
  462POPC   D2A 5538   7.011  24.251  18.359  0.6473 -0.0261 -0.1628
  462POPC   C3A 5539   6.954  24.176  17.914 -0.0542  0.0317 -0.0664
  462POPC   C4A 5540   6.909  23.992  17.504 -0.1703  0.2280 -0.1382
  462POPC   C1B 5541   7.760  24.578  18.383 -0.3264  0.1729  0.1062
  462POPC   C2B 5542   7.407  24.440  18.117 -0.0671 -0.0846 -0.4236
  462POPC   C3B 5543   7.431  24.283  17.667  0.3932 -0.1843 -0.0083
  462POPC   C4B 5544   7.826  24.170  17.458 -0.4756 -0.3287 -0.0335
  463POPC   NC3 5545  17.602  25.165  19.576  0.3788  0.1292 -0.0596
  463POPC   PO4 5546  17.327  25.417  19.757 -0.0234  0.1521 -0.0594
  463POPC   GL1 5547  17.055  25.730  19.653 -0.3154  0.2663  0.3018
  463POPC   GL2 5548  17.234  25.772  19.410 -0.0573 -0.3320 -0.1623
  463POPC   C1A 5549  16.949  26.190  19.529  0.0793  0.0300 -0.1381
  463POPC   D2A 5550  16.678  26.556  19.360  0.0638  0.0300  0.0865
  463POPC   C3A 5551  16.514  26.568  18.920  0.1375 -0.1429 -0.0228
  463POPC   C4A 5552  16.393  26.391  18.485 -0.1183  0.0595 -0.1991
  463POPC   C1B 5553  17.370  26.016  19.049 -0.0068  0.1771  0.1658
  463POPC   C2B 5554  17.403  26.168  18.598 -0.2943  0.3965  0.5088
  463POPC   C3B 5555  17.365  26.297  18.119 -0.0904  0.0442  0.3903
  463POPC   C4B 5556  17.152  26.514  17.775 -0.2394 -0.1578 -0.0834
  464POPC   NC3 5557  17.553  25.858  19.788 -0.0798 -0.4816  0.3309
  464POPC   PO4 5558  17.815  25.589  19.581  0.1653  0.2105  0.1055
  464POPC   GL1 5559  17.671  25.768  19.248 -0.1732 -0.0359 -0.0812
  464POPC   GL2 5560  17.485  25.483  19.123  0.1692  0.2470 -0.4174
  464POPC   C1A 5561  17.755  25.717  18.798 -0.1217  0.0496  0.1272
  464POPC   D2A 5562  17.980  25.942  18.487 -0.0697 -0.2651  0.0460
  464POPC   C3A 5563  18.062  25.693  18.123 -0.0537  0.1863 -0.2826
  464POPC   C4A 5564  17.844  25.550  17.718 -0.2691  0.1007 -0.0984
  464POPC   C1B 5565  17.270  25.581  18.726  0.2083 -0.0128 -0.2729
  464POPC   C2B 5566  17.167  25.716  18.322  0.0254 -0.0030 -0.0293
  464POPC   C3B 5567  17.060  25.920  17.967  0.1020  0.1971  0.2799
  464POPC   C4B 5568  16.977  25.713  17.533 -0.0700  0.3993  0.0842
  465POPC   NC3 5569   7.732  17.191  19.163  0.1789  0.3530 -0.1987
  465POPC   PO4 5570   7.437  17.451  19.018  0.0821  0.2563  0.0853
  465POPC   GL1 5571   7.760  17.567  18.763  0.0815 -0.3262  0.1137
  465POPC   GL2 5572   7.580  17.695  18.578 -0.2882  0.2925  0.0442
  465POPC   C1A 5573   7.917  17.357  18.392  0.1305 -0.2082  0.0308
  465POPC   D2A 5574   8.093  16.954  18.180  0.2495  0.0588  0.0302
  465POPC   C3A 5575   8.131  16.532  18.397  0.0870  0.2098 -0.1513
  465POPC   C4A 5576   8.209  16.173  18.661 -0.1927 -0.1787  0.4062
  465POPC   C1B 5577   7.260  17.836  18.313 -0.2150 -0.1857  0.0851
  465POPC   C2B 5578   6.981  17.542  18.135  0.0172  0.4058 -0.0557
  465POPC   C3B 5579   6.948  17.195  17.849  0.1353 -0.0080 -0.0139
  465POPC   C4B 5580   7.298  16.923  17.708  0.2689 -0.2031 -0.1197
  466POPC   NC3 5581  15.334  12.766  19.549 -0.1294 -0.0657 -0.1329
  466POPC   PO4 5582  15.021  12.974  19.447 -0.0982 -0.1964  0.2188
  466POPC   GL1 5583  14.814  13.052  19.109  0.1497  0.1158 -0.2382
  466POPC   GL2 5584  14.584  13.125  19.035  0.0887  0.0875 -0.4440
  466POPC   C1A 5585  15.010  13.134  18.683  0.1167 -0.4545 -0.2917
  466POPC   D2A 5586  15.419  13.243  18.436  0.1675  0.0878 -0.0163
  466POPC   C3A 5587  15.505  13.247  17.987  0.2094  0.1045 -0.0375
  466POPC   C4A 5588  15.359  13.073  17.611 -0.5505  0.0488  0.3427
  466POPC   C1B 5589  14.472  13.162  18.583 -0.0107 -0.0053 -0.0298
  466POPC   C2B 5590  14.366  13.066  18.093 -0.0316 -0.1717 -0.1897
  466POPC   C3B 5591  14.157  13.030  17.609  0.0792  0.0630  0.0951
  466POPC   C4B 5592  13.756  12.990  17.363  0.1748  0.0883  0.2152
  467POPC   NC3 5593   8.871  30.853  19.498  0.2677  0.1478  0.0238
  467POPC   PO4 5594   8.670  31.168  19.626  0.3471 -0.0958 -0.0806
  467POPC   GL1 5595   8.684  31.335  19.285  0.1235 -0.2590 -0.0536
  467POPC   GL2 5596   8.972  31.317  19.254 -0.1115  0.1602  0.0470
  467POPC   C1A 5597   8.651  31.582  18.890  0.3696 -0.0454 -0.0550
  467POPC   D2A 5598   8.464  31.824  18.513 -0.1135 -0.0841  0.0592
  467POPC   C3A 5599   8.824  31.840  18.162  0.2336  0.2826 -0.2664
  467POPC   C4A 5600   8.969  31.548  17.825  0.1916  0.2848  0.0834
  467POPC   C1B 5601   8.904  31.130  18.802 -0.2778  0.0089 -0.0980
  467POPC   C2B 5602   9.030  31.000  18.336 -0.3577 -0.0430  0.2402
  467POPC   C3B 5603   9.154  30.992  17.901 -0.3571 -0.0407  0.1079
  467POPC   C4B 5604   9.175  30.902  17.483 -0.0752  0.0185 -0.2133
  468POPC   NC3 5605  12.106   1.711  18.983 -0.0097  0.1051  0.3266
  468POPC   PO4 5606  11.898   2.051  19.024 -0.1812 -0.2356  0.2438
  468POPC   GL1 5607  11.730   1.922  18.750 -0.0498 -0.1226  0.1277
  468POPC   GL2 5608  11.729   2.177  18.569  0.4177 -0.1713 -0.0730
  468POPC   C1A 5609  11.669   1.433  18.634  0.2171 -0.1116 -0.2373
  468POPC   D2A 5610  11.595   1.125  18.291 -0.0458  0.1435  0.0558
  468POPC   C3A 5611  11.302   1.130  17.947  0.1993  0.1047 -0.0270
  468POPC   C4A 5612  11.108   1.023  17.573 -0.1487 -0.1373  0.4125
  468POPC   C1B 5613  11.618   2.271  18.113  0.0464  0.0605 -0.1695
  468POPC   C2B 5614  11.697   2.094  17.717 -0.0709 -0.0192 -0.0888
  468POPC   C3B 5615  11.558   2.023  17.256  0.0209  0.1693  0.1761
  468POPC   C4B 5616  11.574   1.897  16.873 -0.0283  0.2196  0.5151
  469POPC   NC3 5617  19.783  10.587  18.946  0.0885  0.0311 -0.3243
  469POPC   PO4 5618  19.979  10.626  19.268 -0.0383 -0.3437 -0.0329
  469POPC   GL1 5619  20.209  10.674  18.921  0.2876  0.1884  0.1426
  469POPC   GL2 5620  20.328  10.975  18.942 -0.0531 -0.0952  0.1304
  469POPC   C1A 5621  20.141  10.789  18.474  0.4910 -0.0863  0.2212
  469POPC   D2A 5622  19.802  10.546  18.171 -0.4076  0.0635 -0.1393
  469POPC   C3A 5623  19.718  10.572  17.766 -0.0814  0.1273  0.0575
  469POPC   C4A 5624  19.726  10.385  17.371  0.1621  0.0352 -0.0560
  469POPC   C1B 5625  20.506  11.325  18.667 -0.0751  0.0857  0.3248
  469POPC   C2B 5626  20.668  11.494  18.228  0.0742 -0.2561  0.1212
  469POPC   C3B 5627  20.875  11.451  17.750  0.1864 -0.1705 -0.4077
  469POPC   C4B 5628  21.293  11.438  17.577 -0.2829  0.0042 -0.0648
  470POPC   NC3 5629  22.090   4.173  19.477 -0.2414 -0.0900 -0.1189
  470POPC   PO4 5630  21.818   4.219  19.192  0.3188 -0.0575 -0.0489
  470POPC   GL1 5631  21.833   4.285  18.842  0.1572 -0.0977  0.2093
  470POPC   GL2 5632  21.899   4.022  18.720 -0.3067 -0.1913 -0.2670
  470POPC   C1A 5633  21.539   4.273  18.466  0.0975  0.0658  0.0836
  470POPC   D2A 5634  21.471   4.260  18.013  0.1331  0.1969  0.1771
  470POPC   C3A 5635  21.200   4.204  17.645  0.0535 -0.2141 -0.1111
  470POPC   C4A 5636  21.210   4.245  17.135 -0.2213  0.0727 -0.1051
  470POPC   C1B 5637  21.821   3.889  18.264  0.1801 -0.1626  0.0546
  470POPC   C2B 5638  21.843   3.564  17.947  0.0375 -0.0762 -0.0080
  470POPC   C3B 5639  22.119   3.181  17.978  0.2702 -0.1381 -0.1905
  470POPC   C4B 5640  22.373   2.964  17.602  0.0481  0.3791  0.0449
  471POPC   NC3 5641  13.402  19.330  18.979 -0.1782  0.1195 -0.1474
  471POPC   PO4 5642  13.281  19.676  19.021 -0.0410  0.2639 -0.1825
  471POPC   GL1 5643  13.264  19.579  18.584 -0.3417 -0.2805  0.4315
  471POPC   GL2 5644  13.108  19.663  18.417  0.1194 -0.0415  0.1392
  471POPC   C1A 5645  13.572  19.770  18.290 -0.0274 -0.0223  0.1990
  471POPC   D2A 5646  13.605  19.757  17.819  0.2770 -0.1956 -0.1114
  471POPC   C3A 5647  13.268  19.570  17.555  0.2339  0.1185 -0.0036
  471POPC   C4A 5648  12.998  19.269  17.302  0.0082 -0.1548  0.2813
  471POPC   C1B 5649  13.125  19.740  17.989  0.0919  0.3122 -0.0139
  471POPC   C2B 5650  12.818  19.709  17.638 -0.1338 -0.0054 -0.0353
  471POPC   C3B 5651  12.554  19.405  17.408 -0.3659 -0.1506  0.0613
  471POPC   C4B 5652  12.372  19.120  17.062  0.1551  0.0460  0.2322
  472POPC   NC3 5653   9.600   5.489  19.193  0.1049  0.0271  0.0071
  472POPC   PO4 5654   9.455   5.144  19.068 -0.0598 -0.1016  0.1165
  472POPC   GL1 5655   9.277   5.388  18.740 -0.1368 -0.5572 -0.0068
  472POPC   GL2 5656   9.098   5.159  18.729 -0.0258  0.1198  0.2948
  472POPC   C1A 5657   9.019   5.726  18.558  0.1452  0.2841 -0.1675
  472POPC   D2A 5658   8.848   5.855  18.125  0.1195  0.3078  0.2955
  472POPC   C3A 5659   8.797   5.525  17.840  0.2266  0.2648 -0.1843
  472POPC   C4A 5660   8.503   5.294  17.556 -0.1569  0.2523  0.2791
  472POPC   C1B 5661   9.339   4.959  18.429 -0.0172  0.1858  0.0777
  472POPC   C2B 5662   9.325   4.778  17.992 -0.0175 -0.0330  0.0745
  472POPC   C3B 5663   8.979   4.556  17.719  0.0229  0.1429 -0.1305
  472POPC   C4B 5664   8.814   4.181  17.553 -0.0332 -0.0021  0.1006
  473POPC   NC3 5665  26.180  13.054  19.057 -0.1475 -0.0286 -0.0569
  473POPC   PO4 5666  25.795  13.098  19.176  0.1285 -0.2396  0.2610
  473POPC   GL1 5667  25.832  13.078  18.723 -0.1012 -0.0566  0.2170
  473POPC   GL2 5668  25.867  13.318  18.663 -0.1599 -0.1408 -0.1304
  473POPC   C1A 5669  25.936  13.125  18.255  0.2894 -0.2917  0.2303
  473POPC   D2A 5670  25.897  13.340  17.849  0.3310  0.1390 -0.1293
  473POPC   C3A 5671  26.274  13.282  17.560 -0.0244  0.1156 -0.0228
  473POPC   C4A 5672  26.324  13.257  17.093 -0.1938  0.1696 -0.1138
  473POPC   C1B 5673  25.507  13.497  18.388  0.1369 -0.1875  0.4003
  473POPC   C2B 5674  25.321  13.566  17.950 -0.0060  0.0663 -0.0330
  473POPC   C3B 5675  25.366  13.534  17.519 -0.0479 -0.3472  0.0805
  473POPC   C4B 5676  25.495  13.588  17.038  0.0739  0.1291  0.1452
  474POPC   NC3 5677  28.787  14.816  18.867 -0.0114 -0.0602 -0.3488
  474POPC   PO4 5678  28.686  15.180  18.996  0.2022  0.0656 -0.2287
  474POPC   GL1 5679  28.618  15.240  18.671 -0.0196  0.0267 -0.4567
  474POPC   GL2 5680  28.419  15.305  18.532 -0.2937  0.2055  0.2394
  474POPC   C1A 5681  28.829  15.030  18.310  0.2318  0.1542 -0.1046
  474POPC   D2A 5682  29.091  14.821  18.015 -0.1449 -0.0874 -0.1587
  474POPC   C3A 5683  29.379  14.899  17.690  0.2123  0.1904 -0.2103
  474POPC   C4A 5684  29.571  15.013  17.263  0.0886  0.4712  0.1131
  474POPC   C1B 5685  28.508  15.446  18.101 -0.2516  0.1615 -0.1991
  474POPC   C2B 5686  28.756  15.143  17.839  0.1878  0.2442  0.2477
  474POPC   C3B 5687  28.907  14.974  17.427 -0.2523  0.0789 -0.0276
  474POPC   C4B 5688  29.157  14.664  17.137 -0.0333 -0.3414 -0.0871
  475POPC   NC3 5689  11.862  25.275  19.153 -0.1580 -0.1198  0.0554
  475POPC   PO4 5690  11.480  25.156  19.153  0.0892 -0.0348  0.0516
  475POPC   GL1 5691  11.385  25.427  18.807 -0.2981 -0.0632  0.0019
  475POPC   GL2 5692  11.630  25.348  18.671  0.0597  0.0290 -0.0381
  475POPC   C1A 5693  11.252  25.577  18.367 -0.1917  0.0143 -0.0832
  475POPC   D2A 5694  11.329  25.792  17.967 -0.1203 -0.0963 -0.2543
  475POPC   C3A 5695  11.527  25.641  17.561  0.3584 -0.2393 -0.0807
  475POPC   C4A 5696  11.554  25.290  17.360  0.1102  0.1964  0.4485
  475POPC   C1B 5697  11.911  25.379  18.272  0.1049  0.2172  0.0114
  475POPC   C2B 5698  11.803  25.374  17.800 -0.0707  0.1724  0.2049
  475POPC   C3B 5699  12.002  25.630  17.456  0.1942 -0.0264 -0.1713
  475POPC   C4B 5700  12.304  25.958  17.278  0.0743  0.4207  0.0203
  476POPC   NC3 5701   7.835  12.378  19.379 -0.1063 -0.3374  0.0247
  476POPC   PO4 5702   7.653  12.136  19.130  0.2393  0.3405  0.1062
  476POPC   GL1 5703   7.626  12.263  18.662 -0.1088 -0.0556 -0.2816
  476POPC   GL2 5704   7.320  12.281  18.578 -0.0967 -0.1476  0.1854
  476POPC   C1A 5705   7.934  12.341  18.332  0.0138 -0.0605 -0.1664
  476POPC   D2A 5706   7.929  12.346  17.848  0.0735 -0.1541 -0.0611
  476POPC   C3A 5707   8.171  12.439  17.533  0.2829  0.2438 -0.1201
  476POPC   C4A 5708   8.561  12.658  17.351 -0.1960 -0.4257 -0.3459
  476POPC   C1B 5709   7.382  12.196  18.188  0.0570  0.2250 -0.1846
  476POPC   C2B 5710   7.330  12.192  17.750  0.1169  0.1290 -0.0916
  476POPC   C3B 5711   7.601  11.927  17.517  0.1346 -0.1367  0.0945
  476POPC   C4B 5712   7.675  11.661  17.139 -0.3305 -0.3091  0.0678
  477POPC   NC3 5713  19.750  22.617  18.857 -0.3674 -0.0975  0.0384
  477POPC   PO4 5714  19.661  22.789  19.190 -0.1973 -0.2832 -0.0364
  477POPC   GL1 5715  19.456  23.055  18.962  0.2787  0.1390  0.1169
  477POPC   GL2 5716  19.237  22.941  18.813  0.1090 -0.1248  0.0954
  477POPC   C1A 5717  19.437  23.314  18.547 -0.1487  0.3313 -0.0905
  477POPC   D2A 5718  19.514  23.697  18.298  0.1191 -0.0295 -0.0805
  477POPC   C3A 5719  19.676  23.860  17.882  0.0600  0.0545 -0.1535
  477POPC   C4A 5720  19.718  23.809  17.402  0.0507 -0.1220  0.1237
  477POPC   C1B 5721  19.262  22.885  18.411  0.1227  0.0218 -0.2161
  477POPC   C2B 5722  19.362  23.190  18.037 -0.0501  0.0432  0.1741
  477POPC   C3B 5723  19.438  23.421  17.641  0.2345  0.0117 -0.3097
  477POPC   C4B 5724  19.276  23.589  17.242  0.0025 -0.1685 -0.3988
  478POPC   NC3 5725   4.685   8.243  18.961 -0.0550  0.0867  0.0124
  478POPC   PO4 5726   4.311   8.183  19.064 -0.0507  0.3668  0.0262
  478POPC   GL1 5727   4.245   8.052  18.723 -0.1254 -0.1589 -0.2847
  478POPC   GL2 5728   4.375   7.805  18.744 -0.0726 -0.1707  0.1906
  478POPC   C1A 5729   3.987   7.969  18.336  0.0330 -0.0838 -0.0520
  478POPC   D2A 5730   3.844   7.746  17.991  0.2324 -0.2159  0.4105
  478POPC   C3A 5731   4.024   7.779  17.568  0.0897  0.2599 -0.2530
  478POPC   C4A 5732   3.930   7.846  17.116  0.0709  0.2711 -0.3484
  478POPC   C1B 5733   4.506   7.480  18.473 -0.1330 -0.4467 -0.0919
  478POPC   C2B 5734   4.626   7.164  18.183 -0.0931 -0.0027 -0.0456
  478POPC   C3B 5735   4.646   6.846  17.790 -0.0816 -0.3301  0.0130
  478POPC   C4B 5736   4.653   6.611  17.399 -0.2065  0.0121  0.1055
  479POPC   NC3 5737  24.443   0.114  19.108 -0.0782  0.1376 -0.0778
  479POPC   PO4 5738  24.488  -0.246  19.294  0.2570  0.1310 -0.1640
  479POPC   GL1 5739  24.629  -0.459  18.938 -0.1416 -0.0979 -0.3641
  479POPC   GL2 5740  24.551  -0.287  18.780 -0.1473 -0.0738 -0.0233
  479POPC   C1A 5741  24.882  -0.680  18.576 -0.0610 -0.2009  0.2321
  479POPC   D2A 5742  24.956  -0.951  18.160 -0.1743  0.1716 -0.0037
  479POPC   C3A 5743  24.983  -1.419  18.108  0.0197 -0.0664 -0.0427
  479POPC   C4A 5744  25.186  -1.715  18.386  0.0473 -0.5075  0.1229
  479POPC   C1B 5745  24.580  -0.405  18.325 -0.0821 -0.2190 -0.1265
  479POPC   C2B 5746  24.640  -0.189  17.963 -0.1725 -0.3402 -0.0544
  479POPC   C3B 5747  24.390  -0.054  17.566 -0.1553 -0.2248 -0.1769
  479POPC   C4B 5748  24.018   0.014  17.375 -0.0423  0.4943  0.2723
  480POPC   NC3 5749  10.660   2.197  19.428  0.1709 -0.1591 -0.3544
  480POPC   PO4 5750  10.987   2.319  19.256 -0.0724  0.0177  0.1227
  480POPC   GL1 5751  10.879   2.522  18.945  0.0657  0.1116  0.2172
  480POPC   GL2 5752  10.546   2.400  18.967  0.3104  0.2789  0.2118
  480POPC   C1A 5753  10.851   2.419  18.529  0.1094  0.2649  0.1356
  480POPC   D2A 5754  10.734   2.275  18.174 -0.0563 -0.0728 -0.2058
  480POPC   C3A 5755  10.637   2.431  17.762  0.1399 -0.0235 -0.0369
  480POPC   C4A 5756  10.194   2.333  17.526  0.0291  0.0535 -0.2108
  480POPC   C1B 5757  10.362   2.404  18.472 -0.0942 -0.2033 -0.0035
  480POPC   C2B 5758  10.241   2.312  18.056  0.0379  0.0527 -0.0539
  480POPC   C3B 5759  10.214   1.877  17.886 -0.0850 -0.1736  0.2161
  480POPC   C4B 5760  10.107   1.636  18.308 -0.0278  0.1455  0.1858
  481POPC   NC3 5761   4.360  25.763  19.287  0.0235 -0.2505 -0.1060
  481POPC   PO4 5762   4.054  25.891  19.500 -0.1843 -0.0586  0.3574
  481POPC   GL1 5763   3.997  25.845  19.057  0.1588  0.0557  0.1794
  481POPC   GL2 5764   3.903  25.591  19.093 -0.0318 -0.0999  0.1759
  481POPC   C1A 5765   4.309  25.762  18.728  0.0630  0.0054 -0.0815
  481POPC   D2A 5766   4.427  25.657  18.330 -0.1818  0.4739 -0.1077
  481POPC   C3A 5767   4.604  25.236  18.138 -0.1071 -0.0859  0.0029
  481POPC   C4A 5768   4.644  24.742  18.129  0.0873 -0.1015  0.0135
  481POPC   C1B 5769   3.740  25.653  18.675 -0.0829 -0.1898 -0.3698
  481POPC   C2B 5770   3.827  25.893  18.324 -0.0510 -0.0619  0.3663
  481POPC   C3B 5771   4.098  25.951  17.949 -0.1109  0.0239 -0.0653
  481POPC   C4B 5772   4.246  26.017  17.549  0.1798 -0.1647  0.0245
  482POPC   NC3 5773  24.495  20.500  18.902 -0.0120  0.0153  0.0961
  482POPC   PO4 5774  24.151  20.523  19.049 -0.3593  0.4162 -0.2164
  482POPC   GL1 5775  24.096  20.460  18.642  0.0706 -0.1461  0.0002
  482POPC   GL2 5776  24.261  20.231  18.555 -0.0994  0.0457 -0.0487
  482POPC   C1A 5777  23.933  20.325  18.226 -0.1143  0.0699 -0.0739
  482POPC   D2A 5778  23.879  20.236  17.779  0.0341  0.1177 -0.0281
  482POPC   C3A 5779  23.956  19.796  17.698 -0.2066 -0.3531  0.0892
  482POPC   C4A 5780  24.042  19.396  17.788  0.1121  0.0257 -0.1193
  482POPC   C1B 5781  24.309  19.947  18.172  0.0091  0.1102 -0.2241
  482POPC   C2B 5782  24.542  19.629  17.946 -0.1535 -0.3551 -0.0029
  482POPC   C3B 5783  24.560  19.196  17.740  0.2163  0.0384  0.0394
  482POPC   C4B 5784  24.886  18.932  17.722 -0.2162 -0.1652  0.2544
  483POPC   NC3 5785   4.583  12.866  19.548  0.1971  0.0514  0.1914
  483POPC   PO4 5786   4.623  12.476  19.476 -0.0110  0.1984 -0.1218
  483POPC   GL1 5787   4.255  12.607  19.266 -0.1335 -0.0777  0.1253
  483POPC   GL2 5788   4.481  12.753  19.059  0.1974 -0.1071  0.2010
  483POPC   C1A 5789   4.021  12.471  18.884  0.0516  0.1084  0.2003
  483POPC   D2A 5790   4.085  12.333  18.421 -0.0762 -0.0847  0.2247
  483POPC   C3A 5791   4.033  11.919  18.266  0.1064  0.2085 -0.1628
  483POPC   C4A 5792   4.226  11.536  18.049 -0.4080  0.0727  0.2275
  483POPC   C1B 5793   4.759  12.825  18.644  0.0728 -0.1571 -0.1521
  483POPC   C2B 5794   4.907  13.204  18.470  0.0118 -0.0916  0.1335
  483POPC   C3B 5795   4.876  13.168  18.000  0.2135  0.1612 -0.0934
  483POPC   C4B 5796   4.874  13.441  17.617  0.2400 -0.1677  0.0970
  484POPC   NC3 5797  31.582  24.679  19.138 -0.1735  0.0625 -0.1222
  484POPC   PO4 5798  31.929  24.550  19.161  0.2442  0.1309 -0.0094
  484POPC   GL1 5799  31.900  24.382  18.814 -0.2055  0.2047 -0.2759
  484POPC   GL2 5800  32.012  24.623  18.662 -0.1493  0.0275 -0.1926
  484POPC   C1A 5801  32.157  24.072  18.611 -0.1220 -0.0131  0.0493
  484POPC   D2A 5802  32.262  24.067  18.115  0.3185  0.0878  0.0372
  484POPC   C3A 5803  32.565  23.848  17.880 -0.0610 -0.1868  0.1018
  484POPC   C4A 5804  32.797  23.654  17.532  0.1122  0.0122  0.3507
  484POPC   C1B 5805  32.038  24.848  18.295  0.2059 -0.0918  0.1948
  484POPC   C2B 5806  31.861  25.024  17.876 -0.2890  0.2077  0.1285
  484POPC   C3B 5807  31.809  25.192  17.462 -0.2463  0.0940  0.2021
  484POPC   C4B 5808  31.931  25.140  17.003  0.2332  0.2024 -0.0951
  485POPC   NC3 5809   5.531  29.604  19.247 -0.1709  0.0806 -0.1496
  485POPC   PO4 5810   5.518  29.236  19.415  0.0308 -0.0299  0.0653
  485POPC   GL1 5811   5.634  29.068  19.079  0.1854  0.2659 -0.4353
  485POPC   GL2 5812   5.533  29.175  18.891  0.0726  0.0912 -0.0974
  485POPC   C1A 5813   5.894  28.964  18.663  0.0259 -0.0572  0.5477
  485POPC   D2A 5814   6.054  29.065  18.193  0.1178  0.0837  0.1663
  485POPC   C3A 5815   5.921  28.756  17.805  0.1384 -0.2754 -0.0425
  485POPC   C4A 5816   5.847  28.603  17.416 -0.3138 -0.3249  0.0951
  485POPC   C1B 5817   5.463  29.670  18.725  0.0492 -0.2238 -0.1132
  485POPC   C2B 5818   5.457  29.728  18.255  0.2103 -0.3304 -0.2249
  485POPC   C3B 5819   5.197  29.472  17.976 -0.2215 -0.2684 -0.0584
  485POPC   C4B 5820   5.227  29.472  17.587 -0.5179  0.0155  0.1702
  486POPC   NC3 5821   3.991  11.830  19.633 -0.2327  0.1781  0.0060
  486POPC   PO4 5822   3.696  11.574  19.462  0.1537  0.2546  0.0873
  486POPC   GL1 5823   3.677  11.701  19.031  0.3207  0.0454 -0.1604
  486POPC   GL2 5824   3.570  11.955  18.992 -0.1219 -0.2582  0.3200
  486POPC   C1A 5825   3.564  11.636  18.552  0.1071 -0.1399  0.0547
  486POPC   D2A 5826   3.199  11.567  18.222 -0.2803 -0.3325  0.1052
  486POPC   C3A 5827   2.873  11.299  18.173  0.2228 -0.0059  0.2681
  486POPC   C4A 5828   2.408  11.346  18.189 -0.0473 -0.0930  0.0442
  486POPC   C1B 5829   3.218  12.051  18.688  0.1819 -0.2267  0.0529
  486POPC   C2B 5830   3.041  12.043  18.282  0.1642  0.0785  0.0067
  486POPC   C3B 5831   2.994  12.039  17.857 -0.4406  0.1028  0.0694
  486POPC   C4B 5832   2.732  12.124  17.472 -0.0172 -0.1357  0.1269
  487POPC   NC3 5833   5.110  23.338  19.294  0.2079  0.3311 -0.2230
  487POPC   PO4 5834   4.744  23.199  19.292 -0.0769 -0.0319 -0.1085
  487POPC   GL1 5835   4.624  23.345  18.936 -0.2779 -0.3966  0.1298
  487POPC   GL2 5836   4.883  23.494  18.812 -0.1838  0.1048  0.2108
  487POPC   C1A 5837   4.274  23.332  18.631  0.1422  0.1531 -0.0665
  487POPC   D2A 5838   4.179  23.490  18.188 -0.0254  0.0184  0.5494
  487POPC   C3A 5839   3.885  23.535  17.807  0.1147 -0.0782  0.0664
  487POPC   C4A 5840   3.585  23.644  17.517  0.2610  0.0076  0.0874
  487POPC   C1B 5841   4.748  23.191  18.480 -0.3772 -0.0157 -0.0111
  487POPC   C2B 5842   4.635  23.222  18.046  0.0199  0.1768  0.1484
  487POPC   C3B 5843   4.438  23.452  17.660  0.4254  0.0489 -0.0044
  487POPC   C4B 5844   4.072  23.524  17.332 -0.1873  0.1345 -0.0870
  488POPC   NC3 5845  17.845  18.054  19.321 -0.0062 -0.2006  0.0375
  488POPC   PO4 5846  17.851  17.664  19.195  0.1496  0.1551  0.0606
  488POPC   GL1 5847  17.531  17.483  18.980 -0.0666  0.1678 -0.1230
  488POPC   GL2 5848  17.622  17.178  18.980  0.0348 -0.0151  0.0523
  488POPC   C1A 5849  17.407  17.360  18.545  0.1699 -0.2139  0.0601
  488POPC   D2A 5850  17.288  17.035  18.214 -0.1027  0.2801  0.1104
  488POPC   C3A 5851  17.324  17.023  17.741 -0.2373 -0.1910  0.4610
  488POPC   C4A 5852  17.403  16.940  17.288  0.3063  0.0761 -0.1232
  488POPC   C1B 5853  17.707  16.984  18.562  0.0819  0.0226  0.0179
  488POPC   C2B 5854  17.865  16.702  18.237  0.0689 -0.1651 -0.2178
  488POPC   C3B 5855  18.187  16.529  18.008 -0.0175 -0.0240  0.2864
  488POPC   C4B 5856  18.564  16.453  17.750  0.2674  0.0850 -0.0474
  489POPC   NC3 5857  14.750  11.125  19.436  0.2228 -0.0680  0.2670
  489POPC   PO4 5858  14.802  11.539  19.497  0.0544 -0.0778  0.3659
  489POPC   GL1 5859  14.844  11.554  19.119  0.0998  0.2074 -0.1525
  489POPC   GL2 5860  14.625  11.704  19.036  0.2180  0.2114  0.0808
  489POPC   C1A 5861  14.870  11.414  18.667  0.0391 -0.0822 -0.2757
  489POPC   D2A 5862  15.153  11.335  18.249  0.0549 -0.0810 -0.2114
  489POPC   C3A 5863  15.098  11.364  17.795 -0.0043  0.3066  0.2358
  489POPC   C4A 5864  14.857  11.515  17.431 -0.2885  0.0611 -0.0139
  489POPC   C1B 5865  14.478  11.794  18.631 -0.1921 -0.0727 -0.1276
  489POPC   C2B 5866  14.495  11.994  18.211  0.1501  0.0136  0.1205
  489POPC   C3B 5867  14.667  12.270  17.875  0.1135  0.0647 -0.1527
  489POPC   C4B 5868  14.654  12.524  17.460  0.1347  0.3630  0.0546
  490POPC   NC3 5869  31.694  23.986  18.757  0.0750 -0.1597 -0.2630
  490POPC   PO4 5870  31.427  23.673  18.803 -0.1593  0.0891  0.1714
  490POPC   GL1 5871  31.687  23.459  18.578  0.1154  0.1919 -0.1339
  490POPC   GL2 5872  31.943  23.519  18.652  0.0353  0.2052  0.0979
  490POPC   C1A 5873  31.579  23.253  18.149  0.1761 -0.0844  0.1718
  490POPC   D2A 5874  31.652  22.983  17.799  0.0817 -0.2318  0.1907
  490POPC   C3A 5875  31.576  23.123  17.384 -0.2756  0.0792 -0.1465
  490POPC   C4A 5876  31.325  23.208  17.000  0.0629 -0.0380  0.1429
  490POPC   C1B 5877  31.813  23.757  18.252 -0.1746 -0.2290 -0.1041
  490POPC   C2B 5878  31.779  23.928  17.858 -0.5100 -0.2685 -0.4201
  490POPC   C3B 5879  31.641  23.811  17.443  0.2450  0.0101  0.0884
  490POPC   C4B 5880  31.506  23.802  16.943 -0.0232 -0.5354 -0.3701
  491POPC   NC3 5881  11.602   3.148  19.478 -0.4004 -0.3283 -0.0754
  491POPC   PO4 5882  11.194   3.067  19.363  0.2964 -0.1419  0.1302
  491POPC   GL1 5883  11.130   3.175  18.984 -0.1215  0.0957 -0.2494
  491POPC   GL2 5884  10.966   2.979  18.906 -0.1359  0.4421 -0.0981
  491POPC   C1A 5885  11.111   3.421  18.619  0.0684  0.0939  0.2297
  491POPC   D2A 5886  11.134   3.784  18.329  0.1101  0.1885 -0.0852
  491POPC   C3A 5887  11.211   3.766  17.918  0.0530 -0.0682 -0.2481
  491POPC   C4A 5888  11.347   3.499  17.614 -0.0685 -0.2370 -0.0496
  491POPC   C1B 5889  10.937   2.880  18.400 -0.0112 -0.1682  0.1579
  491POPC   C2B 5890  10.901   2.826  17.974 -0.0139 -0.1180  0.2303
  491POPC   C3B 5891  10.874   2.926  17.501  0.1087 -0.1704 -0.3123
  491POPC   C4B 5892  11.041   3.321  17.288  0.1293 -0.2726  0.0164
  492POPC   NC3 5893  29.816  13.538  19.531  0.1182  0.1249 -0.4034
  492POPC   PO4 5894  29.795  13.162  19.661 -0.0725  0.0112  0.0472
  492POPC   GL1 5895  29.715  13.020  19.285 -0.3816  0.2003  0.0606
  492POPC   GL2 5896  29.832  13.267  19.146  0.2244 -0.2028 -0.1222
  492POPC   C1A 5897  29.858  12.909  18.861 -0.2876 -0.1094 -0.0610
  492POPC   D2A 5898  29.633  12.974  18.431  0.3785 -0.2894 -0.0144
  492POPC   C3A 5899  29.861  13.002  18.051  0.1463 -0.0754  0.2154
  492POPC   C4A 5900  29.785  13.088  17.605 -0.0076 -0.0915 -0.1583
  492POPC   C1B 5901  29.649  13.343  18.752 -0.1259  0.2209  0.1876
  492POPC   C2B 5902  29.594  13.444  18.280  0.0175  0.2931  0.1720
  492POPC   C3B 5903  29.797  13.566  17.929  0.1959 -0.1976  0.1735
  492POPC   C4B 5904  29.894  13.653  17.447  0.0877  0.3137  0.0104
  493POPC   NC3 5905  20.035   4.977  19.126 -0.0253  0.2202 -0.0307
  493POPC   PO4 5906  20.330   5.252  19.293  0.0919  0.3067  0.1095
  493POPC   GL1 5907  20.396   5.283  18.851  0.3848 -0.0906 -0.1339
  493POPC   GL2 5908  20.387   4.983  18.763 -0.0231  0.0545  0.1088
  493POPC   C1A 5909  20.785   5.257  18.592 -0.0731  0.1020  0.4074
  493POPC   D2A 5910  20.937   5.068  18.148  0.0558 -0.1224 -0.1259
  493POPC   C3A 5911  21.014   5.323  17.782 -0.0566 -0.0849  0.1080
  493POPC   C4A 5912  20.934   5.023  17.376  0.5099  0.1511  0.1266
  493POPC   C1B 5913  20.379   5.022  18.351 -0.1628  0.5984 -0.0107
  493POPC   C2B 5914  20.409   4.929  17.940  0.1882 -0.0120 -0.1847
  493POPC   C3B 5915  20.445   4.755  17.547  0.1054  0.0713  0.2980
  493POPC   C4B 5916  20.593   4.597  17.134  0.0760 -0.1410  0.0671
  494POPC   NC3 5917  16.765   6.323  19.845  0.3644  0.1586 -0.0855
  494POPC   PO4 5918  16.571   6.075  19.617  0.3912  0.2074 -0.1630
  494POPC   GL1 5919  16.673   5.962  19.262 -0.4080  0.2199 -0.3793
  494POPC   GL2 5920  16.971   5.982  19.140  0.0639  0.0246  0.0390
  494POPC   C1A 5921  16.712   6.280  18.829 -0.0964 -0.2424 -0.1012
  494POPC   D2A 5922  16.667   6.132  18.335  0.0040 -0.0783 -0.1057
  494POPC   C3A 5923  16.707   5.929  17.939  0.1228  0.1646  0.0556
  494POPC   C4A 5924  16.807   5.704  17.499 -0.0476  0.0361 -0.1016
  494POPC   C1B 5925  16.760   5.787  18.746  0.2481 -0.0534 -0.2096
  494POPC   C2B 5926  16.909   5.561  18.285  0.1681  0.0817 -0.1660
  494POPC   C3B 5927  16.814   5.318  17.856  0.0698 -0.1965  0.2616
  494POPC   C4B 5928  16.843   4.902  17.571 -0.0973  0.1803 -0.1105
  495POPC   NC3 5929  29.068   5.728  19.344 -0.0035 -0.5816  0.0415
  495POPC   PO4 5930  28.939   5.362  19.190 -0.1685 -0.2983  0.0334
  495POPC   GL1 5931  29.093   5.496  18.824  0.1732 -0.2388 -0.3535
  495POPC   GL2 5932  28.959   5.519  18.603  0.2803 -0.0260  0.1643
  495POPC   C1A 5933  29.445   5.579  18.503  0.0025 -0.2447  0.1574
  495POPC   D2A 5934  29.728   5.448  18.144 -0.1626  0.0613  0.1365
  495POPC   C3A 5935  29.618   5.298  17.739  0.0521 -0.2098 -0.1114
  495POPC   C4A 5936  29.349   5.154  17.372 -0.2700 -0.0794  0.2647
  495POPC   C1B 5937  29.072   5.507  18.168 -0.0865 -0.1436  0.4372
  495POPC   C2B 5938  29.024   5.238  17.848  0.1072 -0.0937 -0.2255
  495POPC   C3B 5939  28.931   4.909  17.523  0.0375 -0.0221  0.0209
  495POPC   C4B 5940  28.673   4.842  17.174  0.0092 -0.1569  0.2037
  496POPC   NC3 5941  10.489   6.202  19.326 -0.1996  0.1903  0.1475
  496POPC   PO4 5942  10.574   5.897  19.118  0.1893  0.0117 -0.1654
  496POPC   GL1 5943  10.415   5.949  18.777 -0.0272  0.1039 -0.1647
  496POPC   GL2 5944  10.099   5.871  18.727  0.1054  0.1251 -0.1854
  496POPC   C1A 5945  10.615   6.087  18.404 -0.0001 -0.0903 -0.0833
  496POPC   D2A 5946  10.895   5.851  18.131  0.0609 -0.1226 -0.4622
  496POPC   C3A 5947  10.671   5.718  17.730  0.0269  0.3490  0.0102
  496POPC   C4A 5948  10.423   5.599  17.419  0.3081  0.4143 -0.0428
  496POPC   C1B 5949  10.124   5.898  18.275  0.1229  0.0536 -0.1369
  496POPC   C2B 5950  10.286   5.993  17.875 -0.2741 -0.1031 -0.1548
  496POPC   C3B 5951  10.355   6.102  17.429  0.1585  0.0715 -0.0128
  496POPC   C4B 5952  10.618   6.386  17.224 -0.0267  0.1118 -0.1726
  497POPC   NC3 5953  18.768   4.591  19.402 -0.0180  0.2724  0.2760
  497POPC   PO4 5954  18.835   4.279  19.168 -0.2066  0.1339 -0.0559
  497POPC   GL1 5955  19.012   4.046  18.911  0.2420 -0.0005  0.0342
  497POPC   GL2 5956  19.046   4.232  18.744  0.2611 -0.0203  0.1003
  497POPC   C1A 5957  19.013   3.784  18.544  0.1262  0.1239 -0.2617
  497POPC   D2A 5958  18.984   3.840  18.076  0.1497 -0.0594 -0.0334
  497POPC   C3A 5959  18.977   3.600  17.707 -0.0284  0.0957 -0.0767
  497POPC   C4A 5960  19.034   3.659  17.233  0.3696  0.3043 -0.1430
  497POPC   C1B 5961  19.068   4.288  18.321  0.2393  0.0773 -0.2248
  497POPC   C2B 5962  18.811   4.285  17.933  0.2811  0.2020 -0.0688
  497POPC   C3B 5963  18.644   4.072  17.561  0.1498 -0.1261 -0.2361
  497POPC   C4B 5964  18.560   4.161  17.137 -0.0239 -0.0221 -0.5225
  498POPC   NC3 5965  30.292  20.928  19.005  0.1609  0.4667 -0.0095
  498POPC   PO4 5966  30.211  20.581  19.181 -0.0434 -0.0366  0.2599
  498POPC   GL1 5967  30.298  20.391  18.846 -0.1461 -0.2648 -0.0132
  498POPC   GL2 5968  30.134  20.582  18.678 -0.2267  0.3314 -0.0059
  498POPC   C1A 5969  30.186  20.134  18.471 -0.0442 -0.1892 -0.1006
  498POPC   D2A 5970  30.182  20.079  18.033 -0.2661 -0.2553 -0.3153
  498POPC   C3A 5971  30.244  20.279  17.648  0.2452 -0.1935  0.0435
  498POPC   C4A 5972  30.319  20.390  17.187 -0.4271  0.0865 -0.3126
  498POPC   C1B 5973  30.107  20.527  18.218 -0.0515 -0.4195  0.2305
  498POPC   C2B 5974  29.839  20.467  17.858  0.1953  0.3182  0.2344
  498POPC   C3B 5975  29.874  20.217  17.382  0.1060  0.0199  0.1303
  498POPC   C4B 5976  30.116  19.931  17.136  0.0808  0.0685  0.0223
  499POPC   NC3 5977  10.912   1.673  19.623  0.0399  0.0188 -0.0135
  499POPC   PO4 5978  11.109   2.023  19.647 -0.0391 -0.1767  0.0215
  499POPC   GL1 5979  11.205   1.928  19.265  0.0671 -0.3175  0.2060
  499POPC   GL2 5980  10.938   1.786  19.202 -0.1391  0.0702  0.3780
  499POPC   C1A 5981  11.287   1.756  18.819 -0.2229 -0.2006 -0.0782
  499POPC   D2A 5982  11.221   1.420  18.469  0.0974  0.0310  0.0129
  499POPC   C3A 5983  11.252   1.656  18.037  0.2628 -0.4548  0.1858
  499POPC   C4A 5984  11.354   1.559  17.533 -0.0841 -0.0867 -0.0622
  499POPC   C1B 5985  10.744   1.942  18.775 -0.1266 -0.2499 -0.1103
  499POPC   C2B 5986  10.608   1.783  18.365  0.3415  0.0420 -0.1877
  499POPC   C3B 5987  10.756   1.878  17.920  0.2569 -0.2299  0.1444
  499POPC   C4B 5988  11.035   1.969  17.565  0.4600 -0.1011 -0.0781
  500POPC   NC3 5989  21.148   3.109  19.210  0.1502 -0.0156 -0.0915
  500POPC   PO4 5990  20.754   3.097  19.268  0.2149 -0.2053  0.0988
  500POPC   GL1 5991  20.824   3.197  18.840 -0.0727  0.0333  0.0271
  500POPC   GL2 5992  21.126   3.120  18.676 -0.1645 -0.0593 -0.0764
  500POPC   C1A 5993  20.433   3.136  18.545 -0.1019 -0.3061  0.0039
  500POPC   D2A 5994  20.259   3.302  18.106 -0.2980 -0.3959  0.4009
  500POPC   C3A 5995  20.243   3.304  17.628 -0.1328  0.1417 -0.1181
  500POPC   C4A 5996  20.547   3.592  17.421  0.1819 -0.1466  0.2328
  500POPC   C1B 5997  20.882   3.101  18.328  0.0640 -0.0175 -0.2339
  500POPC   C2B 5998  20.583   2.961  18.071 -0.2685  0.1044  0.2012
  500POPC   C3B 5999  20.602   2.952  17.572 -0.0001  0.3497 -0.2521
  500POPC   C4B 6000  20.648   2.724  17.148  0.1437 -0.1193  0.0602
  501POPC   NC3 6001  19.134   2.933  19.447  0.3566 -0.3178  0.3206
  501POPC   PO4 6002  18.773   2.873  19.342 -0.0388  0.1578 -0.2381
  501POPC   GL1 6003  18.928   2.966  19.054 -0.0624  0.2475 -0.2894
  501POPC   GL2 6004  18.785   3.095  18.889 -0.0678 -0.0199  0.3442
  501POPC   C1A 6005  19.099   2.716  18.696 -0.2269  0.2309  0.2275
  501POPC   D2A 6006  19.070   2.850  18.245  0.1332 -0.0405 -0.1057
  501POPC   C3A 6007  18.971   2.616  17.822 -0.2569 -0.3764 -0.0331
  501POPC   C4A 6008  18.958   2.726  17.364 -0.0933 -0.0481 -0.3868
  501POPC   C1B 6009  18.856   3.300  18.493  0.2492 -0.2674 -0.5952
  501POPC   C2B 6010  19.234   3.406  18.237  0.3377 -0.1635 -0.0645
  501POPC   C3B 6011  19.425   3.375  17.817 -0.2296  0.1494  0.2740
  501POPC   C4B 6012  19.390   3.376  17.351 -0.0906 -0.0170  0.2312
  502POPC   NC3 6013  14.717  13.299  19.540 -0.2958  0.0032  0.0107
  502POPC   PO4 6014  14.559  12.983  19.690  0.0628 -0.1631  0.1565
  502POPC   GL1 6015  14.507  12.781  19.291  0.3420  0.3346 -0.1926
  502POPC   GL2 6016  14.658  12.617  19.215 -0.2050 -0.4120 -0.3059
  502POPC   C1A 6017  14.201  12.746  18.923 -0.1533  0.0280  0.0022
  502POPC   D2A 6018  13.835  12.620  18.704 -0.1895 -0.0804  0.1176
  502POPC   C3A 6019  13.794  12.623  18.255  0.0271 -0.1610 -0.3044
  502POPC   C4A 6020  13.780  12.721  17.800  0.1456  0.2279 -0.3021
  502POPC   C1B 6021  14.672  12.697  18.775  0.0846  0.1199  0.0028
  502POPC   C2B 6022  14.761  12.844  18.334 -0.1172  0.1713 -0.2448
  502POPC   C3B 6023  14.909  13.124  18.049 -0.4124 -0.1635  0.0648
  502POPC   C4B 6024  15.065  13.480  17.767 -0.2818 -0.3249  0.0722
  503POPC   NC3 6025   0.465  27.993  19.537 -0.1805  0.0729  0.0972
  503POPC   PO4 6026   0.257  28.313  19.609  0.3054 -0.0538 -0.0474
  503POPC   GL1 6027   0.191  28.290  19.193 -0.5749  0.4165  0.0817
  503POPC   GL2 6028   0.099  27.949  19.236 -0.0178 -0.0828 -0.0030
  503POPC   C1A 6029   0.021  28.615  18.823  0.0107  0.2170 -0.2027
  503POPC   D2A 6030  -0.286  28.596  18.496  0.2627  0.0382 -0.1512
  503POPC   C3A 6031  -0.074  28.686  18.119 -0.1419 -0.1520 -0.0372
  503POPC   C4A 6032   0.145  28.498  17.697  0.1404  0.1401  0.1159
  503POPC   C1B 6033   0.097  28.068  18.760  0.3584 -0.2495  0.0008
  503POPC   C2B 6034   0.041  28.180  18.343 -0.0338  0.3251 -0.2308
  503POPC   C3B 6035  -0.042  27.912  17.988 -0.2807 -0.2382  0.1636
  503POPC   C4B 6036  -0.151  27.500  17.795  0.0231  0.0402  0.1982
  504POPC   NC3 6037   4.764  16.460  19.370 -0.2791 -0.0009 -0.2511
  504POPC   PO4 6038   5.027  16.760  19.426 -0.1189 -0.2057  0.1053
  504POPC   GL1 6039   5.065  16.764  19.005 -0.2521  0.0731 -0.0898
  504POPC   GL2 6040   4.785  16.915  18.958 -0.1253 -0.3228 -0.2181
  504POPC   C1A 6041   5.220  16.833  18.570 -0.0652 -0.1190  0.1516
  504POPC   D2A 6042   5.346  16.861  18.099 -0.0189  0.1500  0.1190
  504POPC   C3A 6043   5.495  16.543  17.806  0.3545 -0.0557  0.0021
  504POPC   C4A 6044   5.402  16.115  17.619 -0.2110 -0.0942 -0.0939
  504POPC   C1B 6045   4.778  17.036  18.480 -0.0792 -0.3874  0.1919
  504POPC   C2B 6046   4.977  17.183  18.197 -0.0798 -0.0697  0.1921
  504POPC   C3B 6047   5.087  17.327  17.813 -0.1295  0.0059  0.0894
  504POPC   C4B 6048   4.906  17.412  17.417  0.1531  0.0323 -0.4119
  505POPC   NC3 6049  21.066   7.257  19.935  0.1140 -0.1728  0.2093
  505POPC   PO4 6050  21.281   7.305  19.596 -0.1102  0.2509  0.1081
  505POPC   GL1 6051  21.414   7.128  19.356 -0.2857 -0.0160  0.2152
  505POPC   GL2 6052  21.441   6.931  19.205  0.0839  0.2669 -0.0588
  505POPC   C1A 6053  21.419   7.354  18.963  0.1635 -0.0298  0.1903
  505POPC   D2A 6054  21.667   7.723  18.662 -0.0239 -0.0246 -0.1077
  505POPC   C3A 6055  21.893   7.644  18.289  0.2991 -0.1633 -0.0850
  505POPC   C4A 6056  22.096   7.472  17.872  0.0909  0.0726 -0.2060
  505POPC   C1B 6057  21.198   6.713  18.883  0.1696  0.0788  0.0644
  505POPC   C2B 6058  20.934   6.653  18.499  0.2223  0.2262  0.0185
  505POPC   C3B 6059  20.803   6.684  18.038  0.0546 -0.1134 -0.0162
  505POPC   C4B 6060  20.868   6.785  17.578  0.1896 -0.2558  0.0287
  506POPC   NC3 6061  15.059  26.817  19.518  0.1176 -0.1490  0.3012
  506POPC   PO4 6062  14.688  26.950  19.499 -0.0481 -0.1250  0.0523
  506POPC   GL1 6063  14.560  27.179  19.123  0.1187  0.2767 -0.0167
  506POPC   GL2 6064  14.837  27.123  19.044  0.1374  0.0532 -0.0081
  506POPC   C1A 6065  14.293  27.502  18.961 -0.0827  0.0508 -0.0123
  506POPC   D2A 6066  14.199  27.609  18.516 -0.2613  0.2221 -0.0878
  506POPC   C3A 6067  14.052  27.442  18.080 -0.1665  0.1030  0.1607
  506POPC   C4A 6068  14.080  27.405  17.613 -0.1615 -0.0099  0.1795
  506POPC   C1B 6069  14.753  27.571  18.945 -0.0204  0.2394  0.0375
  506POPC   C2B 6070  14.597  27.879  18.629 -0.3284 -0.2153 -0.1460
  506POPC   C3B 6071  14.478  28.006  18.256  0.1475 -0.0592  0.4349
  506POPC   C4B 6072  14.552  28.176  17.845  0.0698  0.0388  0.1750
  507POPC   NC3 6073  13.794  16.770  18.898  0.0325 -0.0966 -0.1481
  507POPC   PO4 6074  14.059  17.078  18.946 -0.0339  0.1700 -0.1023
  507POPC   GL1 6075  14.118  17.015  18.569  0.3545 -0.1401  0.2950
  507POPC   GL2 6076  14.335  17.085  18.455  0.0179 -0.4862  0.0475
  507POPC   C1A 6077  13.862  16.672  18.424  0.1819  0.1602 -0.0676
  507POPC   D2A 6078  13.529  16.340  18.230 -0.0176  0.0653 -0.1387
  507POPC   C3A 6079  13.560  16.067  17.893 -0.3457 -0.2082  0.0690
  507POPC   C4A 6080  13.505  15.934  17.418 -0.0760 -0.2246 -0.2424
  507POPC   C1B 6081  14.574  17.023  18.072  0.0471  0.3263 -0.1705
  507POPC   C2B 6082  14.923  17.120  17.753 -0.0006  0.0383 -0.3584
  507POPC   C3B 6083  15.120  17.241  17.348  0.2267  0.2893 -0.2655
  507POPC   C4B 6084  15.224  17.211  16.896  0.0844 -0.0853 -0.0793
  508POPC   NC3 6085  19.854  20.740  18.908  0.0327  0.1811 -0.1620
  508POPC   PO4 6086  19.999  20.367  18.953  0.2896 -0.0672  0.0761
  508POPC   GL1 6087  19.960  20.412  18.585 -0.2677  0.2494 -0.0696
  508POPC   GL2 6088  20.073  20.205  18.347 -0.2892  0.0060 -0.1546
  508POPC   C1A 6089  19.770  20.691  18.335 -0.2193 -0.1088 -0.2074
  508POPC   D2A 6090  19.870  20.995  18.077 -0.0077 -0.1857  0.0225
  508POPC   C3A 6091  19.680  21.316  17.846 -0.1920 -0.0767  0.0191
  508POPC   C4A 6092  19.528  21.464  17.408 -0.0244 -0.2140  0.1572
  508POPC   C1B 6093  19.927  20.328  17.864 -0.1493  0.0548 -0.1390
  508POPC   C2B 6094  19.880  20.713  17.633  0.1275 -0.0315  0.1388
  508POPC   C3B 6095  19.884  21.130  17.456 -0.1844 -0.1204  0.4728
  508POPC   C4B 6096  20.002  21.481  17.409 -0.1112 -0.0161 -0.2740
  509POPC   NC3 6097   8.863   5.602  19.828  0.2729 -0.2334 -0.3547
  509POPC   PO4 6098   8.811   5.681  19.464  0.3253  0.0749  0.2312
  509POPC   GL1 6099   8.564   5.719  19.188  0.0926  0.3173 -0.0653
  509POPC   GL2 6100   8.669   5.953  18.971 -0.0202  0.2779  0.3399
  509POPC   C1A 6101   8.655   5.443  18.836 -0.1024  0.0133 -0.3280
  509POPC   D2A 6102   8.754   5.342  18.417 -0.0578 -0.1408  0.2316
  509POPC   C3A 6103   9.128   5.332  18.176 -0.1023  0.0379  0.1067
  509POPC   C4A 6104   9.317   5.465  17.824  0.0860  0.2310  0.1030
  509POPC   C1B 6105   8.540   5.872  18.494  0.0765 -0.0138 -0.1903
  509POPC   C2B 6106   8.218   5.876  18.123 -0.2560  0.1385 -0.1304
  509POPC   C3B 6107   7.773   5.888  17.889  0.2034  0.0730  0.1119
  509POPC   C4B 6108   7.555   5.797  17.476 -0.0073  0.2034  0.0636
  510POPC   NC3 6109   1.592  20.194  19.238  0.0754  0.0193  0.0859
  510POPC   PO4 6110   1.258  20.029  19.243 -0.2068 -0.0584  0.3002
  510POPC   GL1 6111   1.386  19.744  18.948 -0.0410 -0.0783 -0.1304
  510POPC   GL2 6112   1.593  19.879  18.743  0.1150 -0.1070  0.2513
  510POPC   C1A 6113   1.260  19.546  18.561 -0.2985 -0.1745 -0.0035
  510POPC   D2A 6114   1.441  19.502  18.143  0.1541 -0.2388  0.0394
  510POPC   C3A 6115   1.591  19.845  17.844 -0.0012 -0.1935 -0.0978
  510POPC   C4A 6116   2.028  19.902  17.820  0.1579 -0.0269  0.3694
  510POPC   C1B 6117   1.626  20.053  18.347  0.2867 -0.1566  0.1084
  510POPC   C2B 6118   1.937  20.327  18.157  0.2443 -0.1177  0.2427
  510POPC   C3B 6119   2.108  20.432  17.753  0.1715  0.2039 -0.0347
  510POPC   C4B 6120   2.119  20.598  17.289 -0.1358  0.1304  0.0634
  511POPC   NC3 6121  15.777   9.504  19.058 -0.2728  0.3248 -0.2496
  511POPC   PO4 6122  15.444   9.313  19.000  0.0857 -0.0251 -0.2155
  511POPC   GL1 6123  15.497   9.263  18.641 -0.0858 -0.0660 -0.1440
  511POPC   GL2 6124  15.409   8.959  18.595  0.0817 -0.0780 -0.2486
  511POPC   C1A 6125  15.631   9.180  18.210  0.0086 -0.2896 -0.0728
  511POPC   D2A 6126  15.757   9.344  17.766 -0.0725 -0.1158  0.0581
  511POPC   C3A 6127  15.395   9.060  17.582  0.0958 -0.0909 -0.2090
  511POPC   C4A 6128  15.093   8.776  17.749  0.2931  0.0696 -0.0497
  511POPC   C1B 6129  15.030   9.097  18.423 -0.1688  0.1546  0.2279
  511POPC   C2B 6130  14.915   9.288  17.976  0.1398 -0.2516 -0.2718
  511POPC   C3B 6131  14.897   9.225  17.521 -0.1258  0.0183 -0.0403
  511POPC   C4B 6132  14.601   9.243  17.111  0.2186  0.3422  0.2794
  512POPC   NC3 6133  18.733  15.492  19.101  0.2196 -0.3494 -0.0111
  512POPC   PO4 6134  19.042  15.420  18.924  0.0237 -0.1337  0.2540
  512POPC   GL1 6135  18.885  15.438  18.515 -0.0675  0.0687 -0.3949
  512POPC   GL2 6136  19.179  15.316  18.414  0.2730  0.0743  0.0827
  512POPC   C1A 6137  18.845  15.112  18.161  0.1784 -0.1180  0.0694
  512POPC   D2A 6138  18.721  14.972  17.691  0.0989 -0.0330 -0.1572
  512POPC   C3A 6139  18.541  15.067  17.324 -0.0424 -0.2803 -0.0739
  512POPC   C4A 6140  18.213  15.056  17.032 -0.0043 -0.1374  0.1344
  512POPC   C1B 6141  19.284  14.885  18.283  0.1149  0.0836 -0.1596
  512POPC   C2B 6142  19.305  14.698  17.788 -0.1075 -0.2173  0.1033
  512POPC   C3B 6143  19.200  14.537  17.373  0.0004 -0.3250  0.0345
  512POPC   C4B 6144  19.154  14.364  16.955  0.2889  0.0304 -0.2702
  513POPC   NC3 6145  10.143   4.438  19.776  0.0691  0.1237 -0.2665
  513POPC   PO4 6146  10.037   4.184  19.490 -0.1196  0.1858 -0.1356
  513POPC   GL1 6147  10.251   4.064  19.063 -0.0351  0.2636 -0.0505
  513POPC   GL2 6148   9.988   4.288  18.947  0.2579  0.0247 -0.3300
  513POPC   C1A 6149  10.437   4.170  18.676 -0.0095  0.0745  0.1857
  513POPC   D2A 6150  10.457   3.887  18.278 -0.4876 -0.3755 -0.0458
  513POPC   C3A 6151  10.647   3.913  17.853  0.2874 -0.0719  0.3148
  513POPC   C4A 6152  10.960   3.873  17.470 -0.1364 -0.2296 -0.0216
  513POPC   C1B 6153   9.843   4.224  18.531  0.1332 -0.1159  0.0099
  513POPC   C2B 6154   9.711   4.080  18.129  0.1786 -0.0484 -0.0302
  513POPC   C3B 6155   9.515   3.718  17.821  0.1333  0.0506  0.2731
  513POPC   C4B 6156   9.425   3.498  17.431 -0.0323 -0.2382 -0.0979
  514POPC   NC3 6157  25.137  26.493  19.164  0.3109 -0.1848  0.2551
  514POPC   PO4 6158  25.355  26.175  19.077  0.1179 -0.1788  0.0413
  514POPC   GL1 6159  25.325  26.289  18.654 -0.0410  0.2138 -0.3100
  514POPC   GL2 6160  25.055  26.361  18.679 -0.0676 -0.2129  0.1696
  514POPC   C1A 6161  25.266  26.200  18.196  0.3021  0.1213  0.1249
  514POPC   D2A 6162  25.274  26.256  17.725 -0.1143  0.3889  0.1939
  514POPC   C3A 6163  24.960  26.071  17.548  0.0840 -0.2452  0.0558
  514POPC   C4A 6164  24.914  25.634  17.296  0.2546 -0.3631 -0.1711
  514POPC   C1B 6165  24.758  26.444  18.341 -0.0086  0.2366 -0.2714
  514POPC   C2B 6166  24.772  26.508  17.916 -0.1574 -0.1366 -0.0902
  514POPC   C3B 6167  24.723  26.902  17.655  0.3341 -0.0318  0.2949
  514POPC   C4B 6168  24.755  27.367  17.648 -0.3925  0.0639  0.2375
  515POPC   NC3 6169  25.393  25.555  19.419 -0.0566 -0.1743 -0.0107
  515POPC   PO4 6170  25.310  25.164  19.310 -0.0496 -0.2594  0.1915
  515POPC   GL1 6171  25.321  25.234  18.838  0.0151 -0.0756 -0.0834
  515POPC   GL2 6172  25.645  25.198  18.884  0.2484 -0.1217  0.4551
  515POPC   C1A 6173  25.440  25.306  18.390  0.0658 -0.0809  0.0683
  515POPC   D2A 6174  25.387  25.162  17.922  0.1708  0.0333 -0.0133
  515POPC   C3A 6175  25.298  25.243  17.434  0.1824 -0.0012  0.1776
  515POPC   C4A 6176  25.129  25.117  17.044  0.0403 -0.1527  0.0245
  515POPC   C1B 6177  25.633  24.842  18.625 -0.0080  0.1466 -0.1175
  515POPC   C2B 6178  25.524  24.619  18.285 -0.0877 -0.0335 -0.2075
  515POPC   C3B 6179  25.598  24.681  17.803  0.2733 -0.3370  0.1979
  515POPC   C4B 6180  25.345  24.718  17.396 -0.0113  0.2518  0.0127
  516POPC   NC3 6181  15.785  16.983  19.715  0.0631 -0.1152 -0.2932
  516POPC   PO4 6182  15.474  17.118  19.542 -0.0029  0.0645 -0.1174
  516POPC   GL1 6183  15.733  17.095  19.165 -0.3064 -0.3277 -0.1341
  516POPC   GL2 6184  15.561  17.325  19.048  0.0707 -0.3300  0.0361
  516POPC   C1A 6185  16.074  17.179  18.915 -0.4151  0.0083 -0.3550
  516POPC   D2A 6186  16.237  17.443  18.571  0.0938  0.1905 -0.1667
  516POPC   C3A 6187  16.701  17.365  18.425  0.1216 -0.2897 -0.3465
  516POPC   C4A 6188  17.043  17.701  18.587 -0.1692  0.0030 -0.2621
  516POPC   C1B 6189  15.694  17.437  18.624 -0.0882  0.2992 -0.1082
  516POPC   C2B 6190  15.809  17.486  18.141  0.0312  0.0610 -0.1173
  516POPC   C3B 6191  15.890  17.550  17.709 -0.2789  0.1869  0.3747
  516POPC   C4B 6192  15.932  17.516  17.233  0.0820  0.2128  0.2821
  517POPC   NC3 6193  11.330  12.795  19.460 -0.0359 -0.1062 -0.2847
  517POPC   PO4 6194  11.280  13.012  19.182 -0.0101 -0.0363  0.2444
  517POPC   GL1 6195  11.308  12.777  18.868 -0.1434 -0.1732  0.0127
  517POPC   GL2 6196  11.564  12.592  18.987 -0.1802  0.3643  0.1975
  517POPC   C1A 6197  11.217  12.896  18.426  0.1716 -0.0464 -0.1939
  517POPC   D2A 6198  11.158  12.862  17.965  0.1890 -0.0256 -0.1522
  517POPC   C3A 6199  11.281  12.683  17.523 -0.2864 -0.1217  0.1133
  517POPC   C4A 6200  11.507  12.628  17.150 -0.4612  0.0383 -0.0373
  517POPC   C1B 6201  11.515  12.093  18.832 -0.0149 -0.0985 -0.2728
  517POPC   C2B 6202  11.509  11.902  18.400  0.1691 -0.0195  0.0667
  517POPC   C3B 6203  11.744  11.759  18.023  0.1851 -0.0867  0.2102
  517POPC   C4B 6204  11.920  11.950  17.639 -0.1732  0.1974  0.0339
  518POPC   NC3 6205   4.836  17.933  19.293  0.1038  0.0781 -0.0115
  518POPC   PO4 6206   4.562  17.679  19.221  0.0380  0.0455  0.2399
  518POPC   GL1 6207   4.553  17.627  18.816 -0.0564 -0.2534 -0.0043
  518POPC   GL2 6208   4.584  17.349  18.814 -0.1415  0.0210  0.0538
  518POPC   C1A 6209   4.709  17.626  18.346  0.0554  0.2975  0.0935
  518POPC   D2A 6210   4.742  17.747  17.886 -0.1155  0.0130  0.0892
  518POPC   C3A 6211   4.574  17.764  17.407  0.3134 -0.1938  0.0106
  518POPC   C4A 6212   4.859  17.722  17.033  0.1881 -0.1726  0.1864
  518POPC   C1B 6213   4.309  17.271  18.491 -0.0011 -0.2086  0.2288
  518POPC   C2B 6214   4.458  17.329  18.034  0.0220  0.0354 -0.3428
  518POPC   C3B 6215   4.413  17.344  17.587 -0.0453 -0.0155  0.0499
  518POPC   C4B 6216   4.070  17.543  17.255 -0.0819  0.0445  0.2017
  519POPC   NC3 6217  21.524   9.340  19.184 -0.2528 -0.0896  0.2552
  519POPC   PO4 6218  21.307   9.054  19.363  0.0809  0.3066 -0.0616
  519POPC   GL1 6219  21.295   8.976  18.963  0.1306 -0.3321 -0.2339
  519POPC   GL2 6220  21.111   9.166  18.866 -0.2057  0.0097  0.1705
  519POPC   C1A 6221  21.431   8.897  18.539 -0.5343  0.1627 -0.0238
  519POPC   D2A 6222  21.554   8.562  18.239  0.3952  0.1200 -0.0553
  519POPC   C3A 6223  21.714   8.793  17.863  0.0312 -0.2233  0.1847
  519POPC   C4A 6224  22.056   9.036  17.657  0.0892  0.1063 -0.1880
  519POPC   C1B 6225  21.026   9.114  18.432  0.2220 -0.1576 -0.3023
  519POPC   C2B 6226  21.219   8.919  18.071  0.2010 -0.1204 -0.0233
  519POPC   C3B 6227  21.247   8.603  17.819  0.2012 -0.0446 -0.2302
  519POPC   C4B 6228  21.568   8.327  17.675  0.0445 -0.3285  0.0221
  520POPC   NC3 6229  31.669  17.081  19.277  0.1217  0.2240 -0.1545
  520POPC   PO4 6230  32.053  17.187  19.364 -0.1726  0.0203 -0.0312
  520POPC   GL1 6231  32.052  17.199  18.988  0.0858 -0.0950  0.1978
  520POPC   GL2 6232  32.128  17.456  18.865 -0.0087 -0.0836 -0.2554
  520POPC   C1A 6233  31.700  17.363  18.658 -0.1654  0.3494 -0.1855
  520POPC   D2A 6234  31.559  17.608  18.238  0.2568  0.0360  0.1429
  520POPC   C3A 6235  31.484  17.832  17.849  0.1377 -0.1277 -0.1618
  520POPC   C4A 6236  31.783  17.699  17.510 -0.0978 -0.0064 -0.0782
  520POPC   C1B 6237  32.066  17.651  18.473 -0.2521 -0.0033 -0.1545
  520POPC   C2B 6238  31.994  17.864  18.051 -0.2447  0.0003  0.0391
  520POPC   C3B 6239  31.941  18.182  17.718  0.0666  0.1273  0.2700
  520POPC   C4B 6240  31.959  18.419  17.337  0.0019 -0.1895 -0.1093
  521POPC   NC3 6241  17.814   3.247  19.386  0.2228 -0.3888 -0.2149
  521POPC   PO4 6242  17.405   3.259  19.519 -0.0262  0.1038 -0.1154
  521POPC   GL1 6243  17.313   3.022  19.159 -0.1526 -0.2160 -0.0703
  521POPC   GL2 6244  17.405   3.251  18.965 -0.0016  0.3187 -0.0127
  521POPC   C1A 6245  16.938   3.043  18.833 -0.1992  0.0292  0.0436
  521POPC   D2A 6246  16.529   2.977  18.710 -0.1906  0.1683 -0.1787
  521POPC   C3A 6247  16.410   2.990  18.238 -0.0165  0.0418  0.2192
  521POPC   C4A 6248  16.375   2.935  17.810 -0.2620  0.2043  0.2725
  521POPC   C1B 6249  17.350   3.215  18.566 -0.2754 -0.0764 -0.1087
  521POPC   C2B 6250  17.267   3.237  18.144  0.0549  0.1146 -0.1568
  521POPC   C3B 6251  17.185   3.328  17.688  0.0546  0.0089  0.0034
  521POPC   C4B 6252  17.059   3.450  17.259  0.1538 -0.4028  0.2298
  522POPC   NC3 6253  17.918  27.836  19.478 -0.1343 -0.0957 -0.1119
  522POPC   PO4 6254  17.743  27.493  19.530 -0.1126  0.2797 -0.0620
  522POPC   GL1 6255  17.609  27.472  19.221  0.4654 -0.0094 -0.2807
  522POPC   GL2 6256  17.674  27.565  18.998  0.2493  0.1392 -0.0360
  522POPC   C1A 6257  17.287  27.258  18.972  0.0607 -0.1231  0.1591
  522POPC   D2A 6258  16.986  27.020  18.742  0.0311 -0.3422  0.1147
  522POPC   C3A 6259  16.983  26.616  18.929 -0.0036  0.2854 -0.2127
  522POPC   C4A 6260  16.911  26.215  19.021  0.0274  0.1456  0.3784
  522POPC   C1B 6261  17.561  27.414  18.539  0.0706  0.0266  0.0523
  522POPC   C2B 6262  17.324  27.334  18.184  0.1786 -0.2644 -0.0290
  522POPC   C3B 6263  17.166  27.470  17.774 -0.6036  0.0720  0.2726
  522POPC   C4B 6264  16.904  27.770  17.635  0.1050  0.3055 -0.2801
  523POPC   NC3 6265   4.162  22.113  19.468 -0.1407  0.1549 -0.1186
  523POPC   PO4 6266   4.552  22.211  19.515 -0.2358 -0.0190  0.0316
  523POPC   GL1 6267   4.480  22.192  19.159  0.3703  0.2779 -0.1307
  523POPC   GL2 6268   4.420  21.902  19.097 -0.0764 -0.0456  0.1126
  523POPC   C1A 6269   4.504  22.385  18.723 -0.0685 -0.0420 -0.1175
  523POPC   D2A 6270   4.635  22.336  18.337 -0.2580 -0.1983  0.1461
  523POPC   C3A 6271   5.020  22.052  18.262  0.2994  0.1578  0.2488
  523POPC   C4A 6272   5.469  21.848  18.153  0.4568 -0.1499  0.0561
  523POPC   C1B 6273   4.829  21.819  18.924 -0.3212  0.0824 -0.2674
  523POPC   C2B 6274   4.903  21.667  18.541  0.1097  0.1377 -0.0519
  523POPC   C3B 6275   5.046  21.592  18.062  0.1121  0.1630 -0.1455
  523POPC   C4B 6276   4.928  21.818  17.692 -0.2453 -0.1025 -0.0094
  524POPC   NC3 6277   0.920  11.706  19.425 -0.2139 -0.0774  0.0062
  524POPC   PO4 6278   0.963  12.035  19.640 -0.0635  0.0475 -0.0465
  524POPC   GL1 6279   0.926  12.174  19.225 -0.1335  0.1493 -0.3676
  524POPC   GL2 6280   0.721  12.390  19.293 -0.1078  0.2529  0.0479
  524POPC   C1A 6281   0.873  12.145  18.706 -0.0081 -0.3672 -0.1616
  524POPC   D2A 6282   0.581  12.014  18.403  0.0097  0.1690 -0.0774
  524POPC   C3A 6283   0.454  12.359  18.118  0.2520  0.0038 -0.1007
  524POPC   C4A 6284   0.371  12.718  17.855  0.0217 -0.0442 -0.1189
  524POPC   C1B 6285   0.543  12.502  18.873 -0.2811 -0.3416  0.2496
  524POPC   C2B 6286   0.750  12.620  18.456  0.0843  0.0827  0.0518
  524POPC   C3B 6287   0.954  12.536  18.045  0.0453  0.0160 -0.0371
  524POPC   C4B 6288   1.343  12.356  17.871  0.0564  0.0388  0.0769
  525POPC   NC3 6289   6.942   0.737  19.285  0.3696 -0.0252  0.2445
  525POPC   PO4 6290   6.587   0.843  19.396  0.2138 -0.1836 -0.1744
  525POPC   GL1 6291   6.514   0.791  19.001 -0.0651 -0.1001 -0.0924
  525POPC   GL2 6292   6.669   1.064  18.914  0.0543  0.3302  0.2212
  525POPC   C1A 6293   6.525   0.787  18.522 -0.0944 -0.2095  0.2397
  525POPC   D2A 6294   6.559   0.765  18.067 -0.0753 -0.3735 -0.0908
  525POPC   C3A 6295   6.422   1.170  17.858  0.1379 -0.4018 -0.0281
  525POPC   C4A 6296   6.597   1.348  17.446 -0.2347 -0.0167  0.0966
  525POPC   C1B 6297   6.808   1.218  18.553  0.0346  0.2664  0.1674
  525POPC   C2B 6298   6.761   1.409  18.106 -0.0685 -0.0157  0.0774
  525POPC   C3B 6299   7.049   1.232  17.715  0.0462  0.0961 -0.4353
  525POPC   C4B 6300   7.456   1.370  17.480  0.1901 -0.0451 -0.1992
  526POPC   NC3 6301   0.469  21.978  19.306 -0.2379 -0.1375  0.0423
  526POPC   PO4 6302   0.136  21.964  19.545 -0.1682 -0.1599 -0.2104
  526POPC   GL1 6303  -0.063  21.936  19.158 -0.0269  0.3576  0.2367
  526POPC   GL2 6304  -0.261  21.694  19.301 -0.3191  0.0576  0.1095
  526POPC   C1A 6305   0.070  21.613  18.787  0.1482 -0.1755 -0.0893
  526POPC   D2A 6306  -0.199  21.475  18.460 -0.1711 -0.2149  0.1801
  526POPC   C3A 6307  -0.337  21.033  18.543  0.3240 -0.2639 -0.2837
  526POPC   C4A 6308  -0.703  20.795  18.727 -0.2245  0.0726  0.0714
  526POPC   C1B 6309  -0.382  21.799  18.886  0.1817  0.0228  0.1083
  526POPC   C2B 6310  -0.310  21.938  18.428 -0.2750 -0.1837  0.0537
  526POPC   C3B 6311  -0.517  22.077  18.037  0.1449  0.0637  0.0437
  526POPC   C4B 6312  -0.793  22.141  17.660 -0.1037  0.1665  0.0354
  527POPC   NC3 6313   1.967  14.847  19.064 -0.0499  0.0974  0.2744
  527POPC   PO4 6314   2.283  14.683  19.267  0.1948  0.0791 -0.1683
  527POPC   GL1 6315   2.370  14.571  18.882  0.0096 -0.1059  0.1633
  527POPC   GL2 6316   2.685  14.584  18.845  0.0569  0.2991  0.1455
  527POPC   C1A 6317   2.172  14.554  18.478  0.0402  0.0668 -0.0881
  527POPC   D2A 6318   2.095  14.633  18.090 -0.0719 -0.0032  0.0474
  527POPC   C3A 6319   2.333  14.232  17.957 -0.0864 -0.0686 -0.0040
  527POPC   C4A 6320   2.529  13.836  17.754  0.0191  0.1001  0.0185
  527POPC   C1B 6321   2.809  14.342  18.496  0.1613  0.1354  0.1221
  527POPC   C2B 6322   2.865  14.006  18.162  0.1061 -0.0941 -0.1708
  527POPC   C3B 6323   2.988  13.585  18.060  0.0805  0.0964  0.1132
  527POPC   C4B 6324   3.032  13.299  17.674  0.0080  0.1447 -0.1195
  528POPC   NC3 6325  11.140  21.127  19.515  0.1824  0.0869  0.0133
  528POPC   PO4 6326  11.231  21.504  19.457 -0.1301 -0.0698 -0.0251
  528POPC   GL1 6327  11.139  21.346  19.107  0.1559  0.2846 -0.3288
  528POPC   GL2 6328  10.868  21.319  19.082 -0.0320 -0.0005 -0.1378
  528POPC   C1A 6329  11.137  20.991  18.769 -0.0468  0.1684  0.2043
  528POPC   D2A 6330  11.113  20.835  18.290  0.0301  0.0485  0.1063
  528POPC   C3A 6331  11.146  21.057  17.904 -0.0840 -0.1301 -0.2682
  528POPC   C4A 6332  11.379  21.326  17.635 -0.4206  0.3351  0.1778
  528POPC   C1B 6333  10.644  21.239  18.733  0.1040 -0.0232 -0.1801
  528POPC   C2B 6334  10.397  21.259  18.357 -0.0499  0.1203  0.1758
  528POPC   C3B 6335  10.240  21.233  17.903  0.3652  0.1851  0.5509
  528POPC   C4B 6336   9.932  21.170  17.587 -0.0142 -0.4034  0.3673
  529POPC   NC3 6337  18.932  28.339  18.951  0.0111  0.0631  0.1682
  529POPC   PO4 6338  19.291  28.483  19.000 -0.0277  0.0535 -0.0229
  529POPC   GL1 6339  19.355  28.586  18.703  0.0983  0.0897  0.0713
  529POPC   GL2 6340  19.571  28.805  18.766 -0.1156  0.2393 -0.1177
  529POPC   C1A 6341  19.139  28.445  18.282  0.0693  0.0851  0.0004
  529POPC   D2A 6342  18.787  28.654  18.039  0.2782 -0.1438  0.4283
  529POPC   C3A 6343  18.648  28.640  17.601  0.0540 -0.2640 -0.1824
  529POPC   C4A 6344  18.761  28.337  17.217  0.1425 -0.1056 -0.2983
  529POPC   C1B 6345  19.791  28.581  18.431  0.0506  0.1210 -0.0842
  529POPC   C2B 6346  20.023  28.433  18.064  0.0070 -0.0268  0.0188
  529POPC   C3B 6347  19.919  28.420  17.628 -0.3803  0.0342 -0.1401
  529POPC   C4B 6348  19.570  28.656  17.444 -0.2631 -0.1080  0.2928
  530POPC   NC3 6349   3.115  26.193  19.609 -0.1448 -0.3331  0.1308
  530POPC   PO4 6350   3.507  26.320  19.701  0.0816 -0.1516 -0.1205
  530POPC   GL1 6351   3.544  26.082  19.428 -0.0197  0.0401  0.1492
  530POPC   GL2 6352   3.687  26.126  19.239 -0.1908 -0.0017 -0.2204
  530POPC   C1A 6353   3.158  25.853  19.207  0.2435 -0.0481 -0.0299
  530POPC   D2A 6354   2.833  25.710  18.869 -0.1412  0.0841 -0.0939
  530POPC   C3A 6355   2.886  25.914  18.462 -0.1976  0.0357 -0.1958
  530POPC   C4A 6356   2.981  26.263  18.297  0.0673 -0.1648  0.1507
  530POPC   C1B 6357   3.727  26.178  18.795  0.1276 -0.2587  0.1155
  530POPC   C2B 6358   3.470  26.217  18.384  0.0598 -0.1153  0.1629
  530POPC   C3B 6359   3.636  26.354  17.999  0.0512  0.0942  0.1569
  530POPC   C4B 6360   3.517  26.271  17.539 -0.4454  0.1078 -0.1109
  531POPC   NC3 6361  11.148   0.538  20.179  0.0498 -0.2122 -0.0582
  531POPC   PO4 6362  11.269   0.697  19.857  0.1927  0.2006  0.1924
  531POPC   GL1 6363  11.123   0.596  19.485  0.1635  0.1674 -0.1950
  531POPC   GL2 6364  11.145   0.798  19.336 -0.0405  0.3467  0.2368
  531POPC   C1A 6365  10.661   0.581  19.417  0.1446  0.0540  0.0588
  531POPC   D2A 6366  10.330   0.922  19.330  0.2267 -0.1011 -0.0883
  531POPC   C3A 6367  10.033   0.940  18.999 -0.0523  0.0697  0.0148
  531POPC   C4A 6368   9.958   0.742  18.598 -0.1839 -0.0675  0.0458
  531POPC   C1B 6369  10.788   0.969  19.061  0.1326  0.1878  0.1533
  531POPC   C2B 6370  10.489   0.969  18.673  0.1722  0.0511  0.0547
  531POPC   C3B 6371  10.285   1.144  18.328 -0.1003 -0.3294 -0.2052
  531POPC   C4B 6372  10.347   1.378  17.922 -0.1061  0.1456 -0.1502
  532POPC   NC3 6373   4.629  26.528  19.459  0.0002 -0.2461 -0.0275
  532POPC   PO4 6374   4.446  26.223  19.562  0.0021 -0.1871 -0.1713
  532POPC   GL1 6375   4.271  26.309  19.193 -0.4992  0.1396  0.0630
  532POPC   GL2 6376   4.508  26.178  18.974  0.2877 -0.1333  0.0909
  532POPC   C1A 6377   4.042  26.536  18.878 -0.0551  0.0173  0.0276
  532POPC   D2A 6378   3.604  26.631  18.730 -0.0760 -0.2773  0.3321
  532POPC   C3A 6379   3.343  26.660  18.311 -0.0697  0.1187  0.1555
  532POPC   C4A 6380   2.948  26.758  17.963 -0.1220 -0.0326 -0.0441
  532POPC   C1B 6381   4.294  26.223  18.631 -0.0319  0.0447 -0.0477
  532POPC   C2B 6382   3.990  26.335  18.358 -0.5094  0.3374  0.4005
  532POPC   C3B 6383   3.848  26.768  18.248  0.1174 -0.0035  0.0111
  532POPC   C4B 6384   3.923  27.185  18.113  0.2073 -0.2626  0.3775
  533POPC   NC3 6385  27.133  14.528  19.430  0.2083 -0.0662  0.0430
  533POPC   PO4 6386  27.435  14.411  19.215 -0.0724  0.0538  0.1295
  533POPC   GL1 6387  27.398  14.473  18.843 -0.0225 -0.3778  0.0764
  533POPC   GL2 6388  27.378  14.730  18.697 -0.1260 -0.0907  0.0438
  533POPC   C1A 6389  27.503  14.388  18.401  0.1619 -0.0953 -0.0251
  533POPC   D2A 6390  27.570  14.329  17.933 -0.2109  0.0789  0.2378
  533POPC   C3A 6391  27.654  14.324  17.487 -0.0016  0.1389 -0.0906
  533POPC   C4A 6392  27.666  14.184  17.053  0.1265  0.0604 -0.2278
  533POPC   C1B 6393  27.489  14.882  18.279  0.2396 -0.3102 -0.1826
  533POPC   C2B 6394  27.489  14.798  17.815 -0.1413  0.2241 -0.1900
  533POPC   C3B 6395  27.549  14.847  17.372 -0.1020 -0.1252 -0.0394
  533POPC   C4B 6396  27.273  14.943  17.023 -0.1608 -0.3714  0.0871
  534POPC   NC3 6397  23.554  27.571  19.453  0.3653  0.1289 -0.4318
  534POPC   PO4 6398  23.422  27.717  19.116  0.1360  0.2651  0.0618
  534POPC   GL1 6399  23.242  27.961  18.922 -0.1719  0.1865 -0.0680
  534POPC   GL2 6400  23.165  28.176  19.071 -0.1714  0.1275  0.0401
  534POPC   C1A 6401  23.091  27.927  18.491  0.0258 -0.0568 -0.0232
  534POPC   D2A 6402  22.996  28.109  18.041  0.2895  0.0803 -0.1758
  534POPC   C3A 6403  22.968  27.826  17.685  0.1533  0.3596 -0.0834
  534POPC   C4A 6404  22.854  27.783  17.225 -0.1377 -0.2211 -0.2149
  534POPC   C1B 6405  23.109  28.500  18.758  0.0222 -0.0659 -0.1153
  534POPC   C2B 6406  23.265  28.665  18.352  0.0019  0.2688  0.2233
  534POPC   C3B 6407  23.065  28.618  17.920  0.0912  0.2200  0.3253
  534POPC   C4B 6408  22.898  28.285  17.555 -0.0395  0.1641 -0.0897
  535POPC   NC3 6409  29.563  14.434  19.322  0.1063 -0.0594  0.0190
  535POPC   PO4 6410  29.828  14.683  19.471 -0.0373  0.0097  0.0614
  535POPC   GL1 6411  29.970  14.501  19.154 -0.0264  0.0756 -0.1573
  535POPC   GL2 6412  29.997  14.259  19.052  0.1371  0.0939  0.2912
  535POPC   C1A 6413  29.861  14.577  18.675  0.0271  0.0752 -0.0741
  535POPC   D2A 6414  30.071  14.487  18.255  0.0528  0.2596 -0.0950
  535POPC   C3A 6415  30.306  14.875  18.088  0.6799  0.3192  0.1681
  535POPC   C4A 6416  30.698  14.920  17.906  0.4032 -0.0027 -0.4893
  535POPC   C1B 6417  29.945  14.121  18.586 -0.1218 -0.1591 -0.0910
  535POPC   C2B 6418  29.809  14.074  18.078  0.1251 -0.0774  0.2054
  535POPC   C3B 6419  29.714  14.137  17.601 -0.1748 -0.1798 -0.2662
  535POPC   C4B 6420  29.692  14.495  17.302  0.1609 -0.1056  0.1747
  536POPC   NC3 6421   3.182  14.458  19.149 -0.2552  0.0332 -0.0831
  536POPC   PO4 6422   3.010  14.808  19.200  0.1085 -0.0715 -0.2836
  536POPC   GL1 6423   3.313  14.810  18.978 -0.4326 -0.1125 -0.2012
  536POPC   GL2 6424   3.170  14.728  18.741 -0.0266 -0.1508  0.1341
  536POPC   C1A 6425   3.494  15.080  18.574  0.3350 -0.0282  0.0835
  536POPC   D2A 6426   3.497  15.105  18.120  0.1663  0.2586 -0.0873
  536POPC   C3A 6427   3.428  15.394  17.760  0.1946 -0.0464  0.2237
  536POPC   C4A 6428   3.409  15.581  17.348  0.0931 -0.2410 -0.0423
  536POPC   C1B 6429   3.113  14.763  18.317  0.1635 -0.0714 -0.2258
  536POPC   C2B 6430   3.170  14.784  17.856 -0.0117  0.0530 -0.2775
  536POPC   C3B 6431   3.525  14.732  17.537  0.3834  0.1963  0.0622
  536POPC   C4B 6432   3.764  14.536  17.181 -0.0099 -0.1336 -0.2789
  537POPC   NC3 6433   1.560   8.643  19.622  0.6082 -0.2955 -0.0860
  537POPC   PO4 6434   1.839   8.886  19.505 -0.2580 -0.0306 -0.1280
  537POPC   GL1 6435   1.822   8.837  19.045  0.3304 -0.1217 -0.3557
  537POPC   GL2 6436   1.656   8.618  19.038 -0.0805  0.0467  0.0755
  537POPC   C1A 6437   2.033   9.079  18.741 -0.2215 -0.1382 -0.1868
  537POPC   D2A 6438   2.342   8.944  18.437 -0.1037  0.1162  0.3659
  537POPC   C3A 6439   2.137   8.854  18.053 -0.1803  0.1173  0.0943
  537POPC   C4A 6440   1.928   8.624  17.683  0.2801  0.2763 -0.0009
  537POPC   C1B 6441   1.565   8.796  18.607 -0.2439  0.2426  0.2801
  537POPC   C2B 6442   1.647   8.647  18.173 -0.0192 -0.0766 -0.2762
  537POPC   C3B 6443   1.584   8.260  17.914  0.0686  0.0058 -0.2676
  537POPC   C4B 6444   1.313   8.050  17.648  0.0500 -0.2021 -0.1108
  538POPC   NC3 6445   7.981   1.940  19.476  0.4658 -0.1929  0.1877
  538POPC   PO4 6446   7.596   1.859  19.558  0.0859  0.0016 -0.1697
  538POPC   GL1 6447   7.475   1.720  19.276 -0.4074  0.4285 -0.3438
  538POPC   GL2 6448   7.728   1.549  19.185 -0.3783 -0.1818  0.3659
  538POPC   C1A 6449   7.412   1.852  18.843  0.1243 -0.2986  0.2188
  538POPC   D2A 6450   7.656   1.898  18.475  0.0094  0.0213 -0.0729
  538POPC   C3A 6451   8.010   1.876  18.249 -0.1970  0.0461 -0.1446
  538POPC   C4A 6452   8.258   1.592  18.048  0.0289  0.1872  0.0837
  538POPC   C1B 6453   7.582   1.381  18.751  0.1915 -0.0802  0.0087
  538POPC   C2B 6454   7.341   1.090  18.496  0.1144 -0.0650  0.1665
  538POPC   C3B 6455   7.037   0.938  18.181 -0.0884 -0.0248  0.0674
  538POPC   C4B 6456   7.053   0.746  17.757 -0.0204  0.0001 -0.0064
  539POPC   NC3 6457   0.444  10.079  19.243 -0.0707 -0.0099 -0.1604
  539POPC   PO4 6458   0.402   9.686  19.257 -0.1787  0.0284 -0.0877
  539POPC   GL1 6459   0.619   9.766  18.931 -0.3753  0.1261 -0.1191
  539POPC   GL2 6460   0.439   9.947  18.775  0.0917  0.1543 -0.1385
  539POPC   C1A 6461   0.864   9.484  18.672  0.3086  0.1988 -0.0320
  539POPC   D2A 6462   0.965   9.250  18.368 -0.1658  0.2727 -0.2234
  539POPC   C3A 6463   1.374   9.057  18.247  0.1084  0.1802 -0.0304
  539POPC   C4A 6464   1.693   9.059  17.843  0.1379  0.1635 -0.1767
  539POPC   C1B 6465   0.405   9.677  18.459 -0.2475  0.2790  0.0940
  539POPC   C2B 6466   0.377   9.365  18.120 -0.1083 -0.1152  0.0570
  539POPC   C3B 6467   0.151   9.014  17.917 -0.4501 -0.1079  0.4726
  539POPC   C4B 6468   0.111   8.634  18.168  0.1007 -0.1789 -0.1336
  540POPC   NC3 6469   9.614  13.419  19.838 -0.1072  0.3564  0.1585
  540POPC   PO4 6470   9.427  13.286  19.527  0.0621  0.0233  0.0296
  540POPC   GL1 6471   9.446  13.711  19.323 -0.4013  0.1054 -0.1316
  540POPC   GL2 6472   9.548  13.726  19.036  0.0239  0.1008 -0.2553
  540POPC   C1A 6473   9.376  14.170  19.349  0.3076 -0.0682 -0.0506
  540POPC   D2A 6474   9.158  14.546  19.520 -0.0635 -0.1280 -0.2979
  540POPC   C3A 6475   8.942  14.911  19.506  0.0309 -0.2401 -0.1515
  540POPC   C4A 6476   9.014  15.354  19.396  0.2345  0.1465  0.0724
  540POPC   C1B 6477   9.740  13.623  18.611 -0.2155  0.1976  0.0100
  540POPC   C2B 6478   9.731  13.528  18.171 -0.0139 -0.2592 -0.0838
  540POPC   C3B 6479   9.492  13.594  17.762 -0.1738  0.1276 -0.0430
  540POPC   C4B 6480   9.343  13.583  17.360  0.1751  0.1079 -0.1830
  541POPC   NC3 6481  25.724  21.909  18.995  0.1703 -0.1681  0.0495
  541POPC   PO4 6482  25.750  22.236  19.184  0.0526  0.1547 -0.1596
  541POPC   GL1 6483  25.844  22.330  18.852 -0.0313  0.0382 -0.0258
  541POPC   GL2 6484  25.688  22.246  18.648 -0.2660  0.2777  0.0091
  541POPC   C1A 6485  26.215  22.495  18.714 -0.2351  0.0220  0.1164
  541POPC   D2A 6486  26.297  22.421  18.257  0.0157  0.3217 -0.2088
  541POPC   C3A 6487  26.029  22.663  17.957 -0.0827 -0.0182  0.4206
  541POPC   C4A 6488  26.086  22.923  17.581  0.0171 -0.0505 -0.0388
  541POPC   C1B 6489  25.798  22.249  18.231  0.0839  0.0739 -0.0508
  541POPC   C2B 6490  25.701  22.298  17.762 -0.0516 -0.1551 -0.1273
  541POPC   C3B 6491  25.915  22.433  17.376  0.1400 -0.2620  0.0477
  541POPC   C4B 6492  25.729  22.798  17.092 -0.1520  0.2149 -0.0285
  542POPC   NC3 6493  18.892  13.355  19.260  0.1658 -0.0182  0.0301
  542POPC   PO4 6494  19.325  13.328  19.331 -0.0373 -0.1705 -0.1617
  542POPC   GL1 6495  19.399  13.447  18.996 -0.0622  0.1975 -0.0464
  542POPC   GL2 6496  19.170  13.319  18.772  0.0662  0.2227  0.2086
  542POPC   C1A 6497  19.635  13.303  18.632 -0.1375  0.2837  0.1640
  542POPC   D2A 6498  20.055  13.232  18.376 -0.1342  0.0950 -0.2045
  542POPC   C3A 6499  20.354  13.315  18.059 -0.4038  0.0986  0.2002
  542POPC   C4A 6500  20.437  13.263  17.591 -0.0532 -0.0609  0.0803
  542POPC   C1B 6501  19.270  13.204  18.349  0.0502  0.2547 -0.1424
  542POPC   C2B 6502  19.190  12.836  18.074  0.0747 -0.5088  0.0968
  542POPC   C3B 6503  19.055  12.757  17.662  0.0188 -0.4259  0.1575
  542POPC   C4B 6504  19.244  12.454  17.407 -0.0763 -0.3038  0.1149
  543POPC   NC3 6505  18.397   0.978  19.694  0.0970 -0.1611 -0.0281
  543POPC   PO4 6506  18.326   1.318  19.459  0.0437 -0.4076 -0.0707
  543POPC   GL1 6507  18.118   1.466  19.160 -0.0333 -0.1598  0.2250
  543POPC   GL2 6508  18.178   1.476  18.940  0.0295 -0.1914  0.2360
  543POPC   C1A 6509  17.787   1.188  19.004  0.1034 -0.1110 -0.2136
  543POPC   D2A 6510  17.482   1.028  18.671 -0.0483 -0.1235 -0.2784
  543POPC   C3A 6511  17.598   0.718  18.355  0.0529 -0.0122 -0.0820
  543POPC   C4A 6512  17.333   0.292  18.398  0.1074 -0.2109  0.1037
  543POPC   C1B 6513  18.058   1.250  18.621  0.1786  0.2614  0.1032
  543POPC   C2B 6514  18.005   1.030  18.213 -0.0013 -0.2269 -0.6323
  543POPC   C3B 6515  18.151   0.882  17.820 -0.1874  0.0471  0.0181
  543POPC   C4B 6516  17.975   0.710  17.435 -0.0536 -0.1877  0.0074
  544POPC   NC3 6517  21.892   0.620  19.166  0.0259  0.1587 -0.3729
  544POPC   PO4 6518  21.740   0.905  18.907  0.5879  0.2587 -0.0357
  544POPC   GL1 6519  21.774   0.761  18.551  0.0127  0.1009  0.2059
  544POPC   GL2 6520  21.871   0.523  18.636  0.3745  0.1888  0.1076
  544POPC   C1A 6521  22.060   0.791  18.182 -0.0258 -0.5845 -0.3134
  544POPC   D2A 6522  22.450   1.039  17.964  0.1526 -0.1230  0.0312
  544POPC   C3A 6523  22.728   0.828  17.657  0.1212 -0.1855 -0.3716
  544POPC   C4A 6524  22.868   0.767  17.213  0.0632  0.0113  0.0089
  544POPC   C1B 6525  21.779   0.370  18.253  0.1530 -0.0941 -0.0587
  544POPC   C2B 6526  21.829   0.409  17.830  0.0595  0.0251  0.3621
  544POPC   C3B 6527  21.486   0.516  17.504 -0.1631 -0.2404 -0.0287
  544POPC   C4B 6528  21.331   0.487  16.995  0.2037 -0.0508  0.1125
  545POPC   NC3 6529  30.568   0.559  19.345 -0.1825  0.1835  0.2500
  545POPC   PO4 6530  30.606   0.914  19.459 -0.1918  0.0000 -0.3655
  545POPC   GL1 6531  30.286   0.939  19.247  0.0692 -0.0531 -0.1704
  545POPC   GL2 6532  30.279   0.852  18.947  0.0743  0.0795  0.0277
  545POPC   C1A 6533  30.043   1.307  19.047 -0.4324 -0.2066 -0.1205
  545POPC   D2A 6534  29.922   1.620  18.740 -0.1701 -0.2311 -0.0751
  545POPC   C3A 6535  29.968   2.045  18.596  0.0771  0.1886 -0.2213
  545POPC   C4A 6536  29.719   2.406  18.505 -0.2654 -0.1549 -0.4171
  545POPC   C1B 6537  30.376   1.007  18.550 -0.0080  0.0668  0.3072
  545POPC   C2B 6538  30.507   1.214  18.173 -0.0940  0.3466  0.1187
  545POPC   C3B 6539  30.571   1.364  17.703 -0.0642  0.0310 -0.0136
  545POPC   C4B 6540  30.321   1.233  17.310 -0.2454  0.1376  0.0293
  546POPC   NC3 6541  14.102  13.157  19.382  0.0688  0.2039  0.1945
  546POPC   PO4 6542  14.258  13.504  19.273 -0.0021 -0.1014  0.3539
  546POPC   GL1 6543  14.206  13.471  18.887  0.1933 -0.0943  0.1446
  546POPC   GL2 6544  13.963  13.240  18.853 -0.1949 -0.0682 -0.2292
  546POPC   C1A 6545  14.166  13.517  18.423  0.1652 -0.1271  0.0071
  546POPC   D2A 6546  14.133  13.597  17.942  0.0295 -0.1730 -0.1057
  546POPC   C3A 6547  13.998  13.526  17.475  0.3713 -0.0725  0.0821
  546POPC   C4A 6548  13.555  13.418  17.324 -0.1414 -0.0076 -0.0317
  546POPC   C1B 6549  13.955  13.058  18.443 -0.1045 -0.3446  0.0598
  546POPC   C2B 6550  13.875  13.178  17.972  0.0979  0.2101 -0.0135
  546POPC   C3B 6551  13.506  13.175  17.769  0.3748 -0.4070  0.3576
  546POPC   C4B 6552  13.055  13.118  17.717  0.0671  0.1154 -0.0801
  547POPC   NC3 6553  14.517  16.260  19.451  0.1305  0.0257 -0.0736
  547POPC   PO4 6554  14.606  15.955  19.219 -0.0336 -0.0554 -0.3112
  547POPC   GL1 6555  14.691  15.859  18.844  0.1674 -0.1264 -0.3874
  547POPC   GL2 6556  15.003  15.787  18.853 -0.1864 -0.2270 -0.2231
  547POPC   C1A 6557  14.353  15.739  18.524 -0.1454 -0.3110  0.2904
  547POPC   D2A 6558  14.294  15.445  18.151  0.2242  0.2708  0.0824
  547POPC   C3A 6559  14.316  15.382  17.674 -0.2937 -0.0265  0.0154
  547POPC   C4A 6560  14.273  15.155  17.252 -0.1522 -0.3905  0.1680
  547POPC   C1B 6561  14.870  15.853  18.405  0.0082  0.4496 -0.0515
  547POPC   C2B 6562  14.696  15.605  17.978  0.0854  0.2161  0.0838
  547POPC   C3B 6563  14.876  15.373  17.680  0.0752  0.0924  0.2403
  547POPC   C4B 6564  15.074  15.291  17.292  0.2069 -0.1567 -0.1494
  548POPC   NC3 6565  13.883   1.945  19.237 -0.0326  0.1815 -0.0866
  548POPC   PO4 6566  13.692   2.257  19.217  0.2641  0.0935  0.0648
  548POPC   GL1 6567  13.769   2.088  18.829  0.2149 -0.0231 -0.1774
  548POPC   GL2 6568  13.799   2.401  18.742  0.4134 -0.1301  0.2820
  548POPC   C1A 6569  13.600   2.147  18.377 -0.0418  0.0653  0.2523
  548POPC   D2A 6570  13.264   2.406  18.126 -0.2079 -0.0856 -0.2338
  548POPC   C3A 6571  12.991   2.716  17.939 -0.2857  0.2016  0.0772
  548POPC   C4A 6572  12.743   3.087  17.867 -0.0738 -0.0110  0.0379
  548POPC   C1B 6573  14.010   2.433  18.339 -0.1129  0.0674 -0.0478
  548POPC   C2B 6574  13.996   2.670  17.901 -0.0844 -0.0470  0.3785
  548POPC   C3B 6575  13.834   2.574  17.469 -0.0411  0.2020 -0.1446
  548POPC   C4B 6576  13.655   2.606  17.021  0.0530  0.2903 -0.1308
  549POPC   NC3 6577   9.844  30.974  19.191 -0.0977 -0.2680 -0.0599
  549POPC   PO4 6578  10.067  30.699  19.041  0.1828 -0.0244  0.3424
  549POPC   GL1 6579  10.061  30.952  18.780  0.1415  0.0792 -0.0835
  549POPC   GL2 6580  10.317  31.032  18.561 -0.1367 -0.1589  0.1036
  549POPC   C1A 6581   9.922  31.292  18.555  0.2780 -0.2566  0.0236
  549POPC   D2A 6582   9.844  31.491  18.132  0.0578 -0.0006 -0.0182
  549POPC   C3A 6583   9.760  31.952  18.195  0.1802 -0.0440 -0.0768
  549POPC   C4A 6584   9.640  32.417  18.183 -0.0850 -0.1899 -0.0188
  549POPC   C1B 6585  10.115  31.063  18.155  0.0409 -0.0355  0.1088
  549POPC   C2B 6586  10.255  31.231  17.775 -0.2313  0.1325  0.1722
  549POPC   C3B 6587  10.328  31.634  17.474 -0.1358 -0.0674  0.1012
  549POPC   C4B 6588  10.086  31.975  17.189  0.2163  0.2245  0.1074
  550POPC   NC3 6589  14.069  18.850  19.533 -0.3172 -0.0511  0.2839
  550POPC   PO4 6590  13.781  18.776  19.264  0.0909 -0.1177 -0.0728
  550POPC   GL1 6591  13.693  18.874  18.878  0.0956  0.7219  0.4618
  550POPC   GL2 6592  13.940  18.982  18.863 -0.3377 -0.1279  0.0901
  550POPC   C1A 6593  13.539  19.147  18.549  0.0137 -0.1230  0.2579
  550POPC   D2A 6594  13.484  19.346  18.131  0.2488  0.0001  0.0100
  550POPC   C3A 6595  13.693  19.261  17.721  0.2308 -0.2675 -0.1998
  550POPC   C4A 6596  13.588  19.025  17.344  0.3306  0.1586  0.0347
  550POPC   C1B 6597  13.963  18.961  18.427  0.0001 -0.3082 -0.1731
  550POPC   C2B 6598  14.001  18.994  17.956 -0.2244 -0.0926 -0.1508
  550POPC   C3B 6599  14.108  18.924  17.515 -0.0194 -0.1369  0.1875
  550POPC   C4B 6600  14.001  18.862  17.034  0.6024  0.1851 -0.0766
  551POPC   NC3 6601   2.947   1.090  19.386  0.3099  0.1088 -0.1243
  551POPC   PO4 6602   3.181   0.773  19.332 -0.2266  0.2359  0.2587
  551POPC   GL1 6603   2.947   0.910  18.975  0.1489  0.3853 -0.2663
  551POPC   GL2 6604   3.187   0.787  18.836  0.0325 -0.4404  0.0250
  551POPC   C1A 6605   2.721   0.583  18.764 -0.3229  0.0812 -0.0115
  551POPC   D2A 6606   2.412   0.233  18.641 -0.2344  0.0849 -0.0722
  551POPC   C3A 6607   2.415   0.001  18.273 -0.1499  0.0091  0.1367
  551POPC   C4A 6608   2.343  -0.180  17.877 -0.2087 -0.1978  0.0396
  551POPC   C1B 6609   3.158   0.646  18.480 -0.0876 -0.2571  0.0204
  551POPC   C2B 6610   2.753   0.609  18.241 -0.0907 -0.0160 -0.2717
  551POPC   C3B 6611   2.571   0.875  17.927  0.1522  0.3002  0.3155
  551POPC   C4B 6612   2.741   1.203  17.688 -0.0838  0.1164  0.2300
  552POPC   NC3 6613  12.391  17.494  19.371  0.0039  0.0914  0.0835
  552POPC   PO4 6614  12.342  17.518  19.014 -0.0193  0.1197  0.2484
  552POPC   GL1 6615  12.231  17.611  18.535 -0.2088 -0.1738 -0.4460
  552POPC   GL2 6616  12.358  17.820  18.373 -0.0712 -0.2282 -0.3165
  552POPC   C1A 6617  12.269  17.187  18.295 -0.1107 -0.0539  0.0070
  552POPC   D2A 6618  12.394  16.836  18.059 -0.0495  0.0678 -0.0574
  552POPC   C3A 6619  12.151  16.849  17.661  0.1231 -0.0626  0.0963
  552POPC   C4A 6620  12.039  16.708  17.200  0.1850  0.0784 -0.1300
  552POPC   C1B 6621  12.568  17.997  18.007 -0.2748 -0.0343 -0.0124
  552POPC   C2B 6622  12.709  17.920  17.551 -0.2706  0.0811  0.2481
  552POPC   C3B 6623  12.652  17.869  17.101 -0.5768 -0.1940  0.1050
  552POPC   C4B 6624  12.841  17.819  16.655 -0.0915  0.0339  0.1277
  553POPC   NC3 6625   8.212  11.460  19.312  0.0259  0.0417  0.3388
  553POPC   PO4 6626   8.575  11.600  19.302  0.1721  0.0192  0.3335
  553POPC   GL1 6627   8.867  11.485  18.999  0.0724 -0.1770  0.0234
  553POPC   GL2 6628   8.799  11.224  18.896  0.3168  0.2918 -0.1269
  553POPC   C1A 6629   8.900  11.712  18.630  0.0788  0.0786 -0.0283
  553POPC   D2A 6630   9.095  11.939  18.270  0.0980 -0.0527  0.1065
  553POPC   C3A 6631   9.536  11.877  18.070  0.2968  0.1311 -0.2471
  553POPC   C4A 6632   9.727  11.907  17.613  0.3200 -0.1781 -0.2661
  553POPC   C1B 6633   8.969  11.177  18.460 -0.0785  0.5994  0.2007
  553POPC   C2B 6634   8.715  11.033  18.060 -0.3579  0.0319 -0.2411
  553POPC   C3B 6635   8.948  10.776  17.706 -0.2109  0.1276 -0.0332
  553POPC   C4B 6636   8.811  10.641  17.274 -0.1826  0.2835 -0.0628
  554POPC   NC3 6637  24.545  13.902  19.467  0.3162  0.0119 -0.1604
  554POPC   PO4 6638  24.835  14.140  19.421  0.4719  0.1381 -0.0648
  554POPC   GL1 6639  24.760  13.982  19.078  0.0471  0.2893 -0.2121
  554POPC   GL2 6640  24.689  13.757  18.987  0.0334 -0.2549  0.0797
  554POPC   C1A 6641  24.791  14.083  18.609  0.0304 -0.1546 -0.3199
  554POPC   D2A 6642  24.872  14.096  18.118  0.3892 -0.1661 -0.3280
  554POPC   C3A 6643  24.773  13.706  17.856  0.0816  0.2042 -0.2264
  554POPC   C4A 6644  24.902  13.303  17.855  0.0131 -0.0209 -0.0513
  554POPC   C1B 6645  24.640  13.418  18.654  0.3682 -0.2749 -0.2892
  554POPC   C2B 6646  24.234  13.221  18.451  0.2326 -0.1634  0.0435
  554POPC   C3B 6647  23.995  13.262  18.043  0.3470 -0.3925 -0.0336
  554POPC   C4B 6648  23.659  13.470  17.787  0.0658 -0.0212 -0.1234
  555POPC   NC3 6649  31.437   8.596  19.569 -0.0629 -0.1632 -0.3382
  555POPC   PO4 6650  31.099   8.389  19.464 -0.2052  0.1919  0.0513
  555POPC   GL1 6651  31.295   8.412  19.135  0.0384  0.5571 -0.2887
  555POPC   GL2 6652  31.575   8.475  19.107 -0.0594 -0.0198  0.2744
  555POPC   C1A 6653  31.150   8.325  18.689  0.0021  0.0739 -0.0741
  555POPC   D2A 6654  30.997   8.682  18.435 -0.4189  0.1298  0.1650
  555POPC   C3A 6655  30.961   8.731  17.939 -0.1878  0.0174 -0.0704
  555POPC   C4A 6656  30.797   9.034  17.662 -0.1133  0.2122  0.2254
  555POPC   C1B 6657  31.495   8.706  18.714 -0.1791 -0.1332 -0.0555
  555POPC   C2B 6658  31.420   8.904  18.262  0.1654 -0.4716  0.0889
  555POPC   C3B 6659  31.383   8.906  17.825  0.1083  0.0493  0.0911
  555POPC   C4B 6660  31.647   8.935  17.468  0.0391 -0.0335  0.1630
  556POPC   NC3 6661   5.916  21.338  19.894 -0.0522  0.2528  0.3142
  556POPC   PO4 6662   5.959  21.155  19.555 -0.0399  0.1465  0.3274
  556POPC   GL1 6663   5.885  21.446  19.418 -0.2049  0.1447  0.0462
  556POPC   GL2 6664   5.972  21.670  19.502 -0.1871  0.1087  0.2542
  556POPC   C1A 6665   5.993  21.547  18.958  0.0503  0.0077  0.1305
  556POPC   D2A 6666   6.299  21.870  18.785  0.4039 -0.0167 -0.3189
  556POPC   C3A 6667   6.480  21.839  18.415  0.2530 -0.3606  0.2508
  556POPC   C4A 6668   6.640  21.945  18.014 -0.1515  0.1887 -0.1098
  556POPC   C1B 6669   6.436  21.637  19.622  0.2221 -0.1144 -0.0308
  556POPC   C2B 6670   6.807  21.301  19.484  0.2398 -0.1523  0.0106
  556POPC   C3B 6671   7.155  21.049  19.297  0.1232 -0.3169  0.1320
  556POPC   C4B 6672   7.367  21.142  18.907  0.1489  0.0969 -0.3172
  557POPC   NC3 6673  14.131  21.237  19.256 -0.2028  0.1820  0.0698
  557POPC   PO4 6674  13.919  21.537  19.226  0.0506 -0.3215  0.0702
  557POPC   GL1 6675  13.974  21.589  18.848  0.2316 -0.0137  0.0450
  557POPC   GL2 6676  13.775  21.852  18.817  0.1697  0.1500 -0.0636
  557POPC   C1A 6677  13.875  21.610  18.336 -0.1103 -0.0432  0.0387
  557POPC   D2A 6678  13.775  21.558  17.882 -0.0418  0.1340  0.0789
  557POPC   C3A 6679  14.052  21.459  17.521  0.1660  0.1688 -0.2783
  557POPC   C4A 6680  14.125  21.017  17.348  0.0767  0.1385 -0.0084
  557POPC   C1B 6681  13.397  21.591  18.620  0.2459  0.0687  0.2256
  557POPC   C2B 6682  13.405  21.532  18.170 -0.0943 -0.0598  0.4047
  557POPC   C3B 6683  13.287  21.405  17.722  0.0289 -0.1962  0.3194
  557POPC   C4B 6684  13.108  21.118  17.426  0.2304 -0.1976 -0.0211
  558POPC   NC3 6685   7.145   9.821  18.871  0.2034  0.0569  0.4072
  558POPC   PO4 6686   7.462   9.653  18.776  0.0227 -0.5473  0.3620
  558POPC   GL1 6687   7.430   9.663  18.345  0.1546 -0.2954  0.6562
  558POPC   GL2 6688   7.121   9.823  18.347  0.1273 -0.1263  0.0870
  558POPC   C1A 6689   7.596   9.526  17.966 -0.1984 -0.1899 -0.0589
  558POPC   D2A 6690   7.802   9.303  17.576  0.3758  0.1704  0.0119
  558POPC   C3A 6691   7.438   9.033  17.322 -0.1768  0.2187  0.0476
  558POPC   C4A 6692   7.272   8.622  17.490 -0.1078 -0.2768 -0.1818
  558POPC   C1B 6693   7.285   9.960  17.917 -0.0468  0.2656 -0.0789
  558POPC   C2B 6694   7.546  10.025  17.534 -0.1732 -0.2079  0.2791
  558POPC   C3B 6695   7.932   9.782  17.395 -0.0680  0.0598 -0.2901
  558POPC   C4B 6696   8.190   9.439  17.252  0.0848 -0.1839  0.4006
  559POPC   NC3 6697   0.472   5.669  19.857  0.0847 -0.0768  0.2560
  559POPC   PO4 6698   0.361   6.024  20.045 -0.3389 -0.2158  0.0904
  559POPC   GL1 6699   0.636   6.040  19.722 -0.5328 -0.0734  0.0077
  559POPC   GL2 6700   0.861   6.259  19.757  0.1223 -0.1468 -0.0938
  559POPC   C1A 6701   0.973   5.761  19.568 -0.0005  0.0597  0.1618
  559POPC   D2A 6702   1.162   5.364  19.606  0.3118  0.0929  0.1799
  559POPC   C3A 6703   1.497   5.026  19.581  0.4607 -0.3045 -0.3943
  559POPC   C4A 6704   1.771   4.758  19.385  0.1536  0.1989  0.0339
  559POPC   C1B 6705   1.248   6.218  19.506 -0.0419  0.0445  0.0648
  559POPC   C2B 6706   1.576   6.085  19.215  0.0309  0.0384 -0.1634
  559POPC   C3B 6707   1.637   5.754  18.917  0.0724  0.3210 -0.1099
  559POPC   C4B 6708   1.490   5.642  18.482  0.0301 -0.0241 -0.0148
  560POPC   NC3 6709  12.309  28.615  19.471  0.0400  0.2389  0.0916
  560POPC   PO4 6710  12.087  28.885  19.275 -0.1382  0.1615 -0.0372
  560POPC   GL1 6711  12.187  29.017  18.969  0.2328 -0.1192  0.3956
  560POPC   GL2 6712  11.934  29.083  18.746 -0.0431 -0.3500 -0.0267
  560POPC   C1A 6713  12.498  29.195  18.671  0.2437 -0.0445 -0.0392
  560POPC   D2A 6714  12.909  29.147  18.390  0.2101  0.0001 -0.1838
  560POPC   C3A 6715  12.906  29.134  17.902  0.4004  0.0722  0.0669
  560POPC   C4A 6716  12.949  29.119  17.434  0.1207 -0.2488 -0.0539
  560POPC   C1B 6717  11.998  29.003  18.294 -0.0204  0.0375 -0.0177
  560POPC   C2B 6718  11.968  28.879  17.848 -0.1194  0.1136 -0.0305
  560POPC   C3B 6719  12.070  28.780  17.422 -0.0725  0.0938 -0.2268
  560POPC   C4B 6720  11.832  28.507  17.131  0.1243 -0.0455 -0.3759
  561POPC   NC3 6721  20.324  29.682  19.060 -0.0821  0.1516  0.1717
  561POPC   PO4 6722  19.964  29.704  19.138 -0.3278  0.3907 -0.1089
  561POPC   GL1 6723  19.852  29.830  18.802 -0.8597  0.3066 -0.0576
  561POPC   GL2 6724  20.082  29.867  18.662  0.2682  0.1688  0.0529
  561POPC   C1A 6725  19.764  29.657  18.340  0.1243  0.0052 -0.2200
  561POPC   D2A 6726  19.467  29.364  18.083  0.1909 -0.2548  0.0819
  561POPC   C3A 6727  19.809  29.329  17.727 -0.1243  0.4790 -0.0025
  561POPC   C4A 6728  19.835  29.337  17.287  0.1229  0.2588  0.1865
  561POPC   C1B 6729  20.568  29.745  18.632 -0.0671  0.0890  0.1540
  561POPC   C2B 6730  20.849  29.992  18.353 -0.1304  0.0771  0.1059
  561POPC   C3B 6731  21.212  29.824  18.126  0.0176 -0.2256 -0.1459
  561POPC   C4B 6732  21.366  29.767  17.718 -0.0650  0.1171 -0.1140
  562POPC   NC3 6733   1.640  17.244  19.318  0.1239 -0.1017 -0.0466
  562POPC   PO4 6734   1.892  16.998  19.291  0.0839  0.0896 -0.5069
  562POPC   GL1 6735   2.035  17.014  18.918 -0.1167 -0.2002 -0.4162
  562POPC   GL2 6736   2.327  16.870  18.779  0.0858 -0.2610 -0.0718
  562POPC   C1A 6737   1.817  16.980  18.504  0.0186  0.0887  0.2822
  562POPC   D2A 6738   1.597  16.975  18.052  0.0392 -0.1042  0.1161
  562POPC   C3A 6739   1.678  16.650  17.729  0.2978 -0.0342  0.1337
  562POPC   C4A 6740   1.795  16.200  17.586 -0.1163  0.1337  0.0127
  562POPC   C1B 6741   2.323  17.070  18.347 -0.1444 -0.0605 -0.0258
  562POPC   C2B 6742   2.433  17.069  17.901 -0.3605  0.1142  0.2387
  562POPC   C3B 6743   2.432  17.341  17.516  0.3902 -0.0686 -0.0946
  562POPC   C4B 6744   2.203  17.747  17.585 -0.1602 -0.2954  0.2338
  563POPC   NC3 6745   5.286  17.799  19.160 -0.4395  0.1826 -0.1270
  563POPC   PO4 6746   5.477  18.149  19.072 -0.0294  0.0250 -0.3333
  563POPC   GL1 6747   5.505  17.922  18.724  0.0053 -0.1573  0.0356
  563POPC   GL2 6748   5.599  17.644  18.717  0.0097 -0.0249  0.0390
  563POPC   C1A 6749   5.769  18.132  18.375  0.0599  0.1556 -0.2175
  563POPC   D2A 6750   5.966  18.465  18.071 -0.2380 -0.0829 -0.0544
  563POPC   C3A 6751   5.948  18.520  17.568  0.1462  0.0525 -0.0262
  563POPC   C4A 6752   5.590  18.432  17.225 -0.2823 -0.1563  0.0343
  563POPC   C1B 6753   5.799  17.635  18.323 -0.2606  0.0380 -0.0246
  563POPC   C2B 6754   5.996  17.257  18.064 -0.1838 -0.1189  0.3591
  563POPC   C3B 6755   6.317  17.157  17.719 -0.0734 -0.0374 -0.0480
  563POPC   C4B 6756   6.713  17.143  17.435  0.1830  0.1633  0.4670
  564POPC   NC3 6757  31.462   0.856  19.465 -0.4459  0.0106  0.3029
  564POPC   PO4 6758  31.207   1.077  19.627  0.1452 -0.1399 -0.2405
  564POPC   GL1 6759  31.307   1.283  19.266 -0.2241 -0.3695 -0.3064
  564POPC   GL2 6760  31.512   1.198  19.015 -0.0333  0.0403 -0.1671
  564POPC   C1A 6761  31.069   1.640  19.090  0.0148 -0.0982 -0.0218
  564POPC   D2A 6762  30.785   1.786  18.718  0.2443 -0.2201 -0.2207
  564POPC   C3A 6763  30.982   2.114  18.428 -0.1872  0.4203  0.0001
  564POPC   C4A 6764  30.957   2.178  17.993  0.0335 -0.0686  0.1737
  564POPC   C1B 6765  31.174   1.162  18.722 -0.3262 -0.0631  0.0728
  564POPC   C2B 6766  30.872   1.407  18.457  0.1046  0.0330  0.3224
  564POPC   C3B 6767  30.713   1.644  18.082  0.0947  0.0949 -0.0920
  564POPC   C4B 6768  30.692   1.808  17.623  0.1919  0.3325  0.1973
  565POPC   NC3 6769   5.819  20.690  19.619 -0.0179 -0.2749 -0.1585
  565POPC   PO4 6770   5.491  20.792  19.811 -0.0851  0.3780  0.2439
  565POPC   GL1 6771   5.480  21.200  19.619  0.1011 -0.0130 -0.0530
  565POPC   GL2 6772   5.502  21.080  19.359 -0.3332 -0.0773 -0.0459
  565POPC   C1A 6773   5.369  21.523  19.271  0.1590 -0.0250 -0.0934
  565POPC   D2A 6774   5.386  21.771  18.892 -0.1355  0.2707  0.0165
  565POPC   C3A 6775   5.787  21.803  18.588  0.1780 -0.0537 -0.2824
  565POPC   C4A 6776   5.968  21.781  18.186 -0.2801 -0.0351  0.0232
  565POPC   C1B 6777   5.661  21.143  18.859  0.1944  0.1828 -0.0346
  565POPC   C2B 6778   5.832  20.840  18.503 -0.2519 -0.2352  0.1347
  565POPC   C3B 6779   6.120  20.837  18.145 -0.2330  0.1354 -0.2200
  565POPC   C4B 6780   6.466  21.079  17.934 -0.2867  0.0967 -0.2009
  566POPC   NC3 6781  12.819  13.736  19.899 -0.0378  0.0752 -0.1666
  566POPC   PO4 6782  12.992  13.992  19.584 -0.1371 -0.0996 -0.1582
  566POPC   GL1 6783  13.050  14.115  19.175 -0.0350 -0.0892 -0.1680
  566POPC   GL2 6784  13.250  14.334  19.173 -0.0970 -0.0463 -0.3504
  566POPC   C1A 6785  12.828  14.368  18.933  0.0329 -0.0786  0.1352
  566POPC   D2A 6786  12.524  14.445  18.642 -0.2836  0.2476 -0.0941
  566POPC   C3A 6787  12.065  14.240  18.628  0.0547  0.0137 -0.0358
  566POPC   C4A 6788  11.882  14.071  18.231 -0.1934  0.4414 -0.0889
  566POPC   C1B 6789  13.328  14.081  18.779  0.0908  0.1776 -0.2280
  566POPC   C2B 6790  13.301  13.971  18.306 -0.0820 -0.0409  0.0288
  566POPC   C3B 6791  13.230  13.946  17.847  0.2153  0.3920  0.2157
  566POPC   C4B 6792  13.020  13.930  17.378 -0.2208 -0.0401 -0.0030
  567POPC   NC3 6793  10.996  28.884  19.562  0.1085  0.0241 -0.1282
  567POPC   PO4 6794  11.257  29.155  19.480  0.1405 -0.0407 -0.1578
  567POPC   GL1 6795  11.260  29.087  19.114 -0.3119  0.2524 -0.0297
  567POPC   GL2 6796  11.292  28.833  18.975  0.1167  0.0525  0.2956
  567POPC   C1A 6797  11.182  29.358  18.752 -0.3292 -0.0951 -0.1760
  567POPC   D2A 6798  11.337  29.490  18.306 -0.2556  0.2967 -0.2544
  567POPC   C3A 6799  11.484  29.582  17.871 -0.0188 -0.2887 -0.1466
  567POPC   C4A 6800  11.863  29.788  17.640 -0.1155 -0.1274  0.0328
  567POPC   C1B 6801  11.477  28.931  18.572 -0.2992 -0.0098 -0.0077
  567POPC   C2B 6802  11.559  29.131  18.087 -0.0569 -0.1780  0.1702
  567POPC   C3B 6803  11.589  29.166  17.588  0.1613  0.5493 -0.0490
  567POPC   C4B 6804  11.760  29.040  17.158 -0.3716 -0.0585 -0.1698
  568POPC   NC3 6805   1.520  16.650  19.259 -0.3479  0.0564  0.1594
  568POPC   PO4 6806   1.556  16.385  18.990 -0.3549 -0.0507 -0.1005
  568POPC   GL1 6807   1.517  16.345  18.648 -0.2748  0.5003 -0.4479
  568POPC   GL2 6808   1.288  16.259  18.527 -0.0049 -0.1608 -0.1290
  568POPC   C1A 6809   1.755  16.515  18.241  0.1504  0.2497 -0.2334
  568POPC   D2A 6810   2.106  16.757  18.057  0.1165 -0.1117  0.2260
  568POPC   C3A 6811   2.041  16.945  17.585  0.3295  0.1236 -0.1714
  568POPC   C4A 6812   1.726  16.923  17.272 -0.1810 -0.2397  0.1762
  568POPC   C1B 6813   1.272  16.304  18.048 -0.2820 -0.2777 -0.1440
  568POPC   C2B 6814   1.239  16.209  17.603  0.0151  0.0425 -0.0392
  568POPC   C3B 6815   1.416  16.509  17.275 -0.1643  0.0370 -0.1018
  568POPC   C4B 6816   1.238  16.790  16.982  0.0130  0.0859 -0.0677
  569POPC   NC3 6817   9.314  25.606  19.123  0.0762  0.1214  0.2212
  569POPC   PO4 6818   8.981  25.649  19.312  0.2482  0.2275 -0.0002
  569POPC   GL1 6819   8.796  25.580  18.970 -0.1250  0.2645  0.2283
  569POPC   GL2 6820   8.969  25.676  18.803 -0.0213  0.0909 -0.0459
  569POPC   C1A 6821   8.527  25.764  18.654 -0.1662 -0.1740  0.1913
  569POPC   D2A 6822   8.587  25.900  18.242  0.1461  0.2860  0.0072
  569POPC   C3A 6823   8.194  25.952  18.009 -0.2741  0.1479 -0.2257
  569POPC   C4A 6824   7.999  25.897  17.588 -0.1973  0.1871 -0.1573
  569POPC   C1B 6825   9.346  25.616  18.570  0.1411 -0.2363  0.0173
  569POPC   C2B 6826   9.472  25.574  18.117  0.1528 -0.3127  0.0322
  569POPC   C3B 6827   9.576  25.630  17.636  0.0535 -0.0821  0.2568
  569POPC   C4B 6828   9.800  25.533  17.202 -0.3801 -0.0248 -0.2621
  570POPC   NC3 6829  15.391  25.987  19.455  0.1663 -0.3196 -0.1162
  570POPC   PO4 6830  15.377  25.640  19.285  0.0523  0.1533  0.0146
  570POPC   GL1 6831  15.428  25.742  18.892  0.1360  0.1081 -0.3592
  570POPC   GL2 6832  15.249  25.941  18.874  0.0692  0.2291 -0.1520
  570POPC   C1A 6833  15.528  25.728  18.429  0.1361 -0.1552  0.0310
  570POPC   D2A 6834  15.694  25.467  18.089 -0.0172 -0.0852  0.0626
  570POPC   C3A 6835  15.452  25.729  17.822  0.3297 -0.0769 -0.4542
  570POPC   C4A 6836  15.246  26.159  17.774 -0.2544 -0.0803  0.0711
  570POPC   C1B 6837  15.486  26.183  18.573  0.1011 -0.0177  0.1213
  570POPC   C2B 6838  15.590  26.225  18.122  0.0802  0.2186  0.1971
  570POPC   C3B 6839  15.754  26.184  17.702  0.0081 -0.0532  0.0833
  570POPC   C4B 6840  15.481  26.251  17.332  0.0865 -0.1574 -0.1102
  571POPC   NC3 6841  24.756  17.032  19.508  0.1100 -0.0264  0.2072
  571POPC   PO4 6842  25.006  16.791  19.268 -0.0669 -0.0100  0.1587
  571POPC   GL1 6843  24.712  16.953  19.051 -0.1068  0.3373  0.5093
  571POPC   GL2 6844  24.570  16.646  19.036 -0.3564 -0.1106 -0.3115
  571POPC   C1A 6845  24.641  17.000  18.595  0.0277 -0.0322  0.1253
  571POPC   D2A 6846  24.411  16.990  18.174  0.1902 -0.1255 -0.2831
  571POPC   C3A 6847  24.016  16.996  17.907 -0.0070 -0.0708  0.0505
  571POPC   C4A 6848  23.713  17.222  17.615  0.0458  0.0759 -0.0645
  571POPC   C1B 6849  24.214  16.891  18.898  0.2218  0.1214 -0.1970
  571POPC   C2B 6850  23.931  16.880  18.560 -0.0340  0.0311 -0.1178
  571POPC   C3B 6851  23.579  16.973  18.337 -0.4244 -0.1502  0.1489
  571POPC   C4B 6852  23.276  16.985  17.987 -0.2536  0.1152  0.1504
  572POPC   NC3 6853  23.778  23.042  19.215  0.1699 -0.2661  0.2077
  572POPC   PO4 6854  24.180  23.124  19.253  0.1602 -0.2190  0.4357
  572POPC   GL1 6855  24.292  23.118  18.845  0.1108 -0.0696  0.0762
  572POPC   GL2 6856  24.277  22.858  18.746  0.2982  0.3444  0.1554
  572POPC   C1A 6857  24.277  23.395  18.517  0.0240  0.2244 -0.1162
  572POPC   D2A 6858  24.321  23.590  18.088  0.0177  0.2118  0.3289
  572POPC   C3A 6859  24.430  23.438  17.668 -0.1195 -0.3688  0.1371
  572POPC   C4A 6860  24.492  23.375  17.202 -0.0872  0.1897  0.1778
  572POPC   C1B 6861  24.304  22.900  18.250  0.1142 -0.1059  0.0392
  572POPC   C2B 6862  24.546  23.054  17.949 -0.0273  0.3310  0.1015
  572POPC   C3B 6863  24.651  23.014  17.499  0.0479 -0.0318 -0.0369
  572POPC   C4B 6864  24.689  22.872  17.065  0.0614  0.2647 -0.4382
  573POPC   NC3 6865  27.002  10.906  19.067 -0.0747 -0.0559 -0.2230
  573POPC   PO4 6866  26.598  11.034  19.055 -0.4625  0.1676  0.0871
  573POPC   GL1 6867  26.645  11.236  18.706 -0.0419 -0.1317  0.1344
  573POPC   GL2 6868  26.775  10.993  18.585  0.4910 -0.2099  0.1785
  573POPC   C1A 6869  26.333  11.008  18.364  0.0714  0.0684 -0.0882
  573POPC   D2A 6870  26.056  11.146  18.044  0.0070  0.2365 -0.0948
  573POPC   C3A 6871  26.185  11.126  17.614 -0.0202 -0.0869  0.2280
  573POPC   C4A 6872  26.063  11.015  17.224 -0.1938  0.2808 -0.0158
  573POPC   C1B 6873  26.807  10.963  18.123  0.0993  0.0971 -0.2899
  573POPC   C2B 6874  26.647  11.071  17.708 -0.2252 -0.0967 -0.1870
  573POPC   C3B 6875  26.659  10.962  17.297  0.2218 -0.2268  0.0028
  573POPC   C4B 6876  26.984  11.010  16.999 -0.0720 -0.1060  0.1139
  574POPC   NC3 6877   3.740  13.234  19.600 -0.2511 -0.1265 -0.1779
  574POPC   PO4 6878   3.893  13.105  19.287  0.0962 -0.2214  0.3732
  574POPC   GL1 6879   3.999  13.050  18.936  0.0670 -0.0455 -0.2332
  574POPC   GL2 6880   3.968  13.220  18.738 -0.1278 -0.3383 -0.0182
  574POPC   C1A 6881   4.212  12.820  18.517 -0.2060 -0.1531 -0.3248
  574POPC   D2A 6882   4.198  12.773  18.023 -0.1141 -0.0152 -0.2559
  574POPC   C3A 6883   4.134  12.333  17.948 -0.3224  0.0336 -0.2237
  574POPC   C4A 6884   3.911  11.984  17.793 -0.1872  0.3362 -0.1389
  574POPC   C1B 6885   3.895  13.151  18.279 -0.1211  0.0797  0.2085
  574POPC   C2B 6886   3.895  13.165  17.852  0.2181 -0.2833 -0.3071
  574POPC   C3B 6887   3.960  13.014  17.422 -0.0168  0.3065  0.0059
  574POPC   C4B 6888   3.945  12.693  17.091 -0.0329  0.1070 -0.1740
  575POPC   NC3 6889  13.618  26.741  19.008 -0.0247 -0.0063  0.0595
  575POPC   PO4 6890  13.505  27.088  19.089  0.2882 -0.1262  0.0579
  575POPC   GL1 6891  13.298  27.020  18.815  0.0403 -0.2984 -0.2046
  575POPC   GL2 6892  13.072  27.153  18.734  0.1074  0.1001  0.1114
  575POPC   C1A 6893  13.386  26.754  18.473 -0.1546 -0.2198  0.1331
  575POPC   D2A 6894  13.458  26.727  18.028 -0.2591 -0.1623  0.2223
  575POPC   C3A 6895  13.427  26.357  17.757  0.0407  0.0687  0.0962
  575POPC   C4A 6896  13.362  26.184  17.356  0.1584  0.2646 -0.1227
  575POPC   C1B 6897  13.216  27.203  18.319  0.0616 -0.1237 -0.0892
  575POPC   C2B 6898  13.558  27.265  18.064 -0.0950  0.0333  0.0154
  575POPC   C3B 6899  13.672  27.006  17.659  0.1505 -0.1551 -0.1145
  575POPC   C4B 6900  13.638  26.662  17.397  0.1164 -0.0313  0.0939
  576POPC   NC3 6901   2.527  26.758  19.953  0.2576 -0.0092 -0.3174
  576POPC   PO4 6902   2.217  26.927  19.785 -0.0912  0.0309  0.2076
  576POPC   GL1 6903   2.217  26.980  19.423  0.0257 -0.1377  0.2965
  576POPC   GL2 6904   2.019  27.220  19.370  0.3472 -0.2167  0.0909
  576POPC   C1A 6905   2.282  27.166  19.007  0.1689  0.2226  0.1508
  576POPC   D2A 6906   2.498  27.049  18.644 -0.0334  0.2271 -0.0491
  576POPC   C3A 6907   2.569  26.677  18.362  0.1587  0.3143  0.0518
  576POPC   C4A 6908   2.291  26.516  17.986  0.0409 -0.0555  0.0417
  576POPC   C1B 6909   1.810  27.326  18.991 -0.4960  0.2516 -0.1468
  576POPC   C2B 6910   1.618  27.452  18.556  0.2234 -0.0758 -0.2041
  576POPC   C3B 6911   1.290  27.531  18.217 -0.1672 -0.1649 -0.0225
  576POPC   C4B 6912   1.372  27.672  17.762  0.0320 -0.2299  0.5465
  577POPC   NC3 6913  24.822  30.784  19.017  0.0082  0.1459  0.0337
  577POPC   PO4 6914  25.185  30.794  19.201 -0.0697  0.2169  0.0160
  577POPC   GL1 6915  25.348  30.622  18.848 -0.1268 -0.0653  0.3083
  577POPC   GL2 6916  25.128  30.380  18.764 -0.1760 -0.0492 -0.0860
  577POPC   C1A 6917  25.361  30.608  18.392 -0.2691 -0.3507 -0.0115
  577POPC   D2A 6918  25.583  30.427  18.045  0.0869 -0.3021  0.1430
  577POPC   C3A 6919  25.867  30.654  17.744  0.0226  0.1434  0.1090
  577POPC   C4A 6920  25.939  31.054  17.519 -0.1659 -0.1530 -0.0130
  577POPC   C1B 6921  24.732  30.426  18.526 -0.0293  0.0454 -0.0361
  577POPC   C2B 6922  24.364  30.253  18.358 -0.2329  0.0119 -0.0630
  577POPC   C3B 6923  24.186  30.093  17.940 -0.2044  0.2348 -0.0447
  577POPC   C4B 6924  23.934  29.926  17.558 -0.2829 -0.2093  0.3150
  578POPC   NC3 6925  15.041  18.841  19.476 -0.0010 -0.1245  0.1533
  578POPC   PO4 6926  15.401  19.078  19.361  0.2611  0.2513  0.1747
  578POPC   GL1 6927  15.446  19.145  18.915 -0.1924  0.2163 -0.0975
  578POPC   GL2 6928  15.414  19.469  18.845  0.1345  0.1274  0.3309
  578POPC   C1A 6929  15.297  18.960  18.552 -0.4118  0.1901  0.1807
  578POPC   D2A 6930  15.405  18.956  18.108 -0.3531 -0.2926  0.1689
  578POPC   C3A 6931  15.507  18.701  17.789 -0.0094 -0.2538  0.1133
  578POPC   C4A 6932  15.608  18.420  17.397 -0.0266 -0.1517  0.1922
  578POPC   C1B 6933  15.767  19.329  18.569 -0.1211  0.1918  0.3623
  578POPC   C2B 6934  16.164  19.230  18.343 -0.0726  0.5106  0.2169
  578POPC   C3B 6935  16.407  19.378  17.998  0.0758  0.3203  0.0952
  578POPC   C4B 6936  16.643  19.447  17.602  0.0076  0.1298 -0.1430
  579POPC   NC3 6937   7.887   9.385  19.070  0.3425 -0.1139  0.0908
  579POPC   PO4 6938   8.161   9.677  19.039 -0.2750 -0.1082 -0.0986
  579POPC   GL1 6939   8.267   9.649  18.675  0.4026  0.3144  0.0540
  579POPC   GL2 6940   7.962   9.584  18.543  0.2066  0.0945 -0.2040
  579POPC   C1A 6941   8.551   9.682  18.338  0.1485 -0.2286 -0.0155
  579POPC   D2A 6942   8.766   9.462  18.080 -0.2355  0.2129 -0.0473
  579POPC   C3A 6943   9.021   9.702  17.752 -0.0887 -0.0317 -0.0420
  579POPC   C4A 6944   9.459   9.617  17.588 -0.2220  0.0086  0.2769
  579POPC   C1B 6945   8.024   9.736  18.148 -0.0843 -0.1245 -0.1605
  579POPC   C2B 6946   8.299   9.710  17.765  0.2626 -0.1202  0.0536
  579POPC   C3B 6947   8.543   9.910  17.428 -0.0244 -0.1355 -0.0015
  579POPC   C4B 6948   8.535  10.222  17.125  0.0088  0.1814 -0.2075
  580POPC   NC3 6949   2.894   1.691  19.431  0.1527  0.1799  0.0723
  580POPC   PO4 6950   2.571   1.418  19.384 -0.1564 -0.0028  0.6288
  580POPC   GL1 6951   2.394   1.451  19.071 -0.1355 -0.2992  0.0727
  580POPC   GL2 6952   2.341   1.098  18.985 -0.2996 -0.2333  0.0219
  580POPC   C1A 6953   2.312   1.447  18.606 -0.1767  0.0303  0.1059
  580POPC   D2A 6954   2.397   1.261  18.161  0.0109 -0.1131 -0.2099
  580POPC   C3A 6955   2.190   1.191  17.760 -0.0141  0.2368  0.0936
  580POPC   C4A 6956   2.250   0.921  17.387  0.0369 -0.2602  0.0658
  580POPC   C1B 6957   2.348   0.923  18.545  0.2883  0.0954  0.4771
  580POPC   C2B 6958   2.216   0.522  18.328 -0.5190  0.1177  0.1544
  580POPC   C3B 6959   2.075   0.203  17.984  0.1967 -0.0191  0.2398
  580POPC   C4B 6960   1.945   0.031  17.592  0.0321  0.1546 -0.2167
  581POPC   NC3 6961  15.963  24.076  19.322  0.0329 -0.1573  0.0705
  581POPC   PO4 6962  15.978  24.469  19.295  0.0611 -0.2748  0.1579
  581POPC   GL1 6963  15.848  24.524  18.869  0.1057  0.0728  0.3536
  581POPC   GL2 6964  15.609  24.580  18.796  0.0804 -0.0390 -0.0472
  581POPC   C1A 6965  15.998  24.509  18.425 -0.0316 -0.1488  0.1017
  581POPC   D2A 6966  16.446  24.695  18.358  0.1446  0.0937  0.1496
  581POPC   C3A 6967  16.589  24.882  17.997  0.0251 -0.2804 -0.1383
  581POPC   C4A 6968  16.948  24.956  17.699 -0.1716  0.0690  0.0682
  581POPC   C1B 6969  15.530  24.800  18.398 -0.0596  0.0297  0.5034
  581POPC   C2B 6970  15.557  24.975  17.961 -0.1156 -0.1594  0.3032
  581POPC   C3B 6971  15.846  24.839  17.614 -0.1542  0.0029  0.0903
  581POPC   C4B 6972  16.309  24.868  17.598  0.0040  0.0105 -0.2706
  582POPC   NC3 6973   4.574  18.914  19.598 -0.3605 -0.0569  0.3734
  582POPC   PO4 6974   4.663  18.542  19.538  0.5161  0.3049  0.2750
  582POPC   GL1 6975   4.542  18.634  19.077  0.0473  0.2329  0.1313
  582POPC   GL2 6976   4.439  18.902  19.137 -0.0977 -0.1600  0.2616
  582POPC   C1A 6977   4.107  18.481  18.844  0.1564  0.1110 -0.0692
  582POPC   D2A 6978   3.705  18.651  18.642  0.0038 -0.2049 -0.1335
  582POPC   C3A 6979   3.858  18.673  18.193  0.2335 -0.2277 -0.0439
  582POPC   C4A 6980   3.788  18.588  17.763  0.0143 -0.1154 -0.0630
  582POPC   C1B 6981   4.269  19.018  18.769  0.0941  0.1058  0.1139
  582POPC   C2B 6982   4.243  19.102  18.309 -0.1533  0.0828 -0.0131
  582POPC   C3B 6983   4.020  19.148  17.904  0.3337  0.1555 -0.0894
  582POPC   C4B 6984   3.992  19.006  17.431 -0.3848  0.1480  0.1292
  583POPC   NC3 6985  12.139  14.998  19.410  0.2771 -0.1388  0.0111
  583POPC   PO4 6986  12.393  14.707  19.237  0.2468  0.0421 -0.4121
  583POPC   GL1 6987  12.308  14.982  18.896 -0.5711 -0.1556  0.1972
  583POPC   GL2 6988  12.584  14.920  18.782  0.2656  0.0320 -0.1860
  583POPC   C1A 6989  12.057  14.734  18.584  0.2596 -0.1061 -0.3162
  583POPC   D2A 6990  11.937  14.572  18.135  0.0260 -0.1702  0.4974
  583POPC   C3A 6991  12.195  14.475  17.714  0.2093  0.0943 -0.0627
  583POPC   C4A 6992  12.536  14.341  17.420  0.1857 -0.2776 -0.0262
  583POPC   C1B 6993  12.623  14.841  18.269 -0.0944 -0.0571 -0.0472
  583POPC   C2B 6994  12.684  14.664  17.831  0.0228 -0.3287  0.0674
  583POPC   C3B 6995  13.012  14.433  17.555 -0.0805  0.0706  0.3187
  583POPC   C4B 6996  13.465  14.409  17.545 -0.3048 -0.0348  0.1456
  584POPC   NC3 6997   6.748   6.910  18.852  0.0796 -0.0828  0.0982
  584POPC   PO4 6998   6.922   6.929  19.250 -0.2560 -0.0891  0.1293
  584POPC   GL1 6999   7.204   6.972  18.958 -0.0925  0.1907  0.0682
  584POPC   GL2 7000   7.214   6.712  18.773  0.3380  0.0478 -0.2034
  584POPC   C1A 7001   7.077   7.212  18.555 -0.0720 -0.1143  0.1913
  584POPC   D2A 7002   6.922   7.216  18.121  0.3046  0.0814  0.1556
  584POPC   C3A 7003   7.112   7.337  17.700 -0.0743  0.0864 -0.2337
  584POPC   C4A 7004   7.254   7.143  17.277 -0.1186  0.0594  0.0343
  584POPC   C1B 7005   7.413   6.839  18.378  0.1819  0.0435 -0.3757
  584POPC   C2B 7006   7.472   6.959  17.908 -0.4372 -0.0120  0.3709
  584POPC   C3B 7007   7.657   6.919  17.453 -0.0193 -0.3750 -0.2839
  584POPC   C4B 7008   7.664   6.650  17.121  0.0417 -0.2381 -0.1645
  585POPC   NC3 7009   2.483  25.477  19.720  0.0936 -0.1579 -0.1512
  585POPC   PO4 7010   2.449  25.155  19.502  0.0338 -0.2833  0.0332
  585POPC   GL1 7011   2.549  25.125  18.998  0.2042 -0.0630  0.3105
  585POPC   GL2 7012   2.327  25.118  18.946 -0.1453  0.0338 -0.1726
  585POPC   C1A 7013   2.883  25.258  18.736  0.2758 -0.0902 -0.1501
  585POPC   D2A 7014   3.135  25.453  18.405  0.0674 -0.0763  0.3321
  585POPC   C3A 7015   3.273  25.845  18.129  0.0297 -0.0281 -0.1152
  585POPC   C4A 7016   3.167  26.065  17.776  0.0263  0.3238 -0.3471
  585POPC   C1B 7017   2.082  25.148  18.543 -0.0386 -0.2010 -0.0742
  585POPC   C2B 7018   2.074  25.529  18.241  0.1434 -0.1851  0.0817
  585POPC   C3B 7019   2.319  25.696  17.872 -0.0507 -0.0871 -0.0170
  585POPC   C4B 7020   2.480  25.852  17.474  0.0976 -0.1619  0.3226
  586POPC   NC3 7021   7.430  26.656  19.317  0.1425 -0.1050  0.5196
  586POPC   PO4 7022   7.771  26.636  19.077  0.1194  0.0494 -0.0048
  586POPC   GL1 7023   7.861  26.530  18.613  0.3700 -0.0230 -0.1086
  586POPC   GL2 7024   7.630  26.546  18.485  0.1238 -0.1922  0.0307
  586POPC   C1A 7025   8.137  26.327  18.283  0.1784 -0.1662  0.0358
  586POPC   D2A 7026   8.394  26.428  17.870 -0.1519 -0.0968 -0.0387
  586POPC   C3A 7027   8.144  26.439  17.507 -0.2373  0.2321  0.0151
  586POPC   C4A 7028   8.062  26.625  17.133  0.0457 -0.0564  0.1938
  586POPC   C1B 7029   7.714  26.619  18.078  0.1972 -0.0401  0.1705
  586POPC   C2B 7030   7.657  26.430  17.657  0.0509 -0.1318 -0.1492
  586POPC   C3B 7031   7.599  26.231  17.195  0.1439  0.0408 -0.5451
  586POPC   C4B 7032   7.527  25.951  16.826  0.2774  0.0858  0.0304
  587POPC   NC3 7033  13.948  27.620  19.846 -0.0721  0.1335  0.3250
  587POPC   PO4 7034  13.840  27.826  19.514 -0.1146  0.1778  0.2658
  587POPC   GL1 7035  13.868  27.810  19.144  0.1872  0.0684  0.1505
  587POPC   GL2 7036  13.775  27.514  19.026  0.3226 -0.0511 -0.2257
  587POPC   C1A 7037  14.104  28.073  18.897  0.4365  0.1211 -0.0416
  587POPC   D2A 7038  14.338  28.348  18.673 -0.2514  0.0116  0.1570
  587POPC   C3A 7039  14.320  28.441  18.197  0.4659  0.0324 -0.1293
  587POPC   C4A 7040  14.141  28.405  17.747 -0.1033  0.1807 -0.3712
  587POPC   C1B 7041  13.763  27.794  18.658  0.0139  0.0125 -0.0224
  587POPC   C2B 7042  13.993  28.037  18.360  0.1924 -0.0557 -0.0798
  587POPC   C3B 7043  14.100  27.923  17.926 -0.1843  0.0523  0.3405
  587POPC   C4B 7044  14.274  27.858  17.519 -0.0760 -0.0501 -0.2308
  588POPC   NC3 7045  20.058  26.927  18.971  0.3613 -0.1647 -0.0610
  588POPC   PO4 7046  20.417  26.976  18.990 -0.0948 -0.2347  0.0342
  588POPC   GL1 7047  20.321  26.809  18.657 -0.1700 -0.2323 -0.1544
  588POPC   GL2 7048  20.232  27.016  18.489 -0.0354 -0.0487  0.3120
  588POPC   C1A 7049  20.647  26.533  18.403  0.0770  0.0226  0.0104
  588POPC   D2A 7050  20.820  26.448  17.937 -0.0951  0.1315 -0.1265
  588POPC   C3A 7051  20.701  26.604  17.481 -0.1537 -0.1252  0.4450
  588POPC   C4A 7052  20.637  27.033  17.305 -0.0104 -0.0500 -0.1179
  588POPC   C1B 7053  20.245  26.948  18.045  0.3778  0.0100  0.0505
  588POPC   C2B 7054  20.037  26.871  17.637 -0.0494  0.1588  0.3196
  588POPC   C3B 7055  19.705  26.742  17.393 -0.0261 -0.3352 -0.3753
  588POPC   C4B 7056  19.417  26.614  17.130  0.0726 -0.1094  0.0453
  589POPC   NC3 7057  12.214  24.024  19.061  0.1881 -0.1519  0.4545
  589POPC   PO4 7058  11.860  23.835  18.940 -0.2363 -0.2302 -0.2694
  589POPC   GL1 7059  11.681  23.854  18.516  0.4228 -0.3487 -0.1516
  589POPC   GL2 7060  11.920  23.773  18.302 -0.1384 -0.0216 -0.2065
  589POPC   C1A 7061  11.305  23.956  18.239  0.1337 -0.0058 -0.1504
  589POPC   D2A 7062  11.003  23.758  17.983 -0.2079  0.1604  0.0063
  589POPC   C3A 7063  10.978  23.797  17.564  0.3816 -0.0915  0.1211
  589POPC   C4A 7064  10.835  23.605  17.172 -0.1155 -0.0878  0.0280
  589POPC   C1B 7065  11.962  23.879  17.816  0.4632 -0.1836 -0.2220
  589POPC   C2B 7066  12.070  24.154  17.486  0.0689  0.0227 -0.2804
  589POPC   C3B 7067  12.109  24.619  17.423 -0.0292  0.2326 -0.3464
  589POPC   C4B 7068  12.104  25.067  17.537 -0.0315  0.0133 -0.0902
  590POPC   NC3 7069  17.532  14.802  19.544 -0.3778  0.0475  0.2005
  590POPC   PO4 7070  17.887  14.772  19.355 -0.2402  0.2847  0.1852
  590POPC   GL1 7071  17.769  14.973  19.030 -0.1568 -0.3822  0.0182
  590POPC   GL2 7072  17.879  15.197  18.929  0.0973 -0.0108 -0.2922
  590POPC   C1A 7073  17.570  14.905  18.630  0.2445  0.2665  0.0092
  590POPC   D2A 7074  17.288  14.988  18.360 -0.1634 -0.2048 -0.0352
  590POPC   C3A 7075  17.081  14.948  17.943 -0.1256  0.0407 -0.1404
  590POPC   C4A 7076  17.006  14.986  17.480  0.3519 -0.0196 -0.4318
  590POPC   C1B 7077  17.856  15.302  18.479  0.1496  0.1960  0.3110
  590POPC   C2B 7078  17.641  15.221  18.076 -0.1056 -0.3077 -0.2816
  590POPC   C3B 7079  17.563  15.168  17.630 -0.0154  0.1607  0.1210
  590POPC   C4B 7080  17.850  14.973  17.290 -0.1323 -0.3530 -0.1650
  591POPC   NC3 7081  14.916   4.119  19.556  0.1015  0.2342 -0.0427
  591POPC   PO4 7082  14.515   4.164  19.611  0.0700 -0.1932 -0.0924
  591POPC   GL1 7083  14.597   4.297  19.269 -0.2256  0.2658  0.1043
  591POPC   GL2 7084  14.693   4.024  19.109  0.1485 -0.0385 -0.0404
  591POPC   C1A 7085  14.581   4.580  18.882  0.1861  0.0521  0.0500
  591POPC   D2A 7086  14.761   4.903  18.623 -0.1071 -0.0284 -0.2453
  591POPC   C3A 7087  14.844   4.997  18.193 -0.1834  0.4350 -0.3859
  591POPC   C4A 7088  14.965   4.977  17.749 -0.0316 -0.1819 -0.0410
  591POPC   C1B 7089  14.310   3.989  18.865 -0.1198  0.2051 -0.0188
  591POPC   C2B 7090  14.075   3.827  18.530 -0.2663  0.0609  0.0693
  591POPC   C3B 7091  13.906   3.778  18.103  0.3278 -0.0547  0.1766
  591POPC   C4B 7092  13.745   3.990  17.661  0.0929  0.2231 -0.0081
  592POPC   NC3 7093  25.995  28.354  19.445  0.2377  0.1914  0.1348
  592POPC   PO4 7094  25.635  28.379  19.353 -0.2424 -0.0690  0.0873
  592POPC   GL1 7095  25.686  28.382  18.927  0.1712 -0.4029  0.2314
  592POPC   GL2 7096  25.941  28.201  18.972 -0.0365 -0.1430  0.0729
  592POPC   C1A 7097  25.799  28.561  18.530 -0.0993 -0.2564 -0.1020
  592POPC   D2A 7098  25.840  28.677  18.109  0.1051 -0.4011 -0.3227
  592POPC   C3A 7099  25.511  28.449  17.858 -0.2340 -0.2400  0.0371
  592POPC   C4A 7100  25.383  28.462  17.423  0.1262  0.0837 -0.0174
  592POPC   C1B 7101  25.909  28.020  18.578 -0.0070 -0.1516 -0.1559
  592POPC   C2B 7102  26.092  28.231  18.235  0.0822 -0.0245 -0.0884
  592POPC   C3B 7103  25.977  28.259  17.824 -0.1205 -0.0795  0.2015
  592POPC   C4B 7104  25.950  28.461  17.381  0.3375  0.0023 -0.4044
  593POPC   NC3 7105  17.675  12.768  19.557 -0.0278  0.3240  0.0645
  593POPC   PO4 7106  17.775  12.882  19.181  0.2555 -0.0173  0.0870
  593POPC   GL1 7107  17.800  12.931  18.807 -0.1888 -0.3247  0.1349
  593POPC   GL2 7108  17.501  12.915  18.780  0.2141 -0.0013  0.0446
  593POPC   C1A 7109  17.996  13.215  18.584  0.0995 -0.2899 -0.0530
  593POPC   D2A 7110  18.404  13.370  18.491 -0.5218 -0.1332 -0.3537
  593POPC   C3A 7111  18.516  13.465  18.022 -0.1430  0.1885 -0.2216
  593POPC   C4A 7112  18.294  13.518  17.631 -0.0817 -0.2560 -0.2904
  593POPC   C1B 7113  17.411  13.131  18.359 -0.0001  0.0954 -0.0851
  593POPC   C2B 7114  17.482  13.280  17.902  0.1298  0.3043  0.2039
  593POPC   C3B 7115  17.243  13.611  17.683 -0.0869  0.2815  0.1690
  593POPC   C4B 7116  17.083  13.999  17.730 -0.1637 -0.0545 -0.2426
  594POPC   NC3 7117  22.180   7.792  19.593  0.0623 -0.3733  0.3165
  594POPC   PO4 7118  22.490   7.950  19.462 -0.0785 -0.3119 -0.0364
  594POPC   GL1 7119  22.361   7.816  19.129  0.3031 -0.4327  0.2926
  594POPC   GL2 7120  22.078   7.910  19.066  0.0180  0.0088  0.0756
  594POPC   C1A 7121  22.646   7.691  18.764 -0.2316  0.0641 -0.0134
  594POPC   D2A 7122  22.868   7.592  18.422 -0.2485 -0.1300  0.2342
  594POPC   C3A 7123  22.786   7.695  17.959 -0.2235  0.2424  0.1569
  594POPC   C4A 7124  22.828   7.515  17.548  0.1348 -0.0388 -0.1558
  594POPC   C1B 7125  22.270   7.955  18.649  0.1969  0.2165 -0.1602
  594POPC   C2B 7126  22.611   8.085  18.314 -0.4239 -0.1027  0.0585
  594POPC   C3B 7127  22.675   8.199  17.835  0.1032 -0.1152  0.1851
  594POPC   C4B 7128  22.888   8.045  17.422 -0.0306 -0.2250 -0.0043
  595POPC   NC3 7129  29.931  22.838  19.188 -0.2107 -0.0994  0.1830
  595POPC   PO4 7130  29.595  22.644  19.124  0.2088  0.1259  0.2525
  595POPC   GL1 7131  29.730  22.459  18.823  0.2036 -0.4773 -0.2022
  595POPC   GL2 7132  29.470  22.478  18.650  0.1794 -0.1019  0.1001
  595POPC   C1A 7133  29.849  22.513  18.345 -0.4964 -0.0144 -0.2358
  595POPC   D2A 7134  29.906  22.579  17.910 -0.2298  0.1800 -0.2021
  595POPC   C3A 7135  30.323  22.684  17.772  0.0170 -0.1277 -0.1356
  595POPC   C4A 7136  30.489  22.905  17.463  0.0708 -0.0675  0.3387
  595POPC   C1B 7137  29.306  22.678  18.280 -0.1168 -0.2431  0.1470
  595POPC   C2B 7138  28.990  22.586  17.961  0.2445  0.0572  0.0356
  595POPC   C3B 7139  28.926  22.376  17.520  0.1699 -0.3400 -0.0655
  595POPC   C4B 7140  28.740  22.194  17.147  0.3127  0.0208 -0.2789
  596POPC   NC3 7141  26.050   2.466  19.415  0.0108  0.0145  0.1178
  596POPC   PO4 7142  25.692   2.501  19.452 -0.0669 -0.1140 -0.1793
  596POPC   GL1 7143  25.633   2.466  19.075 -0.0520 -0.0101  0.0955
  596POPC   GL2 7144  25.793   2.244  18.984  0.1258 -0.2497  0.1881
  596POPC   C1A 7145  25.799   2.693  18.717  0.0387 -0.3326 -0.0653
  596POPC   D2A 7146  25.814   3.079  18.406 -0.1697 -0.2812  0.0456
  596POPC   C3A 7147  25.906   3.031  17.924 -0.0980  0.4073 -0.1550
  596POPC   C4A 7148  25.765   3.305  17.609  0.0507  0.1574  0.1365
  596POPC   C1B 7149  25.696   2.155  18.519  0.2493 -0.2000 -0.3722
  596POPC   C2B 7150  25.651   2.015  18.093 -0.1909  0.0809  0.1122
  596POPC   C3B 7151  25.762   1.820  17.703 -0.0879  0.0929  0.1414
  596POPC   C4B 7152  25.801   1.673  17.287 -0.1901  0.2559 -0.2244
  597POPC   NC3 7153  14.123  14.527  19.175  0.0739  0.0599  0.0939
  597POPC   PO4 7154  14.146  14.696  19.545  0.2467 -0.1434 -0.0680
  597POPC   GL1 7155  14.040  15.001  19.411  0.0922  0.1413  0.2407
  597POPC   GL2 7156  14.307  15.095  19.224 -0.0834  0.1939 -0.1042
  597POPC   C1A 7157  13.875  14.902  18.972  0.0481  0.1828  0.2254
  597POPC   D2A 7158  13.633  14.523  18.879 -0.0497  0.0294 -0.1437
  597POPC   C3A 7159  13.685  14.244  18.489 -0.2604  0.1278 -0.3606
  597POPC   C4A 7160  13.812  14.010  18.115 -0.0699  0.5575  0.0677
  597POPC   C1B 7161  14.426  14.892  18.824 -0.1007  0.0927 -0.1904
  597POPC   C2B 7162  14.636  14.708  18.440  0.0399  0.2368  0.0906
  597POPC   C3B 7163  14.590  14.622  17.996  0.0734  0.1155  0.0365
  597POPC   C4B 7164  14.576  14.309  17.670  0.0112  0.0704  0.0320
  598POPC   NC3 7165  25.103  10.598  18.900 -0.2758  0.0226  0.3415
  598POPC   PO4 7166  25.399  10.504  19.137 -0.0075 -0.1059  0.4718
  598POPC   GL1 7167  25.514  10.140  19.020  0.0934 -0.1644 -0.2409
  598POPC   GL2 7168  25.712   9.828  19.031  0.0181  0.6492 -0.2364
  598POPC   C1A 7169  25.370  10.005  18.596  0.1759 -0.0592 -0.0604
  598POPC   D2A 7170  25.236  10.027  18.160 -0.1770 -0.3501 -0.0113
  598POPC   C3A 7171  25.450  10.046  17.781  0.0535 -0.2861  0.0016
  598POPC   C4A 7172  25.237  10.195  17.374  0.0500 -0.2997  0.2038
  598POPC   C1B 7173  25.868   9.852  18.628  0.1122  0.1917  0.0391
  598POPC   C2B 7174  25.757  10.040  18.239 -0.2096  0.0577 -0.0379
  598POPC   C3B 7175  25.851  10.381  17.988  0.1850 -0.0788 -0.0455
  598POPC   C4B 7176  25.800  10.786  17.815 -0.0371 -0.0928 -0.0392
  599POPC   NC3 7177   0.345  27.193  19.943 -0.0592 -0.1215  0.0788
  599POPC   PO4 7178   0.168  27.112  19.609 -0.0927 -0.1271 -0.1089
  599POPC   GL1 7179   0.114  27.051  19.193 -0.0699  0.3212 -0.2323
  599POPC   GL2 7180  -0.204  26.975  19.311  0.0322  0.0820  0.1345
  599POPC   C1A 7181   0.186  26.615  19.004 -0.0040 -0.3318  0.1050
  599POPC   D2A 7182   0.053  26.379  18.641 -0.0771 -0.1282  0.1245
  599POPC   C3A 7183   0.404  26.155  18.413  0.3341 -0.2817 -0.1212
  599POPC   C4A 7184   0.869  26.289  18.424 -0.0208  0.0371  0.0301
  599POPC   C1B 7185  -0.179  26.959  18.862  0.1346 -0.0146 -0.3786
  599POPC   C2B 7186   0.163  26.886  18.518  0.1224  0.2788 -0.1702
  599POPC   C3B 7187   0.429  26.669  18.228 -0.1778 -0.3089  0.0145
  599POPC   C4B 7188   0.632  26.334  17.919 -0.0549 -0.0606 -0.1556
  600POPC   NC3 7189  21.039  17.703  18.840 -0.1326 -0.1468  0.4022
  600POPC   PO4 7190  20.927  17.648  18.481 -0.1985 -0.1797  0.3561
  600POPC   GL1 7191  21.087  17.992  18.512 -0.0772 -0.3368 -0.0184
  600POPC   GL2 7192  21.365  17.895  18.314  0.2030 -0.0273 -0.0730
  600POPC   C1A 7193  21.228  18.385  18.293 -0.0194 -0.0615 -0.2998
  600POPC   D2A 7194  21.247  18.764  17.968 -0.6372  0.1180  0.0201
  600POPC   C3A 7195  21.580  18.600  17.676 -0.0694 -0.2193  0.0048
  600POPC   C4A 7196  22.013  18.531  17.647 -0.2100 -0.2824 -0.2744
  600POPC   C1B 7197  21.356  18.031  17.918  0.2970 -0.0480 -0.0231
  600POPC   C2B 7198  21.580  18.133  17.529  0.2144  0.1983 -0.1713
  600POPC   C3B 7199  22.042  18.081  17.389  0.0850  0.0989  0.4280
  600POPC   C4B 7200  22.189  18.041  16.963 -0.0912 -0.2400  0.0325
  601POPC   NC3 7201  20.008  16.925  19.221 -0.2401  0.1436  0.0093
  601POPC   PO4 7202  20.103  17.139  18.915 -0.1439 -0.0881 -0.1260
  601POPC   GL1 7203  20.022  17.140  18.553  0.2277  0.2222  0.3308
  601POPC   GL2 7204  20.128  17.405  18.487  0.0537 -0.1289 -0.0703
  601POPC   C1A 7205  20.160  17.026  18.109 -0.1390  0.0547 -0.0632
  601POPC   D2A 7206  20.344  17.291  17.768 -0.1194  0.0043 -0.0127
  601POPC   C3A 7207  20.288  17.354  17.348 -0.1761  0.2010  0.0236
  601POPC   C4A 7208  20.169  17.467  16.903  0.0670  0.1746  0.0548
  601POPC   C1B 7209  20.041  17.575  18.060 -0.0527  0.1848 -0.0480
  601POPC   C2B 7210  19.766  17.678  17.683  0.2704 -0.0120 -0.1614
  601POPC   C3B 7211  19.487  17.883  17.366  0.1644  0.0625  0.0695
  601POPC   C4B 7212  19.661  18.271  17.153 -0.1238  0.1389 -0.0202
  602POPC   NC3 7213  25.063  22.438  19.566  0.2886  0.0940  0.0876
  602POPC   PO4 7214  25.390  22.599  19.409 -0.0820  0.1753 -0.1409
  602POPC   GL1 7215  25.517  22.655  19.046  0.2237 -0.1508  0.5027
  602POPC   GL2 7216  25.331  22.507  18.886  0.0768 -0.1945 -0.1877
  602POPC   C1A 7217  25.498  22.941  18.711  0.1120 -0.0618  0.1072
  602POPC   D2A 7218  25.639  23.331  18.468 -0.0580  0.0599 -0.1003
  602POPC   C3A 7219  25.431  23.414  18.043  0.0822  0.1978  0.1252
  602POPC   C4A 7220  25.345  23.301  17.578 -0.0017 -0.0038  0.1007
  602POPC   C1B 7221  25.274  22.482  18.422 -0.0610 -0.0608 -0.3033
  602POPC   C2B 7222  25.188  22.383  18.004  0.0390 -0.0558  0.0360
  602POPC   C3B 7223  25.214  22.307  17.574  0.0104  0.0411  0.0761
  602POPC   C4B 7224  25.502  22.245  17.137 -0.0460  0.0853 -0.1402
  603POPC   NC3 7225  26.821   9.878  19.245 -0.1811  0.1896 -0.0176
  603POPC   PO4 7226  26.992   9.607  19.514 -0.1324 -0.2400  0.0030
  603POPC   GL1 7227  27.327   9.698  19.264 -0.1283 -0.1198 -0.0704
  603POPC   GL2 7228  27.311   9.843  19.026 -0.1449  0.1058  0.2467
  603POPC   C1A 7229  27.438   9.302  19.031  0.1840 -0.0842  0.0084
  603POPC   D2A 7230  27.296   8.987  18.688 -0.2139  0.1329 -0.0525
  603POPC   C3A 7231  27.416   9.146  18.269  0.0622  0.0638  0.2664
  603POPC   C4A 7232  27.508   9.278  17.805 -0.2863  0.2826  0.0161
  603POPC   C1B 7233  27.330   9.582  18.633  0.2661 -0.0573 -0.1708
  603POPC   C2B 7234  27.504   9.618  18.250 -0.0941 -0.1581  0.3624
  603POPC   C3B 7235  27.601   9.741  17.838 -0.2853 -0.1824  0.0805
  603POPC   C4B 7236  27.592   9.812  17.454 -0.3318  0.0759  0.0023
  604POPC   NC3 7237  23.668  20.121  19.899 -0.1175  0.2494  0.0808
  604POPC   PO4 7238  23.310  20.183  19.882 -0.1483 -0.0910 -0.2565
  604POPC   GL1 7239  22.936  20.181  19.903  0.0505 -0.1413 -0.1853
  604POPC   GL2 7240  22.900  20.185  19.557 -0.0477  0.2398  0.2908
  604POPC   C1A 7241  22.522  20.012  19.973  0.1844  0.0159  0.0914
  604POPC   D2A 7242  22.065  19.953  20.019  0.2203 -0.1971 -0.4027
  604POPC   C3A 7243  21.879  19.760  20.389 -0.1957 -0.1634 -0.2920
  604POPC   C4A 7244  21.921  19.632  20.840  0.0316 -0.0309  0.0283
  604POPC   C1B 7245  22.888  19.689  19.601 -0.0729  0.1075  0.0746
  604POPC   C2B 7246  22.758  19.244  19.504  0.2156 -0.0311  0.0899
  604POPC   C3B 7247  22.554  18.915  19.699  0.0893  0.0149 -0.3049
  604POPC   C4B 7248  22.294  19.002  20.030  0.4323 -0.0856 -0.0880
  605POPC   NC3 7249   3.353  15.811  19.523  0.0900 -0.0828  0.2225
  605POPC   PO4 7250   3.410  15.741  19.163 -0.0837 -0.0307  0.1150
  605POPC   GL1 7251   3.406  15.730  18.766  0.1818  0.2579  0.0289
  605POPC   GL2 7252   3.337  15.993  18.667  0.2736 -0.2168 -0.0158
  605POPC   C1A 7253   3.303  15.554  18.335  0.0067 -0.1676 -0.0955
  605POPC   D2A 7254   2.971  15.274  18.196 -0.0317  0.0997 -0.0821
  605POPC   C3A 7255   2.774  15.056  17.815  0.0555 -0.1767 -0.0240
  605POPC   C4A 7256   2.507  14.807  17.498 -0.0859 -0.0114 -0.2746
  605POPC   C1B 7257   3.552  16.052  18.271  0.2380 -0.0638 -0.0163
  605POPC   C2B 7258   3.591  15.925  17.841  0.1775 -0.3258  0.0721
  605POPC   C3B 7259   3.818  15.860  17.480  0.0965 -0.0597 -0.2316
  605POPC   C4B 7260   4.022  16.120  17.128  0.4041 -0.0660  0.0159
  606POPC   NC3 7261   8.159   7.894  19.240  0.1610  0.0572 -0.0238
  606POPC   PO4 7262   8.170   7.521  19.292  0.2592 -0.2602  0.1623
  606POPC   GL1 7263   8.308   7.538  18.928 -0.0959  0.3114 -0.1396
  606POPC   GL2 7264   8.592   7.418  18.843 -0.3556 -0.1704 -0.0276
  606POPC   C1A 7265   8.253   7.345  18.502  0.0141 -0.1350  0.1143
  606POPC   D2A 7266   8.322   7.146  18.068  0.1288  0.0652 -0.2062
  606POPC   C3A 7267   8.105   6.978  17.757  0.2648  0.2343 -0.2253
  606POPC   C4A 7268   8.087   6.706  17.370 -0.0780 -0.1951  0.0819
  606POPC   C1B 7269   8.752   7.472  18.369  0.2654 -0.1473  0.0309
  606POPC   C2B 7270   8.932   7.534  17.957 -0.3557 -0.0159 -0.2596
  606POPC   C3B 7271   9.193   7.645  17.545  0.0936  0.1292  0.1336
  606POPC   C4B 7272   9.589   7.633  17.359 -0.0178  0.1338 -0.0992
  607POPC   NC3 7273   2.879  19.794  19.102  0.1241  0.2867  0.0939
  607POPC   PO4 7274   3.262  19.842  19.026  0.0025  0.1301 -0.1834
  607POPC   GL1 7275   3.234  20.153  18.695 -0.0524  0.4792  0.0856
  607POPC   GL2 7276   2.920  20.008  18.662  0.0576 -0.0235  0.1813
  607POPC   C1A 7277   3.171  20.152  18.243  0.1401  0.0082  0.2470
  607POPC   D2A 7278   3.430  19.976  17.922 -0.0371  0.1486  0.2326
  607POPC   C3A 7279   3.597  19.799  17.514 -0.0031  0.2608 -0.2953
  607POPC   C4A 7280   3.753  19.840  17.093 -0.0431  0.1322  0.1516
  607POPC   C1B 7281   2.931  19.753  18.318  0.0642  0.3804 -0.1667
  607POPC   C2B 7282   2.980  19.885  17.887 -0.1225  0.1797  0.3555
  607POPC   C3B 7283   3.088  19.997  17.474 -0.3490  0.1961  0.0239
  607POPC   C4B 7284   3.325  20.112  17.130 -0.2460  0.1556  0.1364
  608POPC   NC3 7285   2.321   2.448  19.221 -0.0295  0.0772  0.0979
  608POPC   PO4 7286   2.328   2.811  19.123 -0.2080  0.0535  0.0746
  608POPC   GL1 7287   2.656   2.654  18.889  0.1842 -0.1699 -0.1660
  608POPC   GL2 7288   2.808   2.407  18.942 -0.2404  0.2056 -0.2534
  608POPC   C1A 7289   2.632   2.553  18.431  0.2274 -0.2450  0.0739
  608POPC   D2A 7290   2.527   2.472  17.966  0.0366 -0.0819  0.0779
  608POPC   C3A 7291   2.503   2.108  17.748 -0.0973 -0.1009  0.1287
  608POPC   C4A 7292   2.670   1.926  17.367 -0.0112  0.1996  0.2362
  608POPC   C1B 7293   3.022   2.344  18.598  0.0432  0.0962  0.2176
  608POPC   C2B 7294   3.148   2.418  18.087 -0.3620 -0.0603  0.2841
  608POPC   C3B 7295   3.404   2.438  17.650 -0.0853 -0.1466  0.1247
  608POPC   C4B 7296   3.545   2.477  17.220 -0.0396 -0.0647  0.0282
  609POPC   NC3 7297  14.986   0.279  18.971 -0.0926  0.1717  0.1680
  609POPC   PO4 7298  15.352   0.335  18.869 -0.0043 -0.1988 -0.2838
  609POPC   GL1 7299  15.585   0.406  18.603  0.0090 -0.0672  0.3385
  609POPC   GL2 7300  15.650   0.699  18.553  0.1089 -0.0405  0.0886
  609POPC   C1A 7301  15.804   0.285  18.237  0.1619 -0.0118 -0.1224
  609POPC   D2A 7302  15.869   0.160  17.793  0.0477  0.0755 -0.3483
  609POPC   C3A 7303  16.158  -0.082  17.539 -0.2296  0.0185 -0.0809
  609POPC   C4A 7304  16.454  -0.422  17.510 -0.2995 -0.0500  0.2217
  609POPC   C1B 7305  15.815   0.745  18.146  0.0630 -0.2506  0.1449
  609POPC   C2B 7306  16.014   0.693  17.788 -0.0031 -0.0659  0.1522
  609POPC   C3B 7307  16.341   0.541  17.442  0.0270  0.1872 -0.0102
  609POPC   C4B 7308  16.659   0.273  17.308 -0.0284 -0.1103 -0.1399
  610POPC   NC3 7309  19.394   0.333  19.083  0.5091  0.0156 -0.1507
  610POPC   PO4 7310  19.192   0.586  19.329  0.0440  0.1913 -0.3893
  610POPC   GL1 7311  19.313   0.778  18.913  0.0096 -0.2111  0.1141
  610POPC   GL2 7312  19.043   0.748  18.841  0.4861 -0.1219 -0.4129
  610POPC   C1A 7313  19.362   0.744  18.450 -0.1750 -0.1291 -0.0278
  610POPC   D2A 7314  19.753   0.584  18.240  0.4046 -0.3039  0.1126
  610POPC   C3A 7315  20.151   0.751  18.061 -0.0072  0.2449 -0.0812
  610POPC   C4A 7316  20.209   0.866  17.582 -0.4437  0.3432  0.0589
  610POPC   C1B 7317  18.891   0.640  18.428  0.0541 -0.1949  0.0556
  610POPC   C2B 7318  18.668   0.640  18.042  0.0600  0.3854 -0.1032
  610POPC   C3B 7319  18.438   0.501  17.612 -0.0424  0.4948  0.1563
  610POPC   C4B 7320  18.188   0.259  17.285  0.1503 -0.2657  0.1626
  611POPC   NC3 7321   7.133  12.302  19.050  0.3137  0.1889 -0.0390
  611POPC   PO4 7322   6.762  12.173  19.195 -0.1487  0.0462 -0.3895
  611POPC   GL1 7323   6.715  12.164  18.799 -0.1946  0.2795  0.0065
  611POPC   GL2 7324   6.760  12.428  18.683 -0.1144 -0.0396  0.0599
  611POPC   C1A 7325   6.923  12.048  18.411  0.0754  0.0029  0.0233
  611POPC   D2A 7326   6.900  12.073  17.949 -0.1198  0.1222  0.1268
  611POPC   C3A 7327   6.998  12.534  17.829 -0.2055 -0.0549  0.0724
  611POPC   C4A 7328   6.950  12.876  17.620 -0.2081 -0.0900 -0.2888
  611POPC   C1B 7329   7.043  12.620  18.323  0.0381  0.0211 -0.3536
  611POPC   C2B 7330   7.390  12.661  18.080 -0.3014 -0.4397  0.1923
  611POPC   C3B 7331   7.726  12.908  17.935 -0.2449  0.2300 -0.1765
  611POPC   C4B 7332   8.195  12.828  17.891  0.2947 -0.2078  0.0816
  612POPC   NC3 7333   9.797  27.035  19.400 -0.3574  0.1776 -0.0600
  612POPC   PO4 7334   9.509  27.065  19.173  0.3440  0.0449  0.1837
  612POPC   GL1 7335   9.617  27.199  18.825 -0.0411  0.2366  0.2548
  612POPC   GL2 7336   9.525  27.474  18.914 -0.0918 -0.1306 -0.0105
  612POPC   C1A 7337  10.017  26.892  18.661  0.1166 -0.2019  0.0577
  612POPC   D2A 7338  10.269  26.580  18.449  0.0009  0.1885  0.1033
  612POPC   C3A 7339  10.308  26.581  17.946  0.0748  0.1697 -0.2154
  612POPC   C4A 7340  10.090  26.561  17.567  0.2086 -0.0113 -0.1084
  612POPC   C1B 7341   9.475  27.587  18.520 -0.1148  0.1213 -0.1989
  612POPC   C2B 7342   9.526  27.895  18.182 -0.2332 -0.0110 -0.0004
  612POPC   C3B 7343   9.676  28.065  17.751 -0.0577  0.3243  0.0169
  612POPC   C4B 7344   9.811  27.945  17.310 -0.0539  0.1012 -0.0488
  613POPC   NC3 7345   3.014  20.611  19.349  0.0562  0.0323 -0.2221
  613POPC   PO4 7346   3.011  20.306  19.118 -0.1815  0.1486  0.1613
  613POPC   GL1 7347   2.808  20.588  18.906 -0.2594  0.3818  0.0952
  613POPC   GL2 7348   2.981  20.533  18.680  0.2862  0.0800 -0.2580
  613POPC   C1A 7349   2.676  20.905  18.532 -0.1403 -0.2799 -0.0819
  613POPC   D2A 7350   2.725  20.986  18.015  0.1571 -0.0137 -0.0608
  613POPC   C3A 7351   2.562  20.648  17.718 -0.2457  0.0543 -0.3889
  613POPC   C4A 7352   2.692  20.908  17.340  0.0862 -0.3492  0.2894
  613POPC   C1B 7353   3.110  20.705  18.286  0.2134  0.0933 -0.0206
  613POPC   C2B 7354   3.246  20.783  17.854  0.2678  0.0265  0.0129
  613POPC   C3B 7355   3.348  20.890  17.458  0.1878 -0.0052 -0.0847
  613POPC   C4B 7356   3.526  20.994  17.031  0.0607 -0.2530  0.2336
  614POPC   NC3 7357   2.503  22.812  19.139  0.0178  0.1500  0.2872
  614POPC   PO4 7358   2.240  22.505  19.245 -0.2505 -0.0616  0.2463
  614POPC   GL1 7359   2.267  22.667  18.769 -0.2947  0.3684  0.0363
  614POPC   GL2 7360   2.188  22.439  18.655  0.1209 -0.0423  0.1176
  614POPC   C1A 7361   2.652  22.602  18.493 -0.4695 -0.0589  0.1494
  614POPC   D2A 7362   2.963  22.763  18.173  0.1332 -0.0623  0.1069
  614POPC   C3A 7363   2.819  22.780  17.716  0.2682 -0.0041  0.0643
  614POPC   C4A 7364   2.875  22.910  17.310 -0.5844  0.1084 -0.0175
  614POPC   C1B 7365   2.223  22.297  18.242  0.1662 -0.1110  0.0343
  614POPC   C2B 7366   2.024  22.105  17.887 -0.0774 -0.1638 -0.1387
  614POPC   C3B 7367   2.108  21.765  17.678 -0.2056 -0.0963 -0.1977
  614POPC   C4B 7368   1.714  21.588  17.553  0.6050 -0.0954  0.1073
  615POPC   NC3 7369  28.567  30.619  19.054  0.0999  0.2373  0.0970
  615POPC   PO4 7370  28.461  30.273  19.133 -0.3079  0.0755 -0.0715
  615POPC   GL1 7371  28.140  30.304  18.982  0.2358  0.0493 -0.3046
  615POPC   GL2 7372  28.020  30.033  18.839 -0.3262  0.1514  0.0588
  615POPC   C1A 7373  27.904  30.534  18.690 -0.0537  0.1994  0.0851
  615POPC   D2A 7374  27.936  30.617  18.249 -0.0558 -0.3687 -0.1933
  615POPC   C3A 7375  27.831  30.341  17.889 -0.3644 -0.1202  0.2610
  615POPC   C4A 7376  27.749  30.239  17.460 -0.1433  0.0053 -0.1799
  615POPC   C1B 7377  27.953  30.087  18.383 -0.2750  0.1343 -0.0614
  615POPC   C2B 7378  28.180  30.026  17.964 -0.1137 -0.0782  0.0195
  615POPC   C3B 7379  28.375  30.070  17.488 -0.1223  0.0679 -0.0396
  615POPC   C4B 7380  28.820  30.172  17.443  0.2014  0.0420 -0.1485
  616POPC   NC3 7381  24.800   8.428  19.005  0.3530 -0.0843  0.0393
  616POPC   PO4 7382  24.588   8.578  19.291 -0.0008 -0.2105  0.0273
  616POPC   GL1 7383  24.488   8.865  19.086 -0.0306  0.2342 -0.2218
  616POPC   GL2 7384  24.623   8.946  18.868 -0.2385 -0.0101 -0.1192
  616POPC   C1A 7385  24.190   8.776  18.776 -0.0463  0.1432  0.2439
  616POPC   D2A 7386  23.860   8.827  18.437  0.1986  0.0704  0.1523
  616POPC   C3A 7387  23.508   8.938  18.103  0.0276  0.0334  0.2972
  616POPC   C4A 7388  23.195   9.173  17.845 -0.3021 -0.0874 -0.1230
  616POPC   C1B 7389  24.587   8.680  18.533  0.2134 -0.1374  0.1636
  616POPC   C2B 7390  24.334   8.656  18.141 -0.5643  0.1358 -0.2301
  616POPC   C3B 7391  24.635   8.446  17.866 -0.0034  0.3988 -0.2256
  616POPC   C4B 7392  24.911   8.338  17.521  0.2214  0.1571  0.1643
  617POPC   NC3 7393   0.893   2.402  19.602  0.1587 -0.1233 -0.0350
  617POPC   PO4 7394   1.181   2.661  19.554  0.0220 -0.1142 -0.1738
  617POPC   GL1 7395   1.451   2.730  19.241  0.0776 -0.1590 -0.1737
  617POPC   GL2 7396   1.340   2.936  19.056  0.1034 -0.3721 -0.1813
  617POPC   C1A 7397   1.409   2.493  18.807 -0.2618  0.1673  0.0184
  617POPC   D2A 7398   1.113   2.455  18.477  0.0676  0.1578 -0.1341
  617POPC   C3A 7399   1.136   2.346  18.045 -0.0952  0.0173 -0.4810
  617POPC   C4A 7400   1.080   2.228  17.630 -0.0155 -0.0936 -0.0428
  617POPC   C1B 7401   1.170   2.928  18.628  0.2237  0.3735  0.2266
  617POPC   C2B 7402   1.076   2.889  18.186 -0.0783 -0.1087  0.2401
  617POPC   C3B 7403   1.021   2.770  17.796  0.1948 -0.1551  0.1488
  617POPC   C4B 7404   1.318   2.852  17.410  0.1615 -0.2667  0.0848
  618POPC   NC3 7405  30.207  14.883  19.099 -0.0633  0.0007 -0.1860
  618POPC   PO4 7406  29.983  15.210  19.190 -0.1880 -0.1503  0.0364
  618POPC   GL1 7407  29.873  15.465  18.908 -0.2420  0.3779 -0.0023
  618POPC   GL2 7408  29.715  15.283  18.772  0.0701  0.1415 -0.0651
  618POPC   C1A 7409  29.888  15.549  18.425 -0.3432  0.0268  0.0165
  618POPC   D2A 7410  29.972  15.574  17.941  0.0208  0.0545 -0.2118
  618POPC   C3A 7411  29.996  15.118  17.819 -0.0469  0.0659  0.1807
  618POPC   C4A 7412  29.897  14.683  17.752 -0.2108 -0.2469  0.3479
  618POPC   C1B 7413  29.450  15.647  18.660 -0.4222  0.1847 -0.1166
  618POPC   C2B 7414  29.438  15.828  18.283  0.3807  0.1093 -0.0647
  618POPC   C3B 7415  29.450  15.975  17.822 -0.2470 -0.0308 -0.3504
  618POPC   C4B 7416  29.355  15.888  17.357  0.1340 -0.0679  0.0965
  619POPC   NC3 7417   6.337  31.346  19.011 -0.1564 -0.3895  0.1607
  619POPC   PO4 7418   6.506  31.657  19.160  0.0095 -0.1476 -0.0027
  619POPC   GL1 7419   6.711  31.611  18.781 -0.0571  0.1741  0.0386
  619POPC   GL2 7420   6.805  31.301  18.854  0.0906  0.2310  0.2209
  619POPC   C1A 7421   6.815  31.676  18.337 -0.2630 -0.0438  0.2271
  619POPC   D2A 7422   6.772  31.601  17.927 -0.1443 -0.1335  0.0364
  619POPC   C3A 7423   6.341  31.336  17.836  0.0158 -0.2544 -0.0872
  619POPC   C4A 7424   5.932  31.390  17.591  0.2378 -0.3090  0.1795
  619POPC   C1B 7425   7.073  31.297  18.484 -0.0751  0.4747  0.1130
  619POPC   C2B 7426   7.090  31.085  18.071  0.1452 -0.0963  0.0912
  619POPC   C3B 7427   6.847  30.772  17.713 -0.3559 -0.1908 -0.4670
  619POPC   C4B 7428   6.917  30.653  17.287 -0.1914 -0.0916  0.0177
  620POPC   NC3 7429   6.245  28.958  19.839 -0.1038  0.1579  0.1981
  620POPC   PO4 7430   6.476  29.155  19.578 -0.1671 -0.0334 -0.0685
  620POPC   GL1 7431   6.437  29.357  19.220 -0.1979 -0.1162 -0.0395
  620POPC   GL2 7432   6.604  29.200  19.062  0.0942 -0.0381 -0.2142
  620POPC   C1A 7433   6.152  29.367  18.859 -0.5458  0.2475 -0.0148
  620POPC   D2A 7434   5.917  29.441  18.450 -0.3731  0.2219 -0.0733
  620POPC   C3A 7435   5.768  29.451  18.022 -0.0471 -0.0907 -0.2110
  620POPC   C4A 7436   5.787  29.346  17.610 -0.1935  0.5791  0.0414
  620POPC   C1B 7437   6.619  29.225  18.624  0.1446 -0.0939  0.0878
  620POPC   C2B 7438   6.723  29.288  18.238  0.1497  0.1625 -0.1788
  620POPC   C3B 7439   6.814  29.409  17.795  0.4313 -0.1356 -0.2144
  620POPC   C4B 7440   7.034  29.270  17.386  0.0070  0.0051  0.1188
  621POPC   NC3 7441   6.013  18.098  19.489  0.0318  0.0259 -0.0178
  621POPC   PO4 7442   5.866  17.806  19.230  0.0204  0.2212 -0.0707
  621POPC   GL1 7443   6.113  17.608  18.979 -0.1079 -0.0176 -0.1727
  621POPC   GL2 7444   6.049  17.308  18.904 -0.1045  0.0571 -0.2145
  621POPC   C1A 7445   6.189  17.833  18.592  0.1497 -0.3492  0.1018
  621POPC   D2A 7446   6.306  18.138  18.232 -0.1386 -0.0123 -0.0347
  621POPC   C3A 7447   6.072  18.003  17.902 -0.0509  0.2117 -0.5299
  621POPC   C4A 7448   5.984  17.596  17.641 -0.0754 -0.2174  0.1693
  621POPC   C1B 7449   6.220  17.338  18.460 -0.2111  0.0080 -0.1458
  621POPC   C2B 7450   6.441  17.570  18.140 -0.0954 -0.0899 -0.3957
  621POPC   C3B 7451   6.524  17.739  17.710  0.0764 -0.0482  0.0474
  621POPC   C4B 7452   6.722  17.869  17.311 -0.2558  0.1819 -0.0809
  622POPC   NC3 7453  26.868  22.370  19.324 -0.1089 -0.1504 -0.0631
  622POPC   PO4 7454  27.085  22.069  19.414 -0.2361  0.3710 -0.0863
  622POPC   GL1 7455  27.174  22.015  18.928 -0.0655 -0.0530 -0.1554
  622POPC   GL2 7456  27.079  21.713  18.827 -0.0443  0.0430 -0.2397
  622POPC   C1A 7457  27.149  22.036  18.462 -0.2833 -0.0098 -0.1007
  622POPC   D2A 7458  27.180  21.928  18.026  0.1358 -0.0411  0.4156
  622POPC   C3A 7459  27.144  21.870  17.572 -0.0831  0.1438 -0.0866
  622POPC   C4A 7460  26.820  21.928  17.242  0.0393 -0.1134  0.2029
  622POPC   C1B 7461  26.985  21.497  18.433 -0.0284 -0.3408  0.0594
  622POPC   C2B 7462  26.947  21.489  17.985 -0.0439 -0.2664 -0.1094
  622POPC   C3B 7463  26.671  21.632  17.673 -0.0812  0.2747  0.2131
  622POPC   C4B 7464  26.457  21.610  17.242 -0.2906 -0.0010 -0.2110
  623POPC   NC3 7465  28.499  28.872  19.568 -0.2143 -0.0478 -0.1096
  623POPC   PO4 7466  28.443  28.906  19.207  0.3363 -0.0560  0.3124
  623POPC   GL1 7467  28.321  28.657  18.916 -0.3123 -0.0375 -0.2409
  623POPC   GL2 7468  28.230  28.890  18.723  0.0176  0.0519  0.0941
  623POPC   C1A 7469  27.863  28.525  18.934  0.1753 -0.1982  0.0301
  623POPC   D2A 7470  27.450  28.525  18.712  0.2548 -0.3382  0.1690
  623POPC   C3A 7471  27.764  28.301  18.395  0.1174 -0.2757  0.1135
  623POPC   C4A 7472  27.939  27.881  18.258 -0.2836 -0.0339  0.3394
  623POPC   C1B 7473  28.196  29.042  18.301  0.0471  0.2865  0.2858
  623POPC   C2B 7474  28.054  29.124  17.826 -0.2811  0.1988 -0.1021
  623POPC   C3B 7475  28.133  29.222  17.526  0.0457 -0.3125  0.1379
  623POPC   C4B 7476  28.219  29.443  17.149  0.2269  0.1171 -0.0811
  624POPC   NC3 7477  21.254   4.641  19.580  0.0155  0.0408  0.1378
  624POPC   PO4 7478  21.216   4.397  19.224 -0.0586  0.0237 -0.2418
  624POPC   GL1 7479  21.087   4.370  18.863 -0.0501 -0.2457 -0.1820
  624POPC   GL2 7480  20.775   4.480  18.895  0.3369  0.0226  0.0730
  624POPC   C1A 7481  20.912   4.053  18.554  0.1801 -0.0352  0.1609
  624POPC   D2A 7482  21.004   3.923  18.152  0.0223  0.0750 -0.0070
  624POPC   C3A 7483  20.784   3.823  17.784 -0.0580 -0.1154 -0.1060
  624POPC   C4A 7484  20.762   4.123  17.418 -0.3886 -0.1427 -0.0864
  624POPC   C1B 7485  20.563   4.525  18.467 -0.2396  0.2210  0.5655
  624POPC   C2B 7486  20.271   4.436  18.085  0.2364  0.0592 -0.3245
  624POPC   C3B 7487  20.280   4.291  17.639 -0.0885 -0.3730 -0.0720
  624POPC   C4B 7488  20.098   4.549  17.236  0.1394  0.0376  0.0911
  625POPC   NC3 7489   5.668  12.390  19.508  0.2142  0.1390 -0.2522
  625POPC   PO4 7490   5.980  12.617  19.520 -0.0888 -0.0852 -0.0717
  625POPC   GL1 7491   5.882  12.496  19.083 -0.1032 -0.2179  0.0599
  625POPC   GL2 7492   5.782  12.671  18.960  0.1724  0.1606 -0.0137
  625POPC   C1A 7493   6.079  12.282  18.726  0.1057 -0.0987  0.0676
  625POPC   D2A 7494   5.975  12.219  18.281  0.2687 -0.1828  0.3596
  625POPC   C3A 7495   6.080  12.201  17.827 -0.1395 -0.0217  0.2339
  625POPC   C4A 7496   5.971  12.122  17.387 -0.1224 -0.2217 -0.0989
  625POPC   C1B 7497   5.765  12.677  18.520  0.0675  0.1809 -0.1607
  625POPC   C2B 7498   5.764  12.935  18.155 -0.0803 -0.0118  0.4994
  625POPC   C3B 7499   5.753  13.137  17.772 -0.1840 -0.1138 -0.2579
  625POPC   C4B 7500   5.706  13.042  17.269 -0.0686  0.1211  0.2309
  626POPC   NC3 7501   8.140   6.545  19.158  0.0382 -0.0204  0.1163
  626POPC   PO4 7502   8.326   6.227  19.196  0.1898  0.1472  0.1450
  626POPC   GL1 7503   8.490   6.438  18.871  0.2711 -0.2268  0.3234
  626POPC   GL2 7504   8.366   6.438  18.598  0.2373 -0.2641  0.1389
  626POPC   C1A 7505   8.845   6.260  18.608  0.2220  0.1628  0.2862
  626POPC   D2A 7506   9.136   6.247  18.172  0.2132  0.0060  0.0542
  626POPC   C3A 7507   9.007   6.586  17.918  0.2392  0.1568  0.0980
  626POPC   C4A 7508   8.921   6.720  17.483  0.0521 -0.1790  0.0030
  626POPC   C1B 7509   8.550   6.277  18.180 -0.0716  0.4037 -0.1616
  626POPC   C2B 7510   8.653   6.193  17.791  0.0022 -0.0847  0.3811
  626POPC   C3B 7511   8.594   5.858  17.464 -0.1407 -0.2140 -0.0932
  626POPC   C4B 7512   8.505   5.551  17.094 -0.0010  0.0866 -0.4107
  627POPC   NC3 7513   5.586  19.791  19.023 -0.1330  0.3272  0.0923
  627POPC   PO4 7514   5.616  19.429  19.090  0.1190  0.0570 -0.1929
  627POPC   GL1 7515   5.510  19.364  18.757 -0.3851  0.1602 -0.2921
  627POPC   GL2 7516   5.411  19.070  18.676 -0.0555 -0.2866 -0.1290
  627POPC   C1A 7517   5.725  19.545  18.450 -0.4066 -0.0269  0.3340
  627POPC   D2A 7518   5.867  19.892  18.250 -0.0867 -0.0855  0.3563
  627POPC   C3A 7519   6.140  20.013  17.879 -0.1315 -0.1246 -0.2306
  627POPC   C4A 7520   6.335  20.107  17.502 -0.0331  0.3542  0.1790
  627POPC   C1B 7521   5.350  19.266  18.258  0.0602  0.3195 -0.1640
  627POPC   C2B 7522   5.444  19.262  17.833 -0.0897 -0.1637 -0.0399
  627POPC   C3B 7523   5.491  19.297  17.345 -0.0238  0.0345 -0.1952
  627POPC   C4B 7524   5.789  19.368  17.020  0.2663 -0.0997 -0.5362
  628POPC   NC3 7525   3.768  27.237  19.414 -0.0435 -0.2252 -0.0409
  628POPC   PO4 7526   3.496  27.525  19.291 -0.2006 -0.0870  0.2339
  628POPC   GL1 7527   3.496  27.843  19.116  0.1972  0.2622  0.1910
  628POPC   GL2 7528   3.167  27.906  19.021  0.1005  0.0762  0.0320
  628POPC   C1A 7529   3.584  27.917  18.660  0.1072  0.1898 -0.0426
  628POPC   D2A 7530   3.426  28.112  18.348 -0.0403 -0.1898  0.0199
  628POPC   C3A 7531   3.354  27.955  17.905 -0.0281  0.1165  0.0075
  628POPC   C4A 7532   3.347  27.970  17.502  0.1909 -0.3184 -0.3221
  628POPC   C1B 7533   3.097  27.704  18.609  0.1169  0.0013  0.2277
  628POPC   C2B 7534   3.226  27.498  18.261  0.0203 -0.0524  0.0893
  628POPC   C3B 7535   3.410  27.092  18.087  0.3354 -0.1424  0.1376
  628POPC   C4B 7536   3.611  26.848  17.748 -0.0663  0.2281  0.0148
  629POPC   NC3 7537  14.879  25.649  19.083  0.4016  0.0539  0.1159
  629POPC   PO4 7538  14.518  25.752  19.247  0.0371  0.1191 -0.0134
  629POPC   GL1 7539  14.484  26.020  18.983 -0.1591 -0.3067 -0.1032
  629POPC   GL2 7540  14.467  25.930  18.746 -0.1243  0.2319 -0.2174
  629POPC   C1A 7541  14.837  26.338  18.804 -0.2536  0.0088  0.0135
  629POPC   D2A 7542  14.882  26.754  18.535 -0.0328  0.0142 -0.1127
  629POPC   C3A 7543  14.740  27.039  18.162 -0.0500 -0.2544  0.3058
  629POPC   C4A 7544  14.727  27.107  17.680  0.0151  0.0386  0.1865
  629POPC   C1B 7545  14.614  26.147  18.343  0.1286  0.0452 -0.1256
  629POPC   C2B 7546  14.777  26.106  17.956 -0.0044  0.0592 -0.2420
  629POPC   C3B 7547  14.746  26.222  17.489  0.0164 -0.0454  0.0079
  629POPC   C4B 7548  14.750  26.047  17.100 -0.1950  0.0847  0.1715
  630POPC   NC3 7549  19.345   8.153  19.574 -0.0625  0.1012  0.0136
  630POPC   PO4 7550  19.630   8.264  19.288 -0.5465 -0.3519 -0.2334
  630POPC   GL1 7551  19.751   8.261  18.900  0.0660  0.0606  0.1953
  630POPC   GL2 7552  19.883   8.528  18.809  0.0347 -0.2440  0.0807
  630POPC   C1A 7553  19.488   8.173  18.538  0.0959  0.1608  0.3074
  630POPC   D2A 7554  19.391   8.335  18.134 -0.1228 -0.0882  0.0522
  630POPC   C3A 7555  19.585   8.045  17.800  0.1800 -0.1780 -0.1665
  630POPC   C4A 7556  19.675   8.043  17.329  0.1577 -0.0273  0.0721
  630POPC   C1B 7557  20.002   8.474  18.381 -0.3137  0.2278  0.0297
  630POPC   C2B 7558  19.959   8.240  18.021 -0.0261  0.0415 -0.2677
  630POPC   C3B 7559  20.028   8.323  17.547  0.2241  0.1635 -0.2579
  630POPC   C4B 7560  20.128   8.332  17.110 -0.2565  0.2660 -0.3033
  631POPC   NC3 7561   5.986  27.106  19.478 -0.3027  0.0474  0.1592
  631POPC   PO4 7562   6.287  27.236  19.666  0.0180 -0.4009 -0.2381
  631POPC   GL1 7563   6.400  27.365  19.299 -0.0628 -0.0403 -0.1765
  631POPC   GL2 7564   6.538  27.640  19.257  0.0703 -0.4163 -0.0565
  631POPC   C1A 7565   6.330  27.190  18.884 -0.0323  0.2791 -0.1143
  631POPC   D2A 7566   5.946  26.945  18.797  0.0929  0.1232  0.0319
  631POPC   C3A 7567   5.696  26.954  18.434  0.0473  0.0444  0.0088
  631POPC   C4A 7568   5.504  27.252  18.158  0.0605  0.2667  0.0467
  631POPC   C1B 7569   6.462  27.863  18.848  0.2258  0.3601 -0.1249
  631POPC   C2B 7570   6.602  27.909  18.370  0.2787  0.1247  0.0360
  631POPC   C3B 7571   6.728  27.901  17.949  0.1424 -0.3601  0.0026
  631POPC   C4B 7572   6.628  27.519  17.690  0.0076 -0.0081  0.1976
  632POPC   NC3 7573  26.877   4.988  19.202  0.0218 -0.1245 -0.2597
  632POPC   PO4 7574  27.161   4.887  18.951 -0.0547 -0.1157 -0.0812
  632POPC   GL1 7575  26.910   5.031  18.642  0.2216  0.2551  0.2721
  632POPC   GL2 7576  27.130   5.266  18.494 -0.3259  0.1635  0.0457
  632POPC   C1A 7577  26.577   4.808  18.353  0.2567  0.0362 -0.2547
  632POPC   D2A 7578  26.317   4.589  18.054  0.0272  0.2805 -0.2049
  632POPC   C3A 7579  26.211   4.546  17.609  0.0601  0.2045  0.0132
  632POPC   C4A 7580  26.282   4.678  17.227  0.0063 -0.0094  0.0408
  632POPC   C1B 7581  27.167   5.392  18.069  0.0285 -0.0022 -0.0787
  632POPC   C2B 7582  27.237   5.279  17.607 -0.0936  0.2846  0.0416
  632POPC   C3B 7583  27.579   5.460  17.363 -0.2443  0.0297 -0.0838
  632POPC   C4B 7584  27.933   5.391  17.138 -0.2083 -0.1595  0.0863
  633POPC   NC3 7585  20.005   9.650  19.419 -0.2268 -0.1447  0.1776
  633POPC   PO4 7586  19.912  10.012  19.443  0.1991  0.0281  0.2037
  633POPC   GL1 7587  19.982  10.205  19.036 -0.1119  0.0358  0.0766
  633POPC   GL2 7588  19.854   9.912  18.957 -0.2014  0.0428 -0.3001
  633POPC   C1A 7589  19.993  10.240  18.580 -0.2166  0.1222  0.1863
  633POPC   D2A 7590  20.157  10.133  18.156 -0.0587 -0.0151 -0.1286
  633POPC   C3A 7591  19.889  10.104  17.786  0.1262  0.4013  0.2262
  633POPC   C4A 7592  19.703   9.857  17.440  0.1284  0.3670  0.1259
  633POPC   C1B 7593  19.514  10.188  18.815  0.0181  0.2016  0.3229
  633POPC   C2B 7594  19.140  10.185  18.527 -0.0713 -0.0296  0.1753
  633POPC   C3B 7595  18.928  10.405  18.199  0.3738  0.4103  0.1464
  633POPC   C4B 7596  18.801  10.690  17.908 -0.2248 -0.1371  0.1384
  634POPC   NC3 7597  19.264   6.717  19.491  0.1988 -0.0677  0.1838
  634POPC   PO4 7598  19.144   7.063  19.523 -0.1085 -0.3453 -0.0716
  634POPC   GL1 7599  19.156   7.221  19.158  0.2443  0.1381 -0.1102
  634POPC   GL2 7600  19.349   7.005  19.027  0.0129  0.4523  0.0443
  634POPC   C1A 7601  19.418   7.436  18.830  0.2503  0.1690 -0.0470
  634POPC   D2A 7602  19.541   7.429  18.382 -0.0333 -0.0698  0.0222
  634POPC   C3A 7603  19.303   7.791  18.170  0.0848  0.1351  0.4252
  634POPC   C4A 7604  19.137   7.763  17.720  0.2471 -0.0697  0.2435
  634POPC   C1B 7605  19.505   6.906  18.595 -0.0927 -0.1232  0.0458
  634POPC   C2B 7606  19.612   6.868  18.144 -0.0427  0.0073  0.1400
  634POPC   C3B 7607  19.792   6.775  17.793 -0.1424  0.2161  0.2548
  634POPC   C4B 7608  20.055   6.756  17.408  0.1172 -0.0339  0.1375
  635POPC   NC3 7609  18.103   6.948  19.576 -0.0125 -0.1711 -0.0489
  635POPC   PO4 7610  17.874   7.077  19.277 -0.2642 -0.2383 -0.1568
  635POPC   GL1 7611  17.960   6.990  18.930 -0.0909 -0.2117  0.2932
  635POPC   GL2 7612  18.003   6.686  18.965 -0.1485  0.1674  0.1812
  635POPC   C1A 7613  17.736   7.000  18.536 -0.0314 -0.1506 -0.0387
  635POPC   D2A 7614  17.875   7.149  18.107  0.0787 -0.0878 -0.2139
  635POPC   C3A 7615  18.193   7.234  17.769 -0.0890  0.1231  0.2935
  635POPC   C4A 7616  18.588   6.946  17.616  0.0445  0.0587 -0.1155
  635POPC   C1B 7617  17.673   6.388  18.722  0.3226  0.2960 -0.1255
  635POPC   C2B 7618  17.556   6.162  18.301  0.1242 -0.1732  0.0006
  635POPC   C3B 7619  17.609   6.267  17.856  0.0655  0.0437 -0.0318
  635POPC   C4B 7620  17.608   6.475  17.415  0.1690 -0.2350 -0.0300
  636POPC   NC3 7621  29.703   9.414  19.359 -0.1712  0.2901 -0.0269
  636POPC   PO4 7622  29.945   9.731  19.278 -0.1136 -0.1574  0.2254
  636POPC   GL1 7623  30.036   9.679  18.936 -0.3223  0.2877  0.0975
  636POPC   GL2 7624  29.929   9.596  18.763 -0.1850 -0.2703  0.0680
  636POPC   C1A 7625  30.400   9.807  18.727  0.2612 -0.0271  0.1926
  636POPC   D2A 7626  30.636   9.614  18.364  0.2320 -0.1860  0.0018
  636POPC   C3A 7627  30.709   9.841  17.967  0.3065 -0.0327 -0.0634
  636POPC   C4A 7628  30.407   9.873  17.612  0.3742  0.1027  0.2330
  636POPC   C1B 7629  29.954   9.743  18.359  0.1350 -0.0519  0.0537
  636POPC   C2B 7630  30.015   9.828  17.942 -0.0288 -0.0050  0.2987
  636POPC   C3B 7631  29.942  10.151  17.635  0.1030 -0.0845  0.0066
  636POPC   C4B 7632  29.858  10.504  17.348 -0.3483  0.2320 -0.1135
  637POPC   NC3 7633  28.157  21.342  19.438  0.0799 -0.0475  0.0631
  637POPC   PO4 7634  28.192  21.378  19.060  0.2643 -0.0623  0.0270
  637POPC   GL1 7635  28.229  21.362  18.683 -0.2371  0.3897  0.0456
  637POPC   GL2 7636  28.047  21.525  18.589 -0.2684 -0.1843 -0.0204
  637POPC   C1A 7637  28.382  21.212  18.293 -0.0453  0.0142  0.1222
  637POPC   D2A 7638  28.791  21.262  18.077 -0.0508  0.2798 -0.0251
  637POPC   C3A 7639  28.963  21.415  17.685 -0.1452 -0.2090 -0.3541
  637POPC   C4A 7640  28.920  21.742  17.375 -0.2310  0.2058 -0.0423
  637POPC   C1B 7641  27.967  21.422  18.112  0.3563 -0.0350  0.2476
  637POPC   C2B 7642  28.145  21.190  17.831 -0.1120  0.1688 -0.0192
  637POPC   C3B 7643  28.417  20.960  17.547 -0.0321  0.1868 -0.3933
  637POPC   C4B 7644  28.811  21.107  17.291  0.0412  0.3395 -0.3768
  638POPC   NC3 7645  26.328   0.245  18.972 -0.1376 -0.0793  0.1323
  638POPC   PO4 7646  26.056   0.338  19.233 -0.2159  0.3528 -0.0856
  638POPC   GL1 7647  25.911   0.434  18.932 -0.1014  0.0554  0.3992
  638POPC   GL2 7648  25.943   0.263  18.705 -0.0762 -0.1502  0.1626
  638POPC   C1A 7649  25.615   0.561  18.589  0.2902  0.1004  0.0932
  638POPC   D2A 7650  25.559   0.526  18.174  0.0893  0.1104  0.0314
  638POPC   C3A 7651  25.417   0.443  17.740  0.2671  0.1238  0.2076
  638POPC   C4A 7652  25.115   0.634  17.426 -0.1416  0.0251 -0.0268
  638POPC   C1B 7653  25.936   0.154  18.276  0.0317  0.1230 -0.4641
  638POPC   C2B 7654  25.948   0.405  17.876 -0.1400  0.1608 -0.2483
  638POPC   C3B 7655  26.199   0.591  17.523 -0.1004  0.0669  0.0151
  638POPC   C4B 7656  26.685   0.763  17.564  0.3713 -0.0378 -0.0657
  639POPC   NC3 7657  31.197  16.139  19.676 -0.0670 -0.0532 -0.0798
  639POPC   PO4 7658  31.324  15.780  19.569  0.2928 -0.0155 -0.0381
  639POPC   GL1 7659  31.371  16.073  19.236  0.4334  0.2006 -0.3951
  639POPC   GL2 7660  31.257  16.301  19.156 -0.1636 -0.0478  0.3140
  639POPC   C1A 7661  31.714  15.970  18.913 -0.0892 -0.3674  0.0360
  639POPC   D2A 7662  32.028  16.048  18.549  0.0286  0.0805 -0.0357
  639POPC   C3A 7663  31.877  15.712  18.211  0.0135  0.1747  0.0660
  639POPC   C4A 7664  31.939  15.339  17.899 -0.0008  0.2701  0.1583
  639POPC   C1B 7665  31.242  16.105  18.718 -0.0292 -0.0282  0.1245
  639POPC   C2B 7666  31.547  16.112  18.362 -0.1817 -0.1932  0.2577
  639POPC   C3B 7667  31.430  16.361  18.013 -0.1593 -0.3870  0.0293
  639POPC   C4B 7668  31.359  16.750  17.737  0.1166 -0.2155 -0.1038
  640POPC   NC3 7669  10.591  25.010  18.861 -0.1647 -0.0341  0.2696
  640POPC   PO4 7670  10.749  24.645  18.889  0.4191  0.0007  0.0389
  640POPC   GL1 7671  10.519  24.535  18.611 -0.0361  0.0217 -0.1667
  640POPC   GL2 7672  10.661  24.345  18.462 -0.0802  0.2670 -0.0671
  640POPC   C1A 7673  10.544  24.803  18.224  0.0940  0.2298  0.1614
  640POPC   D2A 7674  10.307  24.915  17.840 -0.0676 -0.0559  0.2879
  640POPC   C3A 7675   9.929  24.926  17.549 -0.2970 -0.0121 -0.2591
  640POPC   C4A 7676   9.689  24.638  17.241 -0.1591 -0.1063  0.0127
  640POPC   C1B 7677  10.955  24.272  18.055  0.2010 -0.1899 -0.1484
  640POPC   C2B 7678  10.963  24.326  17.577 -0.1528 -0.1047  0.1085
  640POPC   C3B 7679  10.733  24.345  17.174  0.5910  0.0628  0.0039
  640POPC   C4B 7680  10.315  24.366  17.031  0.0772 -0.2157  0.1952
  641POPC   NC3 7681   8.444   2.705  19.141 -0.0596  0.0675  0.2362
  641POPC   PO4 7682   8.148   2.943  19.217 -0.2710 -0.1324  0.2565
  641POPC   GL1 7683   7.929   3.211  18.953  0.1365 -0.1657  0.1898
  641POPC   GL2 7684   7.615   3.260  18.877  0.3145  0.0667 -0.1922
  641POPC   C1A 7685   7.982   3.254  18.516 -0.0989  0.1015 -0.3122
  641POPC   D2A 7686   7.797   3.576  18.277  0.0150  0.2120  0.1281
  641POPC   C3A 7687   7.883   3.788  17.880 -0.0386  0.0285 -0.1023
  641POPC   C4A 7688   7.957   3.828  17.459 -0.2906 -0.0741  0.2917
  641POPC   C1B 7689   7.364   3.027  18.494  0.1797 -0.3717 -0.0949
  641POPC   C2B 7690   7.308   2.904  18.035 -0.0895 -0.1614  0.1208
  641POPC   C3B 7691   7.596   2.666  17.755  0.1421  0.3000  0.0292
  641POPC   C4B 7692   7.709   2.671  17.331 -0.2109  0.1296  0.0990
  642POPC   NC3 7693  28.258  13.180  19.199  0.1012 -0.1098 -0.1129
  642POPC   PO4 7694  28.362  13.523  19.370  0.1999 -0.0465 -0.2258
  642POPC   GL1 7695  28.360  13.646  19.044 -0.1921  0.0202 -0.1458
  642POPC   GL2 7696  28.084  13.780  19.086 -0.2992  0.1341  0.2164
  642POPC   C1A 7697  28.218  13.466  18.662  0.0637 -0.0842 -0.2136
  642POPC   D2A 7698  28.202  13.720  18.272  0.4617  0.0095  0.1099
  642POPC   C3A 7699  28.274  13.567  17.807 -0.2376 -0.0614 -0.0658
  642POPC   C4A 7700  28.456  13.633  17.380  0.1455  0.3051  0.3358
  642POPC   C1B 7701  27.800  13.790  18.723  0.1971 -0.1044 -0.1046
  642POPC   C2B 7702  27.627  13.767  18.276  0.2198  0.0062  0.1669
  642POPC   C3B 7703  27.715  13.614  17.851  0.2503 -0.2093 -0.0010
  642POPC   C4B 7704  27.746  13.803  17.446 -0.0330 -0.2298  0.1255
  643POPC   NC3 7705   0.394  22.789  19.266 -0.0364  0.0460  0.0474
  643POPC   PO4 7706   0.723  22.995  19.190  0.2904 -0.0814 -0.1609
  643POPC   GL1 7707   0.907  22.806  18.910  0.3450 -0.0941  0.1132
  643POPC   GL2 7708   1.096  22.616  19.007  0.2465  0.1732  0.2393
  643POPC   C1A 7709   0.852  22.741  18.444 -0.0566  0.2766  0.0352
  643POPC   D2A 7710   0.918  22.885  18.041 -0.1110  0.0760  0.2203
  643POPC   C3A 7711   0.918  22.726  17.609  0.0697 -0.0321 -0.0366
  643POPC   C4A 7712   0.726  22.448  17.300  0.2933 -0.4277  0.0331
  643POPC   C1B 7713   1.430  22.428  18.738  0.1335  0.2810  0.0129
  643POPC   C2B 7714   1.747  22.341  18.438 -0.2236 -0.0354  0.0882
  643POPC   C3B 7715   1.829  22.651  18.059 -0.2935  0.2136 -0.0897
  643POPC   C4B 7716   1.727  22.448  17.652 -0.1189  0.0219 -0.1928
  644POPC   NC3 7717  24.572  19.081  19.183  0.3042 -0.2405  0.2796
  644POPC   PO4 7718  24.423  19.209  19.462  0.3182 -0.1412  0.1819
  644POPC   GL1 7719  24.122  19.286  19.247  0.0079 -0.1572 -0.2342
  644POPC   GL2 7720  23.947  19.434  19.438  0.0398  0.1494  0.1187
  644POPC   C1A 7721  23.810  19.242  18.913  0.0112 -0.0711 -0.0689
  644POPC   D2A 7722  23.889  19.168  18.482  0.0879 -0.1133 -0.1520
  644POPC   C3A 7723  23.781  18.729  18.291 -0.0871 -0.1149 -0.1418
  644POPC   C4A 7724  23.614  18.408  17.997 -0.1207  0.3577  0.0314
  644POPC   C1B 7725  23.636  19.117  19.372 -0.0846  0.0470 -0.0915
  644POPC   C2B 7726  23.218  18.906  19.176  0.0439 -0.0717 -0.0880
  644POPC   C3B 7727  22.757  18.977  19.086  0.1455  0.2137  0.0654
  644POPC   C4B 7728  22.339  19.197  18.995  0.0854 -0.2703  0.2103
  645POPC   NC3 7729  15.162  10.053  18.912 -0.1117  0.0842  0.2543
  645POPC   PO4 7730  15.394   9.782  19.074 -0.0797  0.0825 -0.1425
  645POPC   GL1 7731  15.467   9.835  18.677 -0.3719  0.0170 -0.0474
  645POPC   GL2 7732  15.652   9.722  18.579 -0.1207  0.1887  0.2323
  645POPC   C1A 7733  15.576  10.262  18.450  0.6905  0.2331  0.3154
  645POPC   D2A 7734  15.536  10.720  18.394  0.2047 -0.0338  0.1716
  645POPC   C3A 7735  15.379  10.973  18.008 -0.0267  0.1642 -0.2833
  645POPC   C4A 7736  15.275  10.974  17.520  0.0676 -0.2453  0.2180
  645POPC   C1B 7737  15.662   9.876  18.117  0.1193 -0.1246 -0.3195
  645POPC   C2B 7738  15.749   9.959  17.665  0.3615 -0.1762 -0.1310
  645POPC   C3B 7739  15.794  10.112  17.234 -0.0255 -0.3156  0.0500
  645POPC   C4B 7740  16.028  10.517  17.123 -0.0322 -0.0567 -0.0635
  646POPC   NC3 7741  18.288   0.939  19.171 -0.1845 -0.0491 -0.0594
  646POPC   PO4 7742  18.180   0.656  19.376  0.1223  0.2478  0.0295
  646POPC   GL1 7743  17.865   0.722  19.053 -0.3537  0.1340  0.1739
  646POPC   GL2 7744  17.987   0.677  18.799  0.1953 -0.1551 -0.0179
  646POPC   C1A 7745  17.485   0.507  18.943  0.1380 -0.0474  0.0873
  646POPC   D2A 7746  17.157   0.172  19.106  0.0253  0.1729 -0.0645
  646POPC   C3A 7747  16.806   0.082  18.777  0.0778  0.2110  0.1261
  646POPC   C4A 7748  16.483  -0.003  18.426  0.1119 -0.0575  0.0520
  646POPC   C1B 7749  18.053   0.554  18.411 -0.0780 -0.0984  0.1197
  646POPC   C2B 7750  17.939   0.457  17.936  0.2940 -0.1595  0.0788
  646POPC   C3B 7751  17.530   0.330  17.723  0.1189 -0.2799 -0.1222
  646POPC   C4B 7752  17.195   0.201  17.360  0.0453 -0.0916  0.1880
  647POPC   NC3 7753   8.645  23.378  19.279 -0.1118  0.2931  0.0234
  647POPC   PO4 7754   8.879  23.182  19.485 -0.1752 -0.2822  0.2073
  647POPC   GL1 7755   8.828  22.944  19.155 -0.1042 -0.3706 -0.0958
  647POPC   GL2 7756   8.983  22.869  19.009  0.2609  0.0869  0.2812
  647POPC   C1A 7757   8.635  23.159  18.795 -0.1499  0.2575 -0.1055
  647POPC   D2A 7758   8.904  23.178  18.465  0.0801 -0.0654 -0.0995
  647POPC   C3A 7759   8.827  23.340  18.029 -0.0302  0.3587 -0.1098
  647POPC   C4A 7760   8.685  23.344  17.567  0.1941 -0.1505 -0.1252
  647POPC   C1B 7761   8.985  22.671  18.591 -0.1497 -0.1389  0.0344
  647POPC   C2B 7762   8.778  22.343  18.342 -0.0188 -0.1717  0.0074
  647POPC   C3B 7763   8.612  22.316  17.928 -0.0742 -0.1280  0.0161
  647POPC   C4B 7764   8.316  22.428  17.574  0.1182 -0.2021 -0.0648
  648POPC   NC3 7765   0.088  31.684  19.288 -0.3264  0.0537 -0.1101
  648POPC   PO4 7766   0.090  31.294  19.387 -0.2648 -0.2199 -0.2262
  648POPC   GL1 7767   0.274  31.254  19.005  0.1818  0.3297 -0.2130
  648POPC   GL2 7768   0.033  31.441  18.864 -0.0890  0.1739 -0.1591
  648POPC   C1A 7769   0.325  31.041  18.539 -0.0406 -0.0479 -0.1446
  648POPC   D2A 7770   0.593  30.885  18.146  0.2216  0.1072  0.0627
  648POPC   C3A 7771   0.731  31.184  17.850 -0.2452 -0.1930 -0.4550
  648POPC   C4A 7772   0.815  31.542  17.588 -0.1416 -0.1750 -0.2052
  648POPC   C1B 7773   0.069  31.583  18.503  0.1178 -0.1260 -0.1112
  648POPC   C2B 7774   0.089  31.730  18.036  0.1301  0.0073 -0.1178
  648POPC   C3B 7775   0.343  31.896  17.753 -0.0306  0.2138  0.0190
  648POPC   C4B 7776   0.780  32.130  17.653 -0.0551  0.0628 -0.2404
  649POPC   NC3 7777  15.822   0.122  18.940  0.1947  0.0931  0.0590
  649POPC   PO4 7778  15.928  -0.272  18.952 -0.0139 -0.0257 -0.0538
  649POPC   GL1 7779  16.161  -0.209  18.678  0.0891  0.1458  0.1439
  649POPC   GL2 7780  15.990  -0.165  18.422 -0.0895 -0.0642 -0.1962
  649POPC   C1A 7781  16.407  -0.507  18.409  0.3323  0.1153  0.0359
  649POPC   D2A 7782  16.482  -0.707  18.040 -0.1249  0.0909  0.1060
  649POPC   C3A 7783  16.191  -0.769  17.769  0.1441  0.0760 -0.2320
  649POPC   C4A 7784  16.037  -0.690  17.277 -0.0533 -0.0845 -0.1640
  649POPC   C1B 7785  16.106  -0.341  17.991  0.3234 -0.1435 -0.4138
  649POPC   C2B 7786  15.808  -0.419  17.703  0.2441 -0.0347  0.1214
  649POPC   C3B 7787  15.581  -0.181  17.398 -0.2757  0.2613 -0.0869
  649POPC   C4B 7788  15.521   0.144  17.052  0.0729 -0.0624 -0.3971
  650POPC   NC3 7789   9.551  12.878  19.248  0.0224  0.2654 -0.1592
  650POPC   PO4 7790   9.451  12.495  19.272  0.1102 -0.1454  0.3641
  650POPC   GL1 7791   9.414  12.396  18.888 -0.0116 -0.0065  0.2848
  650POPC   GL2 7792   9.657  12.506  18.769  0.2518  0.1110  0.3237
  650POPC   C1A 7793   9.543  12.023  18.593 -0.2397  0.0570 -0.5228
  650POPC   D2A 7794   9.399  11.591  18.555 -0.0700 -0.1318 -0.0575
  650POPC   C3A 7795   9.308  11.432  18.122  0.2811  0.2414  0.1416
  650POPC   C4A 7796   9.317  11.659  17.700  0.1043  0.0707  0.1219
  650POPC   C1B 7797   9.519  12.497  18.319 -0.0730  0.0910 -0.0990
  650POPC   C2B 7798   9.199  12.423  17.986 -0.1129  0.0097 -0.2524
  650POPC   C3B 7799   9.257  12.126  17.594 -0.0552 -0.1949  0.4851
  650POPC   C4B 7800   9.382  11.801  17.256 -0.1195 -0.1220 -0.0186
  651POPC   NC3 7801  17.466  22.722  19.039 -0.2574 -0.0121 -0.2580
  651POPC   PO4 7802  17.728  22.469  19.183  0.1372 -0.1213 -0.1259
  651POPC   GL1 7803  17.631  22.381  18.762  0.2492  0.1998 -0.1723
  651POPC   GL2 7804  17.380  22.245  18.815 -0.0910 -0.0445  0.0721
  651POPC   C1A 7805  17.433  22.419  18.337  0.0931 -0.0466  0.2798
  651POPC   D2A 7806  17.165  22.664  18.025  0.0481  0.2254  0.0148
  651POPC   C3A 7807  16.918  22.414  17.696 -0.0921  0.1785  0.0551
  651POPC   C4A 7808  16.814  22.389  17.238  0.1823 -0.0664  0.2877
  651POPC   C1B 7809  17.369  21.921  18.480 -0.0649 -0.2052  0.2652
  651POPC   C2B 7810  17.404  21.729  18.032  0.0377  0.3355  0.1011
  651POPC   C3B 7811  17.400  21.692  17.582 -0.2671  0.1182 -0.1230
  651POPC   C4B 7812  17.355  21.560  17.149  0.1039 -0.4211 -0.2619
  652POPC   NC3 7813  18.217  28.652  19.579  0.2208 -0.2630  0.4333
  652POPC   PO4 7814  17.950  28.339  19.577 -0.1305  0.0592 -0.0319
  652POPC   GL1 7815  17.860  28.475  19.233  0.0584 -0.0974 -0.0018
  652POPC   GL2 7816  18.118  28.556  19.027 -0.1054 -0.0076 -0.1809
  652POPC   C1A 7817  17.568  28.542  18.853  0.0058 -0.1719  0.0048
  652POPC   D2A 7818  17.556  28.305  18.538  0.1006  0.2317  0.0674
  652POPC   C3A 7819  17.756  28.431  18.109 -0.2360 -0.1046  0.3062
  652POPC   C4A 7820  17.744  28.260  17.695  0.2242  0.4157 -0.3465
  652POPC   C1B 7821  18.078  28.321  18.648  0.3591  0.1266  0.3401
  652POPC   C2B 7822  18.158  28.089  18.196  0.0806 -0.1581  0.2813
  652POPC   C3B 7823  18.104  27.827  17.788 -0.0745  0.1849 -0.0452
  652POPC   C4B 7824  18.097  27.471  17.494  0.2404 -0.2757  0.0298
  653POPC   NC3 7825   5.481  22.658  19.523 -0.0496  0.0080  0.0972
  653POPC   PO4 7826   5.547  23.049  19.451 -0.3253  0.0159  0.1105
  653POPC   GL1 7827   5.639  22.937  19.021 -0.1220 -0.0201 -0.3723
  653POPC   GL2 7828   5.486  22.718  19.029  0.1978  0.1960 -0.0436
  653POPC   C1A 7829   5.337  23.051  18.673 -0.1747  0.4617 -0.0380
  653POPC   D2A 7830   5.219  23.021  18.239 -0.1642 -0.0430 -0.0180
  653POPC   C3A 7831   5.180  23.193  17.810  0.3421 -0.0102  0.2441
  653POPC   C4A 7832   5.232  23.236  17.308  0.2156 -0.0018  0.1278
  653POPC   C1B 7833   5.757  22.727  18.641  0.2508 -0.0546 -0.3002
  653POPC   C2B 7834   5.589  22.732  18.244 -0.2155 -0.1487  0.0736
  653POPC   C3B 7835   5.476  22.802  17.858  0.0811 -0.0598  0.2872
  653POPC   C4B 7836   5.589  22.523  17.466  0.3659 -0.0005  0.2604
  654POPC   NC3 7837  13.652  31.500  18.373  0.1511  0.0377 -0.2860
  654POPC   PO4 7838  13.791  31.852  18.381  0.0170  0.0123 -0.0954
  654POPC   GL1 7839  13.692  31.742  17.947  0.1126  0.2136  0.1267
  654POPC   GL2 7840  14.004  31.731  17.908  0.1988  0.1476  0.0171
  654POPC   C1A 7841  13.726  31.926  17.481  0.2330 -0.0101 -0.2345
  654POPC   D2A 7842  13.602  31.673  17.092  0.2474  0.1996 -0.0468
  654POPC   C3A 7843  13.655  31.540  16.689  0.1315  0.2810 -0.0173
  654POPC   C4A 7844  13.355  31.419  16.367 -0.0801 -0.2303 -0.2425
  654POPC   C1B 7845  14.134  31.693  17.459  0.0831 -0.0410  0.3283
  654POPC   C2B 7846  14.042  31.792  17.003  0.0836  0.0067  0.3233
  654POPC   C3B 7847  13.912  32.056  16.640  0.0257 -0.0737 -0.1106
  654POPC   C4B 7848  13.655  31.878  16.326 -0.1570  0.3402 -0.0948
  655POPC   NC3 7849  11.600   1.639  19.166  0.0389  0.2695  0.1934
  655POPC   PO4 7850  11.406   1.581  19.501  0.1904  0.3014 -0.3806
  655POPC   GL1 7851  11.054   1.375  19.332  0.0199 -0.1095  0.1226
  655POPC   GL2 7852  11.209   1.317  19.116  0.2755 -0.0442 -0.1153
  655POPC   C1A 7853  10.602   1.388  19.275  0.4314  0.1059 -0.0855
  655POPC   D2A 7854  10.093   1.376  19.292  0.3447 -0.1652  0.0864
  655POPC   C3A 7855   9.837   1.608  19.617 -0.0054  0.2448 -0.2160
  655POPC   C4A 7856   9.677   1.602  20.089  0.1220 -0.0778  0.1842
  655POPC   C1B 7857  10.858   1.406  18.831 -0.2210  0.0064  0.1144
  655POPC   C2B 7858  10.411   1.452  18.697  0.0648 -0.3243 -0.0474
  655POPC   C3B 7859   9.953   1.426  18.778 -0.3142 -0.3298  0.3805
  655POPC   C4B 7860   9.631   1.195  18.471 -0.0891 -0.4567  0.3073
  656POPC   NC3 7861  28.859  22.084  19.281 -0.2185 -0.1283 -0.2528
  656POPC   PO4 7862  29.061  21.787  19.185 -0.0266  0.1793 -0.2148
  656POPC   GL1 7863  29.178  21.934  18.876  0.0437  0.1841  0.1104
  656POPC   GL2 7864  29.066  22.117  18.686  0.0267 -0.1061  0.0402
  656POPC   C1A 7865  29.500  21.888  18.520 -0.2307 -0.0501  0.2749
  656POPC   D2A 7866  29.693  22.096  18.136  0.0440 -0.0546 -0.1693
  656POPC   C3A 7867  30.013  21.907  17.838 -0.0078  0.1973 -0.1858
  656POPC   C4A 7868  29.943  21.613  17.494  0.1548 -0.0349  0.1641
  656POPC   C1B 7869  29.199  22.230  18.232  0.0345  0.2245 -0.2175
  656POPC   C2B 7870  29.406  22.314  17.834 -0.0526  0.3276 -0.2492
  656POPC   C3B 7871  29.491  22.121  17.421  0.1052 -0.1543  0.1082
  656POPC   C4B 7872  29.421  21.678  17.273 -0.0004  0.1297 -0.3146
  657POPC   NC3 7873   2.475  21.540  19.459 -0.1969 -0.0046  0.1697
  657POPC   PO4 7874   2.118  21.687  19.351 -0.1031  0.3370 -0.3106
  657POPC   GL1 7875   2.182  21.531  19.055 -0.1746  0.2304  0.4552
  657POPC   GL2 7876   2.447  21.476  18.930 -0.0692 -0.1070  0.0010
  657POPC   C1A 7877   1.954  21.596  18.616 -0.0733  0.3074  0.2412
  657POPC   D2A 7878   1.940  21.701  18.174  0.1036 -0.0302 -0.2491
  657POPC   C3A 7879   2.012  21.374  17.901 -0.1385 -0.1110  0.0422
  657POPC   C4A 7880   2.447  21.269  17.713 -0.0578  0.0304  0.4866
  657POPC   C1B 7881   2.405  21.707  18.521  0.1310 -0.1627  0.0185
  657POPC   C2B 7882   2.468  21.794  18.070 -0.1643  0.1740  0.2057
  657POPC   C3B 7883   2.578  22.022  17.647  0.1177  0.0689 -0.1048
  657POPC   C4B 7884   2.719  22.370  17.339  0.0164  0.3279  0.0589
  658POPC   NC3 7885   5.726  30.986  19.559 -0.1975  0.1736  0.0041
  658POPC   PO4 7886   5.854  30.640  19.416  0.0561  0.1427 -0.1043
  658POPC   GL1 7887   6.229  30.484  19.256 -0.1224 -0.3230 -0.1593
  658POPC   GL2 7888   6.075  30.210  19.113  0.0078  0.0014  0.0141
  658POPC   C1A 7889   6.329  30.466  18.809 -0.0754 -0.1294  0.2728
  658POPC   D2A 7890   6.434  30.216  18.450  0.0599  0.0305  0.3121
  658POPC   C3A 7891   6.187  30.300  18.105 -0.1442 -0.1599  0.1487
  658POPC   C4A 7892   5.989  30.483  17.731 -0.2197  0.1707  0.1459
  658POPC   C1B 7893   6.064  29.830  18.852  0.0149 -0.0630 -0.2481
  658POPC   C2B 7894   5.944  29.903  18.404  0.0450 -0.1621 -0.2177
  658POPC   C3B 7895   5.982  29.907  17.938 -0.3221  0.3387 -0.0285
  658POPC   C4B 7896   5.954  29.910  17.507 -0.2366 -0.1299 -0.3200
  659POPC   NC3 7897  18.238  13.100  18.986 -0.0040  0.1150  0.0453
  659POPC   PO4 7898  18.603  12.946  19.021  0.2789  0.1374 -0.0756
  659POPC   GL1 7899  18.597  12.738  18.679 -0.0018  0.2703 -0.1332
  659POPC   GL2 7900  18.325  12.645  18.752 -0.1141  0.1314  0.2588
  659POPC   C1A 7901  18.818  12.976  18.354  0.0969 -0.1051  0.1420
  659POPC   D2A 7902  18.887  13.171  17.908  0.2399 -0.2089  0.2561
  659POPC   C3A 7903  19.322  13.232  17.765 -0.0418  0.0028 -0.0423
  659POPC   C4A 7904  19.385  13.701  17.767  0.1290 -0.1227  0.1422
  659POPC   C1B 7905  18.523  12.508  18.325 -0.1499  0.2317 -0.3490
  659POPC   C2B 7906  18.606  12.611  17.856 -0.1057  0.3393  0.0732
  659POPC   C3B 7907  18.642  12.684  17.397  0.0529  0.0096 -0.0505
  659POPC   C4B 7908  18.606  12.377  17.038 -0.3814 -0.2133  0.0158
  660POPC   NC3 7909  13.156  23.649  19.427 -0.2184 -0.1306  0.0340
  660POPC   PO4 7910  13.338  23.995  19.342 -0.0072 -0.1066  0.1946
  660POPC   GL1 7911  13.201  24.047  19.013  0.3059 -0.0074  0.1801
  660POPC   GL2 7912  13.037  23.759  18.927 -0.2695  0.0563  0.5035
  660POPC   C1A 7913  13.201  24.352  18.713 -0.1089 -0.1578 -0.1493
  660POPC   D2A 7914  13.217  24.373  18.250 -0.0602 -0.1164  0.1606
  660POPC   C3A 7915  12.817  24.234  18.087  0.1900 -0.0051  0.2161
  660POPC   C4A 7916  12.399  24.078  18.147  0.0199  0.0750 -0.3967
  660POPC   C1B 7917  13.038  23.938  18.460 -0.2924 -0.1729 -0.0516
  660POPC   C2B 7918  13.166  23.884  18.003 -0.2231 -0.0941 -0.1041
  660POPC   C3B 7919  13.155  23.946  17.559  0.0010  0.0891 -0.0841
  660POPC   C4B 7920  12.899  24.308  17.393 -0.3160 -0.0466  0.2569
  661POPC   NC3 7921  21.343  21.596  19.486  0.0274  0.1810  0.0095
  661POPC   PO4 7922  21.432  21.697  19.111 -0.1271  0.0342  0.0714
  661POPC   GL1 7923  21.413  21.435  18.826 -0.1764  0.1374 -0.5792
  661POPC   GL2 7924  21.340  21.169  18.879 -0.2286  0.0344 -0.1979
  661POPC   C1A 7925  21.299  21.485  18.430  0.1499 -0.3408  0.0083
  661POPC   D2A 7926  21.289  21.237  17.999  0.0041 -0.1087  0.2334
  661POPC   C3A 7927  21.303  20.752  17.975 -0.0347  0.0143  0.0340
  661POPC   C4A 7928  21.408  20.330  17.822 -0.0262  0.2724 -0.0757
  661POPC   C1B 7929  21.607  20.991  18.559  0.1212  0.1955  0.0829
  661POPC   C2B 7930  21.726  20.604  18.280  0.4189  0.1715 -0.0863
  661POPC   C3B 7931  21.983  20.357  18.025 -0.0236  0.0623  0.0312
  661POPC   C4B 7932  22.365  20.062  17.994 -0.1486  0.0552 -0.3109
  662POPC   NC3 7933  22.480   6.489  19.749 -0.1884  0.1811  0.0925
  662POPC   PO4 7934  22.261   6.433  19.443 -0.1681  0.0977  0.1311
  662POPC   GL1 7935  22.247   6.578  19.045  0.1330  0.1935  0.0836
  662POPC   GL2 7936  22.002   6.543  18.962 -0.0911 -0.1988 -0.1887
  662POPC   C1A 7937  22.495   6.566  18.627  0.0149  0.0703  0.0881
  662POPC   D2A 7938  22.282   6.610  18.230  0.1559 -0.3022 -0.2386
  662POPC   C3A 7939  21.864   6.513  18.264  0.4939  0.0564  0.1640
  662POPC   C4A 7940  21.572   6.190  18.138 -0.3009 -0.2583 -0.2152
  662POPC   C1B 7941  21.697   6.756  18.709 -0.0850 -0.4110 -0.0355
  662POPC   C2B 7942  21.445   6.789  18.325  0.1991  0.0354 -0.2382
  662POPC   C3B 7943  21.267   6.719  17.895 -0.2087  0.1106  0.2219
  662POPC   C4B 7944  21.040   6.363  17.757  0.2295 -0.1769 -0.2878
  663POPC   NC3 7945  14.636  25.320  19.367 -0.1377  0.1719  0.5124
  663POPC   PO4 7946  14.692  25.037  19.117  0.1553  0.3409 -0.0836
  663POPC   GL1 7947  14.309  25.184  19.015  0.2133 -0.3552  0.0135
  663POPC   GL2 7948  14.433  25.387  18.804 -0.2341  0.0031 -0.0633
  663POPC   C1A 7949  14.003  25.113  18.686  0.1277  0.4389 -0.0101
  663POPC   D2A 7950  13.778  24.968  18.289 -0.2107 -0.0428 -0.0111
  663POPC   C3A 7951  14.003  25.082  17.867 -0.1357  0.6259 -0.1993
  663POPC   C4A 7952  14.285  25.226  17.414  0.1127 -0.4090  0.0224
  663POPC   C1B 7953  14.452  25.591  18.394  0.2155 -0.0739 -0.2114
  663POPC   C2B 7954  14.607  25.605  17.970  0.1581  0.2901  0.1521
  663POPC   C3B 7955  14.530  25.701  17.537  0.2683 -0.0385  0.1161
  663POPC   C4B 7956  14.403  25.610  17.133 -0.2572 -0.0754 -0.0909
  664POPC   NC3 7957   1.299  18.168  19.628 -0.1243  0.1506  0.1580
  664POPC   PO4 7958   1.582  18.275  19.383 -0.0320  0.5303 -0.0621
  664POPC   GL1 7959   1.434  18.184  18.956  0.0516  0.0751 -0.1157
  664POPC   GL2 7960   1.084  18.261  19.020 -0.1303 -0.0510  0.4271
  664POPC   C1A 7961   1.517  18.340  18.555 -0.0589  0.4313  0.0431
  664POPC   D2A 7962   1.671  18.378  18.101  0.0627  0.2480  0.3234
  664POPC   C3A 7963   1.775  18.299  17.609  0.3542 -0.0909 -0.3394
  664POPC   C4A 7964   2.043  18.226  17.192  0.0405 -0.2573 -0.1428
  664POPC   C1B 7965   0.984  18.278  18.604 -0.0897  0.1413  0.0812
  664POPC   C2B 7966   1.168  18.199  18.180 -0.0452 -0.3138  0.2580
  664POPC   C3B 7967   1.354  17.979  17.848 -0.1852  0.2182  0.2163
  664POPC   C4B 7968   1.253  17.869  17.445 -0.0384  0.1037  0.1705
  665POPC   NC3 7969   8.860  11.775  19.663  0.1830  0.0349  0.3305
  665POPC   PO4 7970   8.905  12.043  19.389  0.1739  0.1497  0.3330
  665POPC   GL1 7971   8.830  11.979  19.075 -0.0864 -0.0602 -0.0028
  665POPC   GL2 7972   8.612  12.058  18.950 -0.0306  0.0850 -0.1510
  665POPC   C1A 7973   9.020  12.228  18.719 -0.3102  0.2753  0.0509
  665POPC   D2A 7974   8.852  12.602  18.461 -0.1116  0.0397  0.0951
  665POPC   C3A 7975   9.175  12.849  18.194  0.2741 -0.0373 -0.3393
  665POPC   C4A 7976   9.145  13.133  17.853 -0.0479 -0.1820  0.1745
  665POPC   C1B 7977   8.429  12.113  18.561  0.0026  0.1969 -0.3166
  665POPC   C2B 7978   8.353  11.813  18.205 -0.4360 -0.0625  0.0067
  665POPC   C3B 7979   8.296  11.989  17.739  0.0102 -0.3528 -0.3899
  665POPC   C4B 7980   8.053  11.889  17.371  0.0021  0.3669  0.0097
  666POPC   NC3 7981  24.626  10.635  19.189  0.1514 -0.2716 -0.1678
  666POPC   PO4 7982  24.717  10.330  19.049  0.1155 -0.1372 -0.1302
  666POPC   GL1 7983  24.760  10.152  18.803  0.2154  0.2518 -0.5492
  666POPC   GL2 7984  24.784  10.289  18.532 -0.0414  0.0156  0.2053
  666POPC   C1A 7985  24.949   9.799  18.545 -0.2674  0.3323 -0.0611
  666POPC   D2A 7986  24.746   9.728  18.094 -0.0764 -0.0985 -0.0372
  666POPC   C3A 7987  24.388   9.833  17.859  0.1460  0.4310  0.2683
  666POPC   C4A 7988  24.242   9.821  17.387  0.3038 -0.1785 -0.2861
  666POPC   C1B 7989  24.920  10.427  18.114 -0.5288  0.2015 -0.0373
  666POPC   C2B 7990  24.921  10.187  17.741 -0.2130 -0.0967 -0.2554
  666POPC   C3B 7991  24.756   9.979  17.381 -0.3228 -0.3064  0.3101
  666POPC   C4B 7992  24.565   9.621  17.145  0.0665 -0.1056  0.0678
  667POPC   NC3 7993   9.470   9.820  19.437 -0.0544  0.2577 -0.0388
  667POPC   PO4 7994   9.573   9.553  19.751  0.0941 -0.0540  0.0607
  667POPC   GL1 7995   9.710   9.366  19.508  0.0718  0.0637  0.0047
  667POPC   GL2 7996   9.929   9.513  19.438  0.2404 -0.0945  0.3467
  667POPC   C1A 7997   9.646   9.364  19.067  0.1039  0.1639 -0.0310
  667POPC   D2A 7998   9.459   9.236  18.714 -0.0961 -0.0635  0.0964
  667POPC   C3A 7999   9.695   9.342  18.378 -0.0954 -0.0187  0.0924
  667POPC   C4A 8000   9.683   9.619  17.996 -0.0407 -0.2942 -0.0684
  667POPC   C1B 8001  10.407   9.358  19.357 -0.3700  0.3372  0.2686
  667POPC   C2B 8002  10.651   9.362  18.976 -0.0658 -0.1366  0.4200
  667POPC   C3B 8003  10.899   9.274  18.528  0.1739  0.0593  0.1407
  667POPC   C4B 8004  11.246   9.195  18.268  0.1972  0.1067  0.2788
  668POPC   NC3 8005  29.591  27.400  19.245 -0.1977 -0.0340 -0.1891
  668POPC   PO4 8006  29.740  27.039  19.265  0.2757 -0.0189  0.1001
  668POPC   GL1 8007  29.875  26.932  18.910  0.2635 -0.0920 -0.0401
  668POPC   GL2 8008  29.851  26.655  18.985 -0.1212  0.0099  0.3418
  668POPC   C1A 8009  30.137  27.155  18.646 -0.1270 -0.1282 -0.1509
  668POPC   D2A 8010  30.242  27.550  18.394 -0.0626  0.0986 -0.2961
  668POPC   C3A 8011  30.145  27.501  17.916 -0.2857 -0.4033  0.0606
  668POPC   C4A 8012  29.794  27.567  17.674 -0.1935  0.1086  0.0203
  668POPC   C1B 8013  29.814  26.631  18.498 -0.0685 -0.1657  0.0337
  668POPC   C2B 8014  30.043  26.708  18.105 -0.0899 -0.0609  0.1995
  668POPC   C3B 8015  29.986  26.570  17.673 -0.1835 -0.1385  0.2720
  668POPC   C4B 8016  29.832  26.663  17.295 -0.4229  0.2163  0.3966
  669POPC   NC3 8017   8.213  28.199  19.291  0.1600 -0.2173 -0.1430
  669POPC   PO4 8018   8.349  28.264  18.949 -0.2806 -0.0599 -0.2167
  669POPC   GL1 8019   8.515  28.238  18.582 -0.1946  0.3507  0.1117
  669POPC   GL2 8020   8.740  28.417  18.447 -0.3186  0.2233 -0.2271
  669POPC   C1A 8021   8.723  28.092  18.149  0.2401  0.2929 -0.2614
  669POPC   D2A 8022   8.953  28.095  17.733 -0.0080 -0.5126  0.2366
  669POPC   C3A 8023   9.301  27.791  17.667 -0.0380 -0.0312  0.0064
  669POPC   C4A 8024   9.376  27.456  17.378 -0.0726  0.0669  0.3756
  669POPC   C1B 8025   8.865  28.625  18.032  0.2121 -0.1718 -0.0902
  669POPC   C2B 8026   8.911  28.725  17.602 -0.3450 -0.0021 -0.1670
  669POPC   C3B 8027   8.853  29.002  17.256 -0.1044  0.1009  0.1279
  669POPC   C4B 8028   8.712  29.310  16.928 -0.0957  0.2215 -0.0633
  670POPC   NC3 8029  25.478   7.037  19.469  0.0972  0.1302 -0.0733
  670POPC   PO4 8030  25.651   7.359  19.578 -0.0476 -0.0496 -0.1501
  670POPC   GL1 8031  25.688   7.599  19.228 -0.1818 -0.1257 -0.2869
  670POPC   GL2 8032  25.505   7.401  19.053 -0.2529 -0.4825 -0.3105
  670POPC   C1A 8033  25.776   7.778  18.793 -0.3156  0.1053 -0.0598
  670POPC   D2A 8034  25.949   7.771  18.336 -0.1679 -0.0038 -0.1621
  670POPC   C3A 8035  26.016   7.405  18.076  0.1493 -0.0514  0.0997
  670POPC   C4A 8036  25.883   6.963  17.931  0.2780 -0.1077  0.0754
  670POPC   C1B 8037  25.376   7.465  18.641  0.2013  0.2999  0.0396
  670POPC   C2B 8038  25.404   7.555  18.181  0.0889  0.0044 -0.1094
  670POPC   C3B 8039  25.562   7.566  17.721 -0.2401 -0.0837  0.2288
  670POPC   C4B 8040  25.711   7.181  17.509 -0.5346  0.0796 -0.0043
  671POPC   NC3 8041  27.800  14.802  18.994 -0.0744  0.0065 -0.1492
  671POPC   PO4 8042  27.444  14.955  19.140  0.0333  0.1671  0.2104
  671POPC   GL1 8043  27.490  15.196  18.740 -0.1766  0.2056 -0.0104
  671POPC   GL2 8044  27.541  15.414  18.878 -0.2551  0.1448  0.4230
  671POPC   C1A 8045  27.855  15.177  18.532 -0.0724  0.0642  0.2196
  671POPC   D2A 8046  27.896  15.112  18.044 -0.1664 -0.1665 -0.3339
  671POPC   C3A 8047  28.242  15.150  17.828  0.1043 -0.2784 -0.0831
  671POPC   C4A 8048  28.432  15.199  17.417  0.4325  0.3267 -0.2494
  671POPC   C1B 8049  27.534  15.644  18.512  0.1232  0.0426  0.0606
  671POPC   C2B 8050  27.554  15.666  18.052 -0.6389 -0.1323 -0.0916
  671POPC   C3B 8051  27.558  15.316  17.670 -0.2744 -0.1522 -0.0848
  671POPC   C4B 8052  27.940  15.167  17.438  0.1781  0.1361 -0.1366
  672POPC   NC3 8053   4.990  19.527  19.926  0.3109  0.2443 -0.1311
  672POPC   PO4 8054   4.898  19.314  19.593 -0.0947  0.3173 -0.1661
  672POPC   GL1 8055   4.920  19.284  19.187 -0.1408 -0.2785  0.0894
  672POPC   GL2 8056   5.104  19.416  19.038 -0.1128 -0.2351  0.1767
  672POPC   C1A 8057   4.872  18.944  18.780 -0.2363  0.1188 -0.2915
  672POPC   D2A 8058   4.831  19.001  18.305  0.2402 -0.1131 -0.1044
  672POPC   C3A 8059   5.115  18.919  17.985 -0.0555 -0.0251  0.0328
  672POPC   C4A 8060   5.191  18.875  17.595  0.0388 -0.0144  0.3226
  672POPC   C1B 8061   4.997  19.386  18.592  0.0773  0.1031 -0.0256
  672POPC   C2B 8062   4.929  19.500  18.162  0.0727  0.0714  0.0058
  672POPC   C3B 8063   4.864  19.338  17.767  0.0758 -0.1686  0.0411
  672POPC   C4B 8064   4.970  19.553  17.361 -0.1996 -0.1355 -0.0784
  673POPC   NC3 8065  23.536   5.890  19.140  0.0535  0.0237  0.0585
  673POPC   PO4 8066  23.267   5.681  19.297  0.0075  0.1691  0.2295
  673POPC   GL1 8067  23.127   5.719  18.914 -0.0521  0.1971 -0.6371
  673POPC   GL2 8068  22.887   6.028  18.837 -0.0349 -0.1289  0.1850
  673POPC   C1A 8069  23.252   5.808  18.448 -0.0516 -0.0077  0.0210
  673POPC   D2A 8070  23.142   6.170  18.246  0.2058  0.0396  0.3242
  673POPC   C3A 8071  23.049   6.196  17.809  0.1213  0.0209 -0.2268
  673POPC   C4A 8072  22.820   5.984  17.511 -0.2240 -0.0668  0.2526
  673POPC   C1B 8073  22.687   6.049  18.447  0.2637  0.1015  0.2161
  673POPC   C2B 8074  22.595   6.301  18.037 -0.2079  0.0062  0.1023
  673POPC   C3B 8075  22.286   6.366  17.662  0.0645 -0.0331  0.1496
  673POPC   C4B 8076  21.958   6.255  17.333  0.1131 -0.2060  0.2608
  674POPC   NC3 8077  17.841  23.442  19.275  0.0967 -0.0184  0.3356
  674POPC   PO4 8078  17.942  23.068  19.228  0.3321  0.2800 -0.3100
  674POPC   GL1 8079  17.953  23.007  18.823 -0.1043  0.0623  0.0953
  674POPC   GL2 8080  17.971  22.740  18.785 -0.2536 -0.0315 -0.1214
  674POPC   C1A 8081  18.190  23.050  18.451 -0.5330  0.0653 -0.2069
  674POPC   D2A 8082  18.403  23.246  18.154  0.0437  0.0961 -0.2919
  674POPC   C3A 8083  18.773  23.074  17.934  0.1677 -0.0002 -0.0093
  674POPC   C4A 8084  19.016  22.709  18.002  0.4017 -0.0024 -0.0861
  674POPC   C1B 8085  17.870  22.579  18.388 -0.4910 -0.1119  0.1014
  674POPC   C2B 8086  17.709  22.553  17.931 -0.3116  0.0149  0.0378
  674POPC   C3B 8087  18.049  22.330  17.583  0.0043 -0.0911 -0.2476
  674POPC   C4B 8088  18.297  22.428  17.231 -0.0625  0.0019  0.2477
  675POPC   NC3 8089  26.758   7.852  19.494 -0.2868 -0.0295  0.0867
  675POPC   PO4 8090  26.992   8.179  19.422  0.0587 -0.0995  0.1292
  675POPC   GL1 8091  26.936   8.283  19.040  0.0488 -0.0800  0.0130
  675POPC   GL2 8092  27.100   8.467  18.935  0.0515 -0.1402  0.2675
  675POPC   C1A 8093  26.689   8.258  18.705 -0.1105 -0.1520  0.0944
  675POPC   D2A 8094  26.455   8.447  18.372 -0.0959 -0.0981 -0.2142
  675POPC   C3A 8095  26.521   8.074  18.180 -0.4093  0.0219  0.0014
  675POPC   C4A 8096  26.887   7.936  17.960  0.1608 -0.0967  0.0988
  675POPC   C1B 8097  26.926   8.694  18.578  0.2336 -0.0523 -0.0234
  675POPC   C2B 8098  26.999   8.971  18.177 -0.0587  0.0360 -0.2763
  675POPC   C3B 8099  27.044   9.076  17.701  0.1364 -0.0570  0.1146
  675POPC   C4B 8100  26.988   9.291  17.308 -0.1936 -0.0297  0.0235
  676POPC   NC3 8101   9.872   6.722  19.415 -0.0538 -0.2894  0.0768
  676POPC   PO4 8102   9.538   6.863  19.501 -0.0679 -0.0336  0.0085
  676POPC   GL1 8103   9.398   6.847  19.200 -0.2411  0.0370 -0.3365
  676POPC   GL2 8104   9.427   7.207  19.161 -0.1282 -0.1977  0.0552
  676POPC   C1A 8105   9.444   6.894  18.744 -0.2746 -0.2507  0.0103
  676POPC   D2A 8106   9.643   7.076  18.327 -0.0943  0.1011 -0.0965
  676POPC   C3A 8107   9.725   6.977  17.869  0.0449  0.1024  0.0359
  676POPC   C4A 8108   9.629   6.762  17.477 -0.1026 -0.3892 -0.0394
  676POPC   C1B 8109   9.486   7.484  18.804 -0.0323  0.3280 -0.2066
  676POPC   C2B 8110   9.802   7.614  18.434 -0.1678  0.0084  0.2639
  676POPC   C3B 8111   9.972   7.861  18.086  0.2240  0.1611 -0.2363
  676POPC   C4B 8112  10.063   7.989  17.656 -0.3229  0.2764  0.1934
  677POPC   NC3 8113  14.748  21.307  19.862 -0.1008  0.0251  0.1042
  677POPC   PO4 8114  15.106  21.440  19.824 -0.2419  0.0792 -0.1041
  677POPC   GL1 8115  14.988  21.377  19.440  0.1663 -0.0601  0.0996
  677POPC   GL2 8116  15.096  21.141  19.421 -0.0484 -0.1715  0.1746
  677POPC   C1A 8117  14.789  21.376  19.007  0.0568 -0.0264 -0.1205
  677POPC   D2A 8118  14.968  21.536  18.629 -0.0824  0.2440  0.0957
  677POPC   C3A 8119  14.678  21.653  18.231 -0.1387 -0.2045  0.3125
  677POPC   C4A 8120  14.551  21.765  17.741  0.0420 -0.0001 -0.0551
  677POPC   C1B 8121  15.312  20.776  19.229  0.1210  0.0248 -0.0239
  677POPC   C2B 8122  15.683  20.653  19.122 -0.1203 -0.0031  0.0771
  677POPC   C3B 8123  16.082  20.509  19.275 -0.1315 -0.0405 -0.0066
  677POPC   C4B 8124  16.211  20.032  19.146  0.2437  0.0363  0.2914
  678POPC   NC3 8125  19.157   0.188  19.562 -0.0967 -0.0375  0.0282
  678POPC   PO4 8126  19.534   0.054  19.469 -0.0151  0.2114 -0.2139
  678POPC   GL1 8127  19.541  -0.090  19.051 -0.0361 -0.1404  0.2561
  678POPC   GL2 8128  19.698  -0.347  19.025  0.0907  0.0520 -0.3560
  678POPC   C1A 8129  19.336   0.051  18.686 -0.0140  0.2156  0.4092
  678POPC   D2A 8130  19.331   0.280  18.314  0.1896 -0.3785  0.1218
  678POPC   C3A 8131  19.212   0.461  17.871  0.0445  0.3923 -0.1810
  678POPC   C4A 8132  18.940   0.618  17.550  0.2957 -0.0448  0.0883
  678POPC   C1B 8133  19.718  -0.383  18.536 -0.0460  0.2901 -0.2445
  678POPC   C2B 8134  19.562  -0.340  18.154  0.0991 -0.0795  0.0058
  678POPC   C3B 8135  19.680  -0.232  17.742 -0.2234  0.2656  0.0794
  678POPC   C4B 8136  19.537  -0.264  17.291  0.0025 -0.2868  0.1511
  679POPC   NC3 8137  14.348  24.693  18.981  0.0174 -0.0779  0.4446
  679POPC   PO4 8138  14.689  24.489  18.959  0.1471 -0.3366 -0.0272
  679POPC   GL1 8139  14.709  24.685  18.605  0.3748  0.4258 -0.1836
  679POPC   GL2 8140  14.744  24.961  18.647  0.0252 -0.1086 -0.1423
  679POPC   C1A 8141  14.644  24.683  18.146  0.0067 -0.0463  0.1907
  679POPC   D2A 8142  14.329  24.638  17.804  0.2133 -0.3927 -0.0994
  679POPC   C3A 8143  14.368  24.655  17.355  0.1788 -0.3708  0.0317
  679POPC   C4A 8144  14.383  24.872  16.906 -0.2074 -0.2583  0.2481
  679POPC   C1B 8145  15.074  24.886  18.317  0.1269 -0.1474  0.1552
  679POPC   C2B 8146  15.136  24.720  17.905  0.0362 -0.4125 -0.1540
  679POPC   C3B 8147  15.299  24.732  17.508 -0.4564  0.1602 -0.0614
  679POPC   C4B 8148  14.981  24.745  17.141  0.0052  0.1173 -0.2766
  680POPC   NC3 8149  10.210   6.739  20.020  0.1537 -0.0620 -0.3541
  680POPC   PO4 8150  10.298   6.529  19.669 -0.0688 -0.1510 -0.2898
  680POPC   GL1 8151  10.340   6.855  19.501  0.0157  0.1041 -0.0575
  680POPC   GL2 8152  10.577   6.748  19.335 -0.1833 -0.0925  0.1917
  680POPC   C1A 8153  10.343   7.135  19.126 -0.2477  0.1382  0.3293
  680POPC   D2A 8154  10.623   7.334  18.764  0.2146 -0.1761  0.2644
  680POPC   C3A 8155  10.810   7.676  18.994 -0.2222 -0.3568 -0.3914
  680POPC   C4A 8156  11.102   7.778  19.345 -0.2306  0.3448 -0.2029
  680POPC   C1B 8157  10.901   6.867  19.020 -0.1021  0.0551  0.2412
  680POPC   C2B 8158  11.010   7.020  18.611 -0.0288 -0.0568 -0.0044
  680POPC   C3B 8159  11.108   7.057  18.147 -0.0159  0.0029 -0.1699
  680POPC   C4B 8160  11.170   7.282  17.779 -0.2727  0.1146  0.2504
  681POPC   NC3 8161  20.634   0.111  19.309  0.0737  0.0671  0.1084
  681POPC   PO4 8162  20.966  -0.077  19.342  0.0025 -0.1093  0.1250
  681POPC   GL1 8163  20.814  -0.447  19.181 -0.0647 -0.1919  0.2802
  681POPC   GL2 8164  20.782  -0.410  18.937  0.2279  0.0309  0.1809
  681POPC   C1A 8165  21.152  -0.769  19.102 -0.0662  0.0805  0.0077
  681POPC   D2A 8166  21.317  -1.139  18.908 -0.2956 -0.2840 -0.0590
  681POPC   C3A 8167  21.700  -1.375  18.831 -0.1534 -0.2810  0.2693
  681POPC   C4A 8168  21.828  -1.741  18.592 -0.0719 -0.1655 -0.0489
  681POPC   C1B 8169  20.723  -0.543  18.501  0.2176 -0.0635 -0.0524
  681POPC   C2B 8170  20.772  -0.697  18.044  0.1913 -0.0268 -0.0206
  681POPC   C3B 8171  21.068  -0.607  17.637 -0.2169  0.0778  0.1005
  681POPC   C4B 8172  21.384  -0.821  17.442  0.0939  0.2226  0.0964
  682POPC   NC3 8173  20.067  18.936  18.988  0.0476  0.1400 -0.0807
  682POPC   PO4 8174  20.165  18.637  19.269 -0.0253 -0.0467  0.2601
  682POPC   GL1 8175  20.444  19.004  19.263  0.1300 -0.0637  0.0170
  682POPC   GL2 8176  20.557  19.074  18.956  0.2637 -0.2296  0.2562
  682POPC   C1A 8177  20.899  19.059  19.346  0.1640  0.2454  0.0535
  682POPC   D2A 8178  21.312  18.989  19.354 -0.0501  0.1429  0.2005
  682POPC   C3A 8179  21.517  18.880  18.988  0.1313 -0.2050  0.2951
  682POPC   C4A 8180  21.791  18.676  18.643  0.1193  0.2828  0.1139
  682POPC   C1B 8181  20.367  19.073  18.557 -0.1180 -0.1668 -0.3078
  682POPC   C2B 8182  20.512  19.026  18.116 -0.0674  0.1689  0.0601
  682POPC   C3B 8183  20.753  19.273  17.807  0.2011 -0.0953 -0.1815
  682POPC   C4B 8184  20.743  19.657  17.557  0.0387 -0.0445  0.0007
  683POPC   NC3 8185  11.518   4.345  19.121  0.0941  0.0710  0.2167
  683POPC   PO4 8186  11.749   4.078  19.326 -0.1706  0.3633  0.5541
  683POPC   GL1 8187  11.755   3.923  18.974  0.2983 -0.2032  0.1603
  683POPC   GL2 8188  11.981   3.754  19.006 -0.1983  0.1804 -0.1402
  683POPC   C1A 8189  11.632   4.060  18.587  0.0026  0.2548 -0.0290
  683POPC   D2A 8190  11.634   3.986  18.106  0.0261  0.2755  0.0879
  683POPC   C3A 8191  11.525   4.047  17.640  0.3892 -0.2050  0.1067
  683POPC   C4A 8192  11.294   4.267  17.307 -0.0123 -0.0629 -0.1595
  683POPC   C1B 8193  12.109   3.919  18.587  0.0635  0.3329  0.2554
  683POPC   C2B 8194  12.101   3.907  18.167  0.2422  0.3395  0.5063
  683POPC   C3B 8195  12.304   3.916  17.741  0.4960 -0.2568  0.2615
  683POPC   C4B 8196  12.678   4.019  17.438 -0.1278  0.0921  0.0086
  684POPC   NC3 8197  22.943  20.667  19.742  0.2612  0.0579 -0.2101
  684POPC   PO4 8198  23.014  20.795  19.394  0.0078 -0.0730 -0.0501
  684POPC   GL1 8199  23.242  20.416  19.254 -0.1137 -0.1192  0.0927
  684POPC   GL2 8200  23.356  20.124  19.400  0.1758 -0.4227 -0.0208
  684POPC   C1A 8201  22.939  20.125  19.042  0.1311 -0.0550  0.2150
  684POPC   D2A 8202  22.727  19.678  19.161 -0.0222  0.0196  0.0823
  684POPC   C3A 8203  22.650  19.500  18.720  0.0195  0.3141  0.4646
  684POPC   C4A 8204  22.567  19.553  18.253 -0.0994  0.4051 -0.1424
  684POPC   C1B 8205  23.213  19.654  19.216  0.2875  0.0127  0.2440
  684POPC   C2B 8206  23.116  19.291  18.935 -0.1587  0.0661  0.2139
  684POPC   C3B 8207  22.918  19.043  18.585  0.3011 -0.4202  0.2264
  684POPC   C4B 8208  22.717  18.714  18.319 -0.0529 -0.0372 -0.0541
  685POPC   NC3 8209   1.484   4.334  19.752 -0.1391  0.2370  0.1994
  685POPC   PO4 8210   1.099   4.283  19.791 -0.0797 -0.1703  0.0739
  685POPC   GL1 8211   1.092   4.570  19.564  0.3926  0.0241  0.2959
  685POPC   GL2 8212   1.308   4.598  19.324 -0.2138 -0.1759  0.3809
  685POPC   C1A 8213   0.933   4.952  19.622 -0.2293 -0.2503  0.0530
  685POPC   D2A 8214   0.717   5.341  19.490  0.2320  0.1059  0.4056
  685POPC   C3A 8215   0.553   5.781  19.378  0.0820 -0.4778 -0.1324
  685POPC   C4A 8216   0.726   6.198  19.277  0.3057  0.2624 -0.0048
  685POPC   C1B 8217   1.117   4.827  19.021 -0.0320 -0.3086 -0.2625
  685POPC   C2B 8218   0.958   4.931  18.575 -0.0147 -0.2305 -0.0916
  685POPC   C3B 8219   0.802   5.160  18.209 -0.0197  0.2324 -0.2302
  685POPC   C4B 8220   0.653   5.575  18.048  0.0684 -0.2265 -0.0319
  686POPC   NC3 8221  17.279  16.307  18.973 -0.2574  0.1282 -0.2130
  686POPC   PO4 8222  16.921  16.212  19.028  0.1140 -0.2289  0.1310
  686POPC   GL1 8223  16.822  16.113  18.783 -0.2561  0.0635  0.1548
  686POPC   GL2 8224  16.828  16.398  18.593  0.1147 -0.0607 -0.1790
  686POPC   C1A 8225  16.398  16.060  18.628 -0.2079 -0.0496  0.1614
  686POPC   D2A 8226  16.141  16.052  18.251  0.2721  0.2080  0.4820
  686POPC   C3A 8227  16.253  15.974  17.816  0.0027  0.0063  0.0132
  686POPC   C4A 8228  16.377  16.098  17.382 -0.1307 -0.0249 -0.0974
  686POPC   C1B 8229  16.710  16.303  18.190 -0.0851  0.0044  0.1391
  686POPC   C2B 8230  16.778  16.161  17.744 -0.1335 -0.0238  0.2257
  686POPC   C3B 8231  16.846  16.210  17.265  0.0021 -0.4102  0.0433
  686POPC   C4B 8232  16.580  16.155  16.888 -0.0152  0.2439  0.0815
  687POPC   NC3 8233   7.758   4.707  19.034  0.3205  0.3736  0.1117
  687POPC   PO4 8234   8.091   4.565  19.108 -0.1644 -0.2373 -0.3182
  687POPC   GL1 8235   8.136   4.450  18.723  0.3190 -0.0943 -0.1652
  687POPC   GL2 8236   8.392   4.388  18.685 -0.0080  0.1420 -0.1252
  687POPC   C1A 8237   7.849   4.475  18.311 -0.0060 -0.0782  0.2006
  687POPC   D2A 8238   7.915   4.410  17.850  0.2579  0.1303 -0.0082
  687POPC   C3A 8239   7.679   4.207  17.555 -0.2323  0.1823  0.2762
  687POPC   C4A 8240   7.491   4.013  17.177 -0.1709 -0.1601 -0.2273
  687POPC   C1B 8241   8.360   4.802  18.498 -0.0975  0.2182 -0.0234
  687POPC   C2B 8242   8.195   4.880  18.102 -0.2548 -0.1936  0.2564
  687POPC   C3B 8243   8.099   4.964  17.694 -0.0758 -0.0885 -0.2349
  687POPC   C4B 8244   8.072   4.672  17.424  0.2126 -0.0575 -0.1992
  688POPC   NC3 8245  20.483  14.082  19.409  0.1449  0.0282  0.0494
  688POPC   PO4 8246  20.138  13.918  19.279  0.0480 -0.1055  0.0322
  688POPC   GL1 8247  20.101  14.069  18.937  0.2796 -0.1257 -0.0702
  688POPC   GL2 8248  20.334  13.992  18.735  0.0681  0.2230 -0.1126
  688POPC   C1A 8249  19.916  14.092  18.495  0.0610 -0.3504  0.1788
  688POPC   D2A 8250  19.777  14.018  18.038  0.0743  0.1956  0.1303
  688POPC   C3A 8251  19.626  14.082  17.621  0.0305  0.0184  0.2422
  688POPC   C4A 8252  19.595  14.089  17.170 -0.1394 -0.0129  0.0059
  688POPC   C1B 8253  20.621  13.973  18.438 -0.2051 -0.2919 -0.0487
  688POPC   C2B 8254  20.709  13.721  18.098 -0.1344  0.1191 -0.0334
  688POPC   C3B 8255  20.556  13.800  17.668 -0.0693 -0.0694  0.1715
  688POPC   C4B 8256  20.487  13.830  17.295 -0.2039  0.2134 -0.1741
  689POPC   NC3 8257   5.228  28.867  19.321 -0.2062  0.0217 -0.1149
  689POPC   PO4 8258   4.973  28.590  19.209 -0.2679  0.2357  0.2532
  689POPC   GL1 8259   4.705  28.518  18.882 -0.3874  0.1181  0.2414
  689POPC   GL2 8260   4.737  28.245  18.882 -0.1052 -0.1831  0.3273
  689POPC   C1A 8261   4.476  28.507  18.461 -0.0433 -0.0259 -0.3798
  689POPC   D2A 8262   4.148  28.639  18.174  0.0414 -0.0908 -0.0262
  689POPC   C3A 8263   4.138  28.936  17.801  0.2722 -0.0061  0.2545
  689POPC   C4A 8264   3.891  28.762  17.421 -0.1849 -0.0159  0.0705
  689POPC   C1B 8265   4.913  28.053  18.604 -0.0792 -0.1711 -0.2602
  689POPC   C2B 8266   4.822  27.817  18.180  0.1004  0.1991 -0.1066
  689POPC   C3B 8267   4.926  27.737  17.787  0.0204 -0.0998 -0.1052
  689POPC   C4B 8268   5.266  27.524  17.560  0.0940 -0.1663  0.0283
  690POPC   NC3 8269  15.667  28.498  19.421  0.2194 -0.4208 -0.2302
  690POPC   PO4 8270  15.973  28.390  19.581 -0.0813  0.3185  0.0857
  690POPC   GL1 8271  16.079  28.350  19.171  0.3702  0.1756 -0.1107
  690POPC   GL2 8272  16.005  28.555  19.070  0.3817 -0.0146  0.0989
  690POPC   C1A 8273  16.157  28.068  18.828 -0.0339  0.2368  0.1415
  690POPC   D2A 8274  16.177  28.115  18.422  0.1143 -0.0807  0.1081
  690POPC   C3A 8275  15.908  28.174  18.040  0.0249  0.1545  0.3128
  690POPC   C4A 8276  15.649  28.099  17.633 -0.0364  0.1001  0.0825
  690POPC   C1B 8277  16.113  28.535  18.651  0.3211  0.2590 -0.0099
  690POPC   C2B 8278  16.025  28.653  18.179 -0.0980 -0.2083 -0.1367
  690POPC   C3B 8279  15.617  28.634  17.955  0.3250 -0.0265  0.0878
  690POPC   C4B 8280  15.460  28.553  17.554 -0.0410  0.1012  0.1797
  691POPC   NC3 8281  28.883   7.850  19.387 -0.1074 -0.0340 -0.0348
  691POPC   PO4 8282  28.508   7.710  19.479 -0.2141 -0.1120  0.1491
  691POPC   GL1 8283  28.702   7.563  19.056  0.0755 -0.0438  0.0171
  691POPC   GL2 8284  28.482   7.795  18.960 -0.0234  0.0272 -0.2911
  691POPC   C1A 8285  28.674   7.629  18.552  0.1128  0.1139  0.1727
  691POPC   D2A 8286  28.514   7.747  18.109  0.0183  0.3373  0.1565
  691POPC   C3A 8287  28.684   7.595  17.723 -0.0299  0.0273  0.1971
  691POPC   C4A 8288  28.518   7.469  17.300 -0.2008  0.0800 -0.0286
  691POPC   C1B 8289  28.548   8.087  18.630 -0.0636  0.1438  0.0434
  691POPC   C2B 8290  28.650   8.300  18.207  0.1067  0.1675 -0.1403
  691POPC   C3B 8291  28.633   8.193  17.756 -0.0736 -0.1222  0.0323
  691POPC   C4B 8292  28.539   7.978  17.380 -0.0427 -0.2052 -0.0687
  692POPC   NC3 8293  26.235   5.593  18.947  0.1371 -0.1502  0.1509
  692POPC   PO4 8294  26.178   5.430  19.343 -0.0616  0.1090 -0.0375
  692POPC   GL1 8295  26.210   5.127  19.109 -0.1636  0.3315  0.1260
  692POPC   GL2 8296  26.455   5.104  18.884 -0.1056 -0.0850  0.1359
  692POPC   C1A 8297  25.923   5.200  18.734 -0.0509 -0.3488  0.1965
  692POPC   D2A 8298  25.629   5.371  18.432 -0.2110 -0.1130 -0.4476
  692POPC   C3A 8299  25.635   5.383  17.997 -0.2176 -0.1607 -0.2627
  692POPC   C4A 8300  25.564   5.254  17.529  0.2115 -0.1336  0.2185
  692POPC   C1B 8301  26.393   5.328  18.565 -0.2847 -0.5307  0.1545
  692POPC   C2B 8302  26.632   5.263  18.165  0.1806 -0.1676 -0.0218
  692POPC   C3B 8303  26.952   4.980  18.005  0.0502  0.0490 -0.2193
  692POPC   C4B 8304  27.217   4.782  17.628 -0.1092  0.2015  0.1804
  693POPC   NC3 8305  11.037  13.638  19.085 -0.2698 -0.1419  0.1891
  693POPC   PO4 8306  11.409  13.532  19.146  0.0110  0.1379  0.0067
  693POPC   GL1 8307  11.395  13.361  18.749  0.1286  0.0528  0.2064
  693POPC   GL2 8308  11.138  13.270  18.754  0.1183  0.1238 -0.0242
  693POPC   C1A 8309  11.666  13.242  18.406 -0.0068  0.0354 -0.0344
  693POPC   D2A 8310  11.995  13.229  18.149 -0.1008 -0.0555  0.0029
  693POPC   C3A 8311  11.992  13.532  17.851  0.1591  0.1611  0.0383
  693POPC   C4A 8312  11.732  13.599  17.466  0.3257 -0.3690 -0.0431
  693POPC   C1B 8313  11.183  13.337  18.234  0.0832  0.0892 -0.1657
  693POPC   C2B 8314  11.028  13.378  17.827 -0.2372  0.0866 -0.5345
  693POPC   C3B 8315  10.926  13.603  17.462 -0.1328  0.1462 -0.1163
  693POPC   C4B 8316  11.145  13.567  17.046 -0.1167  0.1138 -0.2561
  694POPC   NC3 8317  19.552  15.483  18.668 -0.0226 -0.2936  0.4411
  694POPC   PO4 8318  19.927  15.422  18.762 -0.0119  0.0956  0.1377
  694POPC   GL1 8319  20.029  15.490  18.443 -0.3321 -0.0598 -0.0137
  694POPC   GL2 8320  20.146  15.357  18.259 -0.0561 -0.3837 -0.1049
  694POPC   C1A 8321  19.964  15.804  18.087 -0.0518  0.0931  0.1741
  694POPC   D2A 8322  19.921  16.005  17.659  0.1600  0.0538  0.0811
  694POPC   C3A 8323  20.200  15.889  17.269 -0.0967 -0.1503  0.0757
  694POPC   C4A 8324  20.004  15.639  17.000  0.3064 -0.0705  0.3268
  694POPC   C1B 8325  20.021  15.361  17.867  0.1492 -0.0775 -0.2086
  694POPC   C2B 8326  19.929  15.417  17.484  0.2108 -0.0516  0.0543
  694POPC   C3B 8327  19.518  15.568  17.254  0.3060  0.0928 -0.0249
  694POPC   C4B 8328  19.087  15.494  17.049  0.1365 -0.0246  0.2413
  695POPC   NC3 8329  15.974  29.287  19.633  0.2470 -0.0863  0.2373
  695POPC   PO4 8330  15.944  28.914  19.486 -0.0227  0.0576 -0.1344
  695POPC   GL1 8331  15.765  28.970  19.203  0.2407  0.0284 -0.0211
  695POPC   GL2 8332  15.453  28.935  19.315  0.0225 -0.0325 -0.0844
  695POPC   C1A 8333  15.944  29.022  18.799 -0.0551 -0.1794 -0.0603
  695POPC   D2A 8334  15.773  29.011  18.373  0.0759  0.0029  0.2177
  695POPC   C3A 8335  15.949  29.131  17.918  0.2260  0.0035 -0.3978
  695POPC   C4A 8336  16.084  29.279  17.499  0.1679 -0.1540  0.0846
  695POPC   C1B 8337  15.506  29.268  18.982 -0.1264 -0.0258 -0.0892
  695POPC   C2B 8338  15.445  29.349  18.523 -0.0851 -0.0928  0.2197
  695POPC   C3B 8339  15.436  29.297  18.079  0.0986  0.0249 -0.0009
  695POPC   C4B 8340  15.416  29.053  17.673 -0.1110  0.3778 -0.0694
  696POPC   NC3 8341   3.852  14.986  19.476 -0.0296 -0.2455  0.0231
  696POPC   PO4 8342   4.192  15.154  19.596  0.0581  0.0100  0.0145
  696POPC   GL1 8343   4.132  15.307  19.229  0.1158  0.0358  0.4364
  696POPC   GL2 8344   4.362  15.348  19.116  0.1556 -0.0650  0.2138
  696POPC   C1A 8345   4.104  15.159  18.774 -0.1924  0.0017 -0.0630
  696POPC   D2A 8346   4.125  15.303  18.352  0.1406 -0.2249  0.1016
  696POPC   C3A 8347   3.950  14.997  17.958  0.3196 -0.0041 -0.0043
  696POPC   C4A 8348   4.023  14.818  17.520  0.2360  0.0984 -0.0010
  696POPC   C1B 8349   4.268  15.611  18.750 -0.4075  0.0686  0.0235
  696POPC   C2B 8350   4.565  15.758  18.418 -0.0517 -0.0417 -0.2047
  696POPC   C3B 8351   4.757  16.064  18.145 -0.2012  0.0184  0.1409
  696POPC   C4B 8352   4.708  16.186  17.697 -0.1010  0.2061 -0.4309
  697POPC   NC3 8353  28.710   3.467  19.057 -0.3685  0.4074  0.0681
  697POPC   PO4 8354  28.406   3.645  19.306  0.0053  0.0507 -0.0513
  697POPC   GL1 8355  28.354   3.742  18.853 -0.2440  0.0525 -0.3015
  697POPC   GL2 8356  28.318   3.487  18.706 -0.1950  0.1608 -0.0272
  697POPC   C1A 8357  28.588   4.106  18.660  0.1060 -0.2833  0.0107
  697POPC   D2A 8358  28.711   4.316  18.252  0.2862  0.0616  0.1644
  697POPC   C3A 8359  28.664   4.689  17.968  0.0437 -0.3944 -0.2233
  697POPC   C4A 8360  28.401   5.045  18.007 -0.1447 -0.1164  0.0700
  697POPC   C1B 8361  28.598   3.699  18.397  0.0086  0.0836  0.0099
  697POPC   C2B 8362  28.522   3.927  17.971 -0.3786 -0.0204 -0.2554
  697POPC   C3B 8363  28.531   3.635  17.607 -0.3473 -0.3071 -0.1086
  697POPC   C4B 8364  28.726   3.470  17.270 -0.2658 -0.0020  0.2767
  698POPC   NC3 8365  15.095  12.708  19.020 -0.2000 -0.2804 -0.1342
  698POPC   PO4 8366  15.114  12.364  19.208 -0.2835  0.1438  0.0181
  698POPC   GL1 8367  15.097  12.300  18.793 -0.0538 -0.2669 -0.2259
  698POPC   GL2 8368  14.871  12.113  18.792  0.0309 -0.0476  0.0005
  698POPC   C1A 8369  14.900  12.394  18.349 -0.1071 -0.3759  0.1060
  698POPC   D2A 8370  14.403  12.498  18.283 -0.0749 -0.0383  0.0245
  698POPC   C3A 8371  14.267  12.589  17.853  0.0126 -0.2539  0.3462
  698POPC   C4A 8372  14.141  12.582  17.366  0.2420  0.0170 -0.0479
  698POPC   C1B 8373  14.951  11.891  18.394  0.3847  0.2218 -0.1027
  698POPC   C2B 8374  14.859  11.730  17.976  0.3151 -0.1642  0.0090
  698POPC   C3B 8375  14.524  11.763  17.677  0.1235  0.1669  0.2631
  698POPC   C4B 8376  14.205  12.164  17.678  0.2903  0.1906  0.2830
  699POPC   NC3 8377  21.187  30.146  19.106 -0.2792  0.0482 -0.4566
  699POPC   PO4 8378  21.444  29.832  19.213  0.0361 -0.1874  0.2547
  699POPC   GL1 8379  21.417  29.691  18.858 -0.2107  0.2251 -0.1582
  699POPC   GL2 8380  21.185  29.851  18.719  0.0244 -0.2242 -0.3974
  699POPC   C1A 8381  21.506  29.612  18.432 -0.1638 -0.2033  0.3045
  699POPC   D2A 8382  21.549  29.415  18.024 -0.0068  0.0006  0.1994
  699POPC   C3A 8383  21.500  28.947  17.858 -0.0946 -0.3163  0.1139
  699POPC   C4A 8384  21.672  28.575  18.100 -0.2469 -0.2409  0.3145
  699POPC   C1B 8385  21.309  30.167  18.477 -0.1275 -0.0857 -0.0567
  699POPC   C2B 8386  21.165  30.426  18.158 -0.2152 -0.1647 -0.2349
  699POPC   C3B 8387  20.999  30.633  17.779 -0.1349 -0.1525  0.2038
  699POPC   C4B 8388  20.529  30.644  17.627 -0.3741 -0.0325  0.1746
  700POPC   NC3 8389  18.995  30.492  19.386 -0.1516  0.1993  0.1682
  700POPC   PO4 8390  18.922  30.829  19.565  0.1672  0.0549 -0.0619
  700POPC   GL1 8391  18.611  30.800  19.336 -0.3163  0.3917 -0.0252
  700POPC   GL2 8392  18.780  30.746  19.062  0.1018  0.0526  0.1793
  700POPC   C1A 8393  18.412  31.099  19.067 -0.3755 -0.1008 -0.1970
  700POPC   D2A 8394  18.290  31.267  18.690  0.0557 -0.0822 -0.0524
  700POPC   C3A 8395  18.513  31.423  18.268 -0.1949 -0.1228  0.1879
  700POPC   C4A 8396  18.711  31.436  17.871  0.0555  0.1292 -0.1109
  700POPC   C1B 8397  18.733  30.969  18.699 -0.1256 -0.0106  0.1334
  700POPC   C2B 8398  18.760  30.990  18.250 -0.1338  0.1035  0.0380
  700POPC   C3B 8399  18.970  30.968  17.804 -0.0157  0.0450 -0.0808
  700POPC   C4B 8400  19.439  30.929  17.689  0.0366  0.1361  0.4422
  701POPC   NC3 8401  28.351  19.050  19.214  0.2035 -0.0686 -0.1132
  701POPC   PO4 8402  28.461  18.700  19.194 -0.0147  0.0761 -0.3069
  701POPC   GL1 8403  28.102  18.764  18.877 -0.2282 -0.4926  0.3670
  701POPC   GL2 8404  28.105  19.042  18.774 -0.0809  0.0891  0.2864
  701POPC   C1A 8405  27.961  18.735  18.430 -0.2507 -0.1785 -0.0442
  701POPC   D2A 8406  27.935  18.878  17.973  0.0408 -0.0289  0.0993
  701POPC   C3A 8407  27.749  19.103  17.577  0.3050 -0.0460 -0.0101
  701POPC   C4A 8408  27.527  19.366  17.287  0.0041  0.0484  0.2338
  701POPC   C1B 8409  28.131  19.224  18.324 -0.1658  0.0946  0.0759
  701POPC   C2B 8410  28.225  19.289  17.860 -0.1605 -0.2717 -0.0149
  701POPC   C3B 8411  28.211  19.250  17.402 -0.3342 -0.0981 -0.4287
  701POPC   C4B 8412  28.418  19.541  17.127  0.2611  0.1130  0.0424
  702POPC   NC3 8413  29.179  25.876  19.183 -0.3449 -0.0268  0.1903
  702POPC   PO4 8414  28.944  26.019  19.447  0.1502  0.0165 -0.1095
  702POPC   GL1 8415  28.792  26.020  19.013 -0.2069 -0.0214 -0.0641
  702POPC   GL2 8416  28.548  26.074  18.950  0.1177  0.1145 -0.4492
  702POPC   C1A 8417  28.989  25.948  18.604  0.0325  0.1156 -0.0038
  702POPC   D2A 8418  28.894  25.822  18.120 -0.3391  0.0401  0.0835
  702POPC   C3A 8419  28.858  26.137  17.762 -0.0449 -0.3829  0.0146
  702POPC   C4A 8420  28.920  26.385  17.345 -0.0796 -0.1358 -0.0416
  702POPC   C1B 8421  28.746  26.389  18.752  0.0535 -0.1131  0.1154
  702POPC   C2B 8422  29.082  26.585  18.498 -0.1039 -0.1569 -0.0868
  702POPC   C3B 8423  29.420  26.673  18.192  0.1020  0.2979 -0.0347
  702POPC   C4B 8424  29.537  26.718  17.745  0.1276 -0.0488 -0.0808
  703POPC   NC3 8425  26.598  11.508  19.096 -0.2417  0.2626  0.1855
  703POPC   PO4 8426  26.985  11.375  19.251 -0.2476  0.0593 -0.0938
  703POPC   GL1 8427  26.976  11.613  18.840  0.2335  0.1819 -0.0076
  703POPC   GL2 8428  27.129  11.328  18.779  0.1229  0.1222  0.0604
  703POPC   C1A 8429  27.258  11.767  18.501 -0.2172 -0.1129  0.1437
  703POPC   D2A 8430  27.247  11.717  18.041  0.0996 -0.2728 -0.0919
  703POPC   C3A 8431  27.118  12.043  17.746  0.1405 -0.1143  0.0514
  703POPC   C4A 8432  27.157  12.166  17.271 -0.1043 -0.0460 -0.2673
  703POPC   C1B 8433  26.868  11.471  18.421 -0.1658  0.1549  0.3356
  703POPC   C2B 8434  26.850  11.432  17.968  0.4869 -0.2867 -0.1596
  703POPC   C3B 8435  26.988  11.602  17.564  0.2000 -0.0849  0.0140
  703POPC   C4B 8436  26.755  11.834  17.231 -0.1519  0.1146  0.2628
  704POPC   NC3 8437  17.017   8.073  19.206  0.0846 -0.0993 -0.1178
  704POPC   PO4 8438  16.717   8.245  19.356  0.1060 -0.0365  0.3380
  704POPC   GL1 8439  16.763   8.374  19.032  0.1366 -0.1106  0.0979
  704POPC   GL2 8440  16.550   8.292  18.890  0.0915 -0.0439 -0.0388
  704POPC   C1A 8441  17.046   8.235  18.660 -0.1331  0.2040 -0.0188
  704POPC   D2A 8442  17.143   7.839  18.383  0.1585  0.2832  0.1258
  704POPC   C3A 8443  16.931   7.664  18.031  0.0556 -0.2229 -0.0231
  704POPC   C4A 8444  16.632   7.457  17.703 -0.1935 -0.0241  0.3019
  704POPC   C1B 8445  16.399   8.446  18.462 -0.2000 -0.0088 -0.2346
  704POPC   C2B 8446  16.290   8.642  18.081 -0.2002  0.2362  0.0464
  704POPC   C3B 8447  16.620   8.548  17.745 -0.0879 -0.1438 -0.0368
  704POPC   C4B 8448  17.078   8.465  17.658 -0.0927 -0.4142  0.2440
  705POPC   NC3 8449  19.940  28.963  19.057 -0.3826  0.1545 -0.3315
  705POPC   PO4 8450  20.245  29.224  19.074 -0.0798  0.3187 -0.0049
  705POPC   GL1 8451  20.133  29.452  18.714 -0.0844  0.4709  0.3188
  705POPC   GL2 8452  19.893  29.309  18.712  0.1740  0.0172 -0.2484
  705POPC   C1A 8453  20.270  29.480  18.248  0.0825  0.1730 -0.1369
  705POPC   D2A 8454  20.349  29.320  17.830 -0.1695 -0.1075 -0.0776
  705POPC   C3A 8455  20.694  29.297  17.617  0.0547  0.2270  0.1176
  705POPC   C4A 8456  20.933  29.682  17.509  0.1247  0.0956  0.0020
  705POPC   C1B 8457  19.886  29.120  18.304 -0.0764  0.0119 -0.2497
  705POPC   C2B 8458  20.220  28.891  18.067  0.2128 -0.1064  0.4215
  705POPC   C3B 8459  20.467  28.776  17.649  0.0111  0.0347  0.1633
  705POPC   C4B 8460  20.725  28.816  17.281  0.2070  0.0171 -0.0727
  706POPC   NC3 8461   4.872  14.524  19.705 -0.1790  0.4336  0.0666
  706POPC   PO4 8462   4.642  14.505  19.443 -0.2255 -0.1370 -0.0441
  706POPC   GL1 8463   4.736  14.384  19.066  0.1551  0.1151 -0.5349
  706POPC   GL2 8464   4.729  14.566  18.868 -0.2722 -0.1575  0.0954
  706POPC   C1A 8465   4.740  14.181  18.648  0.0748  0.0033  0.0535
  706POPC   D2A 8466   5.098  14.125  18.298  0.1652 -0.2363  0.0514
  706POPC   C3A 8467   4.983  14.143  17.809 -0.3303  0.2422  0.0014
  706POPC   C4A 8468   5.137  14.249  17.363 -0.1802 -0.0066  0.2033
  706POPC   C1B 8469   4.355  14.713  18.652  0.1412 -0.2210 -0.0211
  706POPC   C2B 8470   4.342  14.885  18.196 -0.1897 -0.0799  0.0170
  706POPC   C3B 8471   4.371  15.230  17.872  0.1355 -0.2966  0.2806
  706POPC   C4B 8472   4.700  15.378  17.629 -0.2530 -0.1768  0.2371
  707POPC   NC3 8473   4.374  21.394  19.389  0.2779  0.0162 -0.3971
  707POPC   PO4 8474   4.050  21.632  19.377  0.0649  0.0740  0.0140
  707POPC   GL1 8475   3.758  21.384  19.032 -0.1000 -0.0690  0.0243
  707POPC   GL2 8476   3.508  21.432  18.944  0.0231 -0.2790  0.0481
  707POPC   C1A 8477   3.682  21.062  18.694 -0.3094  0.3526 -0.1379
  707POPC   D2A 8478   3.759  21.004  18.224 -0.0866 -0.0576  0.0432
  707POPC   C3A 8479   3.813  20.893  17.808 -0.1942  0.2306  0.1067
  707POPC   C4A 8480   3.994  20.843  17.349  0.1466 -0.0705  0.2235
  707POPC   C1B 8481   3.651  21.510  18.492  0.1353 -0.4851  0.0841
  707POPC   C2B 8482   3.747  21.875  18.223  0.2752 -0.0410  0.1826
  707POPC   C3B 8483   3.795  21.962  17.772  0.0116 -0.0150  0.0007
  707POPC   C4B 8484   3.641  22.276  17.506 -0.0780 -0.1078 -0.0759
  708POPC   NC3 8485  12.431   4.835  19.615 -0.2168  0.0316 -0.0880
  708POPC   PO4 8486  12.341   5.230  19.637 -0.0061  0.1946  0.1479
  708POPC   GL1 8487  12.405   5.245  19.226  0.1027 -0.3301  0.0807
  708POPC   GL2 8488  12.542   5.063  19.140 -0.2015  0.0389  0.1304
  708POPC   C1A 8489  12.101   5.175  18.864  0.2702 -0.0128 -0.1261
  708POPC   D2A 8490  11.789   4.915  18.683 -0.3344 -0.0482 -0.0808
  708POPC   C3A 8491  11.537   5.198  18.409  0.1489  0.1269  0.1844
  708POPC   C4A 8492  11.286   5.014  18.092 -0.0073  0.0194  0.0008
  708POPC   C1B 8493  12.775   4.784  18.839  0.2621  0.2213  0.3956
  708POPC   C2B 8494  12.912   4.486  18.529 -0.0066  0.0018 -0.2812
  708POPC   C3B 8495  12.916   4.508  18.112  0.0578 -0.0024 -0.1758
  708POPC   C4B 8496  12.775   4.788  17.764  0.1281  0.0954 -0.2002
  709POPC   NC3 8497  19.940   5.461  19.591 -0.1889 -0.2683  0.1997
  709POPC   PO4 8498  19.714   5.207  19.418 -0.2788  0.0810 -0.0021
  709POPC   GL1 8499  19.740   5.430  19.164 -0.1928  0.0394  0.4496
  709POPC   GL2 8500  19.547   5.476  19.015  0.1768 -0.1399  0.0931
  709POPC   C1A 8501  20.043   5.571  18.857  0.0897  0.1842 -0.2318
  709POPC   D2A 8502  20.403   5.552  18.491  0.1397  0.1131 -0.0281
  709POPC   C3A 8503  20.373   5.406  18.024 -0.0224 -0.3085 -0.0638
  709POPC   C4A 8504  20.454   5.300  17.573  0.0768  0.0054  0.2468
  709POPC   C1B 8505  19.560   5.545  18.601  0.1233  0.0215 -0.0320
  709POPC   C2B 8506  19.523   5.929  18.320 -0.2388  0.1553  0.1036
  709POPC   C3B 8507  19.721   6.162  17.940  0.0437 -0.1218 -0.1735
  709POPC   C4B 8508  20.020   6.285  17.668 -0.0020 -0.2222 -0.0875
  710POPC   NC3 8509  11.664   4.209  20.000  0.2124  0.0169  0.0317
  710POPC   PO4 8510  11.963   4.321  19.779 -0.0987  0.2605 -0.1854
  710POPC   GL1 8511  12.075   4.391  19.406 -0.1065 -0.1054  0.2457
  710POPC   GL2 8512  11.896   4.634  19.265 -0.2367 -0.0557  0.1072
  710POPC   C1A 8513  12.383   4.622  19.106 -0.1136  0.3273  0.1733
  710POPC   D2A 8514  12.315   4.761  18.678  0.1369 -0.0570  0.3695
  710POPC   C3A 8515  12.494   4.768  18.274  0.0976  0.0537 -0.1380
  710POPC   C4A 8516  12.493   5.105  18.023  0.0098 -0.2677  0.0821
  710POPC   C1B 8517  11.918   4.437  18.821  0.2573 -0.1337  0.0957
  710POPC   C2B 8518  12.035   4.425  18.355  0.1091  0.0218 -0.1092
  710POPC   C3B 8519  12.049   4.359  17.836  0.1745 -0.1590 -0.1410
  710POPC   C4B 8520  11.866   4.432  17.380 -0.2326 -0.1608  0.0152
  711POPC   NC3 8521   8.686   9.572  19.260  0.0160  0.2617  0.0840
  711POPC   PO4 8522   8.982   9.752  19.446  0.1842 -0.1654 -0.2323
  711POPC   GL1 8523   9.178   9.600  19.034  0.0124  0.0602  0.0229
  711POPC   GL2 8524   9.036   9.323  19.045 -0.0224  0.0599 -0.1505
  711POPC   C1A 8525   9.489   9.694  18.668  0.0235  0.3502  0.2425
  711POPC   D2A 8526   9.921   9.790  18.562  0.0062  0.0338  0.0720
  711POPC   C3A 8527  10.243   9.693  18.312 -0.0866  0.0045 -0.0800
  711POPC   C4A 8528  10.476   9.310  18.119  0.1159  0.0225 -0.0582
  711POPC   C1B 8529   9.206   8.894  18.958  0.2374 -0.2357  0.0579
  711POPC   C2B 8530   9.326   8.822  18.476  0.2677  0.0005  0.1763
  711POPC   C3B 8531   9.605   8.925  18.065 -0.3463  0.1624  0.0155
  711POPC   C4B 8532   9.585   9.142  17.700 -0.2275 -0.3374  0.1658
  712POPC   NC3 8533  11.540  28.728  19.431  0.1024 -0.2079 -0.1545
  712POPC   PO4 8534  11.240  28.482  19.398  0.0558 -0.1982  0.2801
  712POPC   GL1 8535  10.928  28.627  19.144 -0.2670 -0.0975  0.1204
  712POPC   GL2 8536  10.902  28.452  19.000  0.3485  0.2682  0.2342
  712POPC   C1A 8537  10.831  28.959  18.733 -0.3171 -0.0165  0.0369
  712POPC   D2A 8538  10.535  29.027  18.421 -0.0498  0.1735  0.1323
  712POPC   C3A 8539  10.572  29.145  17.980  0.0164 -0.0923 -0.1020
  712POPC   C4A 8540  10.707  29.190  17.535 -0.2054 -0.0247  0.1414
  712POPC   C1B 8541  11.112  28.587  18.548 -0.2218 -0.1157 -0.3385
  712POPC   C2B 8542  11.097  29.000  18.283 -0.2381 -0.0755 -0.2208
  712POPC   C3B 8543  11.127  29.095  17.810 -0.2747  0.0489 -0.1184
  712POPC   C4B 8544  11.160  29.130  17.303  0.2972 -0.0126 -0.0422
  713POPC   NC3 8545  15.450  23.565  18.814  0.1745  0.0553  0.0945
  713POPC   PO4 8546  15.113  23.689  18.934  0.2413 -0.1863  0.0124
  713POPC   GL1 8547  15.149  23.584  18.503  0.5017  0.1216  0.1403
  713POPC   GL2 8548  14.907  23.657  18.387 -0.0876 -0.2072 -0.0736
  713POPC   C1A 8549  15.335  23.336  18.165  0.0587  0.0603  0.1362
  713POPC   D2A 8550  15.316  23.417  17.669  0.3727 -0.0885 -0.1158
  713POPC   C3A 8551  15.113  23.124  17.444 -0.0687 -0.2588 -0.0098
  713POPC   C4A 8552  14.709  23.137  17.228 -0.1089 -0.0036 -0.1205
  713POPC   C1B 8553  14.719  23.754  17.939  0.2182  0.1554 -0.1736
  713POPC   C2B 8554  14.849  23.768  17.535 -0.0832  0.0569 -0.1415
  713POPC   C3B 8555  14.771  23.983  17.161 -0.3813 -0.2641 -0.1286
  713POPC   C4B 8556  14.672  24.403  17.076 -0.2240  0.0446 -0.0875
  714POPC   NC3 8557  18.238  23.385  18.947 -0.0261 -0.1493 -0.1501
  714POPC   PO4 8558  18.503  23.624  19.084 -0.0572 -0.0104 -0.0891
  714POPC   GL1 8559  18.348  23.856  18.815  0.0505 -0.1627 -0.0140
  714POPC   GL2 8560  18.357  23.706  18.592  0.1905 -0.0576 -0.0674
  714POPC   C1A 8561  18.699  24.081  18.586  0.0122  0.4066 -0.2612
  714POPC   D2A 8562  18.783  24.112  18.130 -0.0659  0.1345  0.0512
  714POPC   C3A 8563  18.770  24.487  17.880 -0.0439 -0.1411 -0.0242
  714POPC   C4A 8564  18.369  24.658  17.717 -0.3113  0.1733  0.0395
  714POPC   C1B 8565  18.640  23.695  18.229 -0.0034 -0.0060  0.0216
  714POPC   C2B 8566  18.586  23.621  17.745 -0.0585 -0.0210  0.0483
  714POPC   C3B 8567  18.730  23.401  17.348  0.2384 -0.0949  0.0354
  714POPC   C4B 8568  18.638  23.099  17.020 -0.1986  0.2269  0.2398
  715POPC   NC3 8569  13.613  10.063  19.379  0.1447 -0.1862  0.4353
  715POPC   PO4 8570  13.797  10.248  19.705 -0.2442 -0.2920  0.1287
  715POPC   GL1 8571  13.696  10.522  19.386  0.1469 -0.3471  0.0462
  715POPC   GL2 8572  13.848  10.476  19.087 -0.4516 -0.3834 -0.3949
  715POPC   C1A 8573  13.326  10.476  19.091 -0.3097 -0.0665 -0.2160
  715POPC   D2A 8574  13.176  10.412  18.662  0.2119  0.1540 -0.0300
  715POPC   C3A 8575  13.219  10.539  18.160  0.2105 -0.2253 -0.1968
  715POPC   C4A 8576  13.268  10.535  17.695  0.0334  0.1738  0.2312
  715POPC   C1B 8577  13.780  10.527  18.689 -0.0579  0.1712  0.4897
  715POPC   C2B 8578  14.152  10.516  18.353 -0.2512 -0.0662 -0.0966
  715POPC   C3B 8579  14.314  10.729  17.933 -0.0284  0.3030 -0.2061
  715POPC   C4B 8580  14.486  10.554  17.481 -0.2031  0.2952 -0.0503
  716POPC   NC3 8581   5.356  15.835  19.900  0.0167  0.0055 -0.3444
  716POPC   PO4 8582   5.673  15.830  19.655  0.1505  0.3614 -0.0036
  716POPC   GL1 8583   5.903  15.633  19.358  0.2804 -0.2014  0.1002
  716POPC   GL2 8584   5.758  15.613  19.113 -0.0737 -0.2646 -0.0440
  716POPC   C1A 8585   6.373  15.548  19.303 -0.1508  0.2732  0.0054
  716POPC   D2A 8586   6.795  15.560  19.204 -0.2313 -0.2084 -0.1684
  716POPC   C3A 8587   6.986  15.742  18.809 -0.1088  0.1369 -0.2686
  716POPC   C4A 8588   7.177  15.747  18.418  0.0414 -0.1659  0.1774
  716POPC   C1B 8589   5.829  15.333  18.775  0.4133  0.0296 -0.0233
  716POPC   C2B 8590   5.691  15.246  18.422  0.0197 -0.1959  0.0628
  716POPC   C3B 8591   5.974  15.232  18.028  0.1699  0.1201  0.4242
  716POPC   C4B 8592   6.129  15.499  17.710 -0.0442 -0.2194 -0.0477
  717POPC   NC3 8593  27.742   3.028  19.383 -0.3578  0.1242  0.1017
  717POPC   PO4 8594  28.075   3.154  19.541 -0.2163  0.0567  0.0699
  717POPC   GL1 8595  28.291   2.891  19.210 -0.2095  0.4087  0.2645
  717POPC   GL2 8596  28.124   2.643  19.014 -0.0367  0.3711  0.3142
  717POPC   C1A 8597  28.447   2.997  18.767 -0.1616 -0.0654 -0.5540
  717POPC   D2A 8598  28.417   3.207  18.303  0.1404  0.2834 -0.2143
  717POPC   C3A 8599  28.705   3.237  17.933  0.1737 -0.0419 -0.1180
  717POPC   C4A 8600  28.968   3.153  17.559 -0.1705 -0.1001 -0.2302
  717POPC   C1B 8601  28.033   2.629  18.595 -0.0216  0.0751  0.0608
  717POPC   C2B 8602  27.899   2.774  18.190 -0.0280  0.0028 -0.2446
  717POPC   C3B 8603  27.993   2.964  17.791  0.0706  0.1183 -0.1337
  717POPC   C4B 8604  28.041   2.904  17.350 -0.0018 -0.2569  0.1086
  718POPC   NC3 8605  22.998   2.247  18.895 -0.4338 -0.1540  0.2745
  718POPC   PO4 8606  23.225   2.497  19.126  0.1988  0.0460 -0.1895
  718POPC   GL1 8607  23.309   2.595  18.652  0.0260 -0.2163 -0.1377
  718POPC   GL2 8608  23.332   2.374  18.512 -0.0637  0.0484  0.1989
  718POPC   C1A 8609  23.546   2.776  18.322  0.1309 -0.2178  0.1147
  718POPC   D2A 8610  23.422   2.945  17.899  0.2022  0.0613  0.0395
  718POPC   C3A 8611  23.285   3.238  17.611 -0.0092 -0.1937 -0.2673
  718POPC   C4A 8612  22.892   3.353  17.384 -0.2600 -0.0696 -0.1348
  718POPC   C1B 8613  23.000   2.083  18.378  0.0383 -0.1903 -0.1626
  718POPC   C2B 8614  22.757   2.007  17.991  0.1871  0.2668 -0.0063
  718POPC   C3B 8615  22.538   1.886  17.564  0.3299 -0.0019  0.1201
  718POPC   C4B 8616  22.289   1.716  17.173 -0.1152  0.0544 -0.1507
  719POPC   NC3 8617  24.765  13.218  19.845 -0.1555 -0.0591  0.0202
  719POPC   PO4 8618  24.889  13.029  19.529 -0.0381 -0.1526  0.1484
  719POPC   GL1 8619  24.689  13.029  19.213 -0.4131 -0.0067 -0.1919
  719POPC   GL2 8620  24.451  12.855  19.308 -0.2885 -0.4306 -0.0591
  719POPC   C1A 8621  24.851  12.927  18.795 -0.0245 -0.4046  0.1363
  719POPC   D2A 8622  25.097  12.742  18.412 -0.0776  0.1798 -0.0304
  719POPC   C3A 8623  25.210  13.023  18.089 -0.0698  0.0431  0.0058
  719POPC   C4A 8624  25.334  13.065  17.652 -0.0854 -0.0886  0.0018
  719POPC   C1B 8625  24.349  12.956  18.834  0.1582 -0.0759 -0.1238
  719POPC   C2B 8626  24.089  12.726  18.506 -0.1289 -0.0285 -0.0633
  719POPC   C3B 8627  24.056  12.769  18.069  0.0454  0.0246  0.2412
  719POPC   C4B 8628  23.902  12.545  17.667 -0.0031 -0.1906 -0.1489
  720POPC   NC3 8629  18.621  21.431  19.117  0.2624  0.1340 -0.1743
  720POPC   PO4 8630  18.845  21.699  19.294 -0.0995 -0.2809  0.2558
  720POPC   GL1 8631  18.837  21.748  18.916 -0.1792  0.2072  0.0504
  720POPC   GL2 8632  18.888  21.990  18.720 -0.0418 -0.1930  0.0961
  720POPC   C1A 8633  18.649  21.605  18.542  0.0717  0.0282  0.0921
  720POPC   D2A 8634  18.660  21.576  18.060 -0.2078 -0.0059 -0.2019
  720POPC   C3A 8635  18.774  21.217  17.731 -0.0945  0.0871 -0.1938
  720POPC   C4A 8636  18.585  20.930  17.502  0.1049  0.1532 -0.2820
  720POPC   C1B 8637  18.750  22.066  18.252  0.0620  0.0299  0.0615
  720POPC   C2B 8638  18.916  22.002  17.801  0.0838  0.0482  0.1986
  720POPC   C3B 8639  19.258  22.094  17.436 -0.0684 -0.0397 -0.0426
  720POPC   C4B 8640  19.487  22.248  17.066  0.2539 -0.0186  0.0297
  721POPC   NC3 8641  18.619  25.233  19.822  0.1037 -0.0455 -0.3121
  721POPC   PO4 8642  18.770  25.032  19.515  0.1385 -0.0793 -0.1185
  721POPC   GL1 8643  18.844  24.874  19.076 -0.1119  0.0986  0.0194
  721POPC   GL2 8644  18.950  25.118  18.909  0.0515 -0.0694 -0.1553
  721POPC   C1A 8645  18.555  24.914  18.746  0.3341  0.0642 -0.1642
  721POPC   D2A 8646  18.128  24.795  18.595 -0.3421 -0.1623 -0.1406
  721POPC   C3A 8647  18.051  24.642  18.153 -0.0615  0.0730 -0.0804
  721POPC   C4A 8648  17.843  24.352  17.811  0.0625  0.0120 -0.1868
  721POPC   C1B 8649  18.734  25.279  18.521 -0.0087  0.1737  0.2170
  721POPC   C2B 8650  18.520  25.443  18.174 -0.0594 -0.1127  0.2704
  721POPC   C3B 8651  18.531  25.641  17.766 -0.0991  0.0419  0.1036
  721POPC   C4B 8652  18.192  25.921  17.574 -0.0495  0.4283  0.1597
  722POPC   NC3 8653   8.959  12.488  19.137 -0.0107 -0.0244  0.5466
  722POPC   PO4 8654   9.113  12.811  18.974 -0.0046  0.1641  0.4700
  722POPC   GL1 8655   9.296  12.897  18.701  0.0203 -0.0114  0.4145
  722POPC   GL2 8656   9.641  13.018  18.733  0.3799  0.1140  0.0493
  722POPC   C1A 8657   9.286  13.291  18.425  0.2537 -0.1523 -0.0610
  722POPC   D2A 8658   8.985  13.539  18.157 -0.1048 -0.1462  0.1491
  722POPC   C3A 8659   8.981  14.009  18.079 -0.1859 -0.0886 -0.0988
  722POPC   C4A 8660   9.037  14.387  17.900  0.0587 -0.1762  0.0660
  722POPC   C1B 8661   9.659  12.987  18.301 -0.0552  0.1243 -0.0316
  722POPC   C2B 8662   9.532  12.843  17.884 -0.3553 -0.0363  0.1581
  722POPC   C3B 8663   9.572  12.592  17.485  0.3772 -0.0756  0.0217
  722POPC   C4B 8664   9.504  12.284  17.196 -0.2910 -0.0316 -0.1092
  723POPC   NC3 8665  15.208  31.519  19.491 -0.0184  0.1108 -0.4186
  723POPC   PO4 8666  15.319  31.656  19.147  0.3113 -0.0630  0.1325
  723POPC   GL1 8667  15.489  31.482  18.808  0.2074 -0.2456  0.0263
  723POPC   GL2 8668  15.509  31.654  18.592  0.0730 -0.1590  0.2206
  723POPC   C1A 8669  15.289  31.250  18.421  0.2197 -0.0258  0.1357
  723POPC   D2A 8670  14.934  31.089  18.148  0.0744  0.1229 -0.1602
  723POPC   C3A 8671  14.902  31.068  17.657 -0.1870  0.2116  0.1184
  723POPC   C4A 8672  14.668  30.899  17.271  0.0088  0.0260 -0.0436
  723POPC   C1B 8673  15.607  31.507  18.139  0.2877  0.2456  0.0461
  723POPC   C2B 8674  15.304  31.388  17.788 -0.0336  0.1093  0.3259
  723POPC   C3B 8675  15.062  31.462  17.356  0.0842  0.0796 -0.1716
  723POPC   C4B 8676  15.023  31.165  16.975  0.0012 -0.2392  0.3475
  724POPC   NC3 8677   0.172  20.196  19.644 -0.2636 -0.2284  0.3181
  724POPC   PO4 8678   0.385  19.878  19.539  0.0477  0.2043  0.0763
  724POPC   GL1 8679   0.229  19.917  19.137  0.0056 -0.1820 -0.1374
  724POPC   GL2 8680   0.186  20.231  19.064 -0.0454 -0.0825 -0.0730
  724POPC   C1A 8681   0.446  19.959  18.757  0.2472  0.0593  0.3162
  724POPC   D2A 8682   0.342  20.050  18.318 -0.1658 -0.3596  0.1834
  724POPC   C3A 8683   0.409  19.728  17.987  0.0551  0.0075  0.1606
  724POPC   C4A 8684   0.398  19.572  17.496 -0.1313  0.1124  0.2313
  724POPC   C1B 8685   0.280  20.492  18.656  0.2260 -0.0391  0.0794
  724POPC   C2B 8686   0.336  20.518  18.185  0.0321 -0.0179  0.0716
  724POPC   C3B 8687   0.259  20.607  17.743  0.3036 -0.0045  0.1806
  724POPC   C4B 8688  -0.059  20.867  17.509 -0.2500  0.1148 -0.1892
  725POPC   NC3 8689  16.595  27.858  19.657 -0.3056 -0.2393  0.0460
  725POPC   PO4 8690  16.415  28.163  19.418  0.2363  0.0588 -0.1901
  725POPC   GL1 8691  16.434  27.909  19.156  0.4647 -0.1659  0.1115
  725POPC   GL2 8692  16.552  27.648  19.197  0.1054  0.1642  0.1132
  725POPC   C1A 8693  16.604  27.864  18.707 -0.1216  0.2023 -0.1091
  725POPC   D2A 8694  16.688  28.095  18.331 -0.0031  0.0615 -0.0317
  725POPC   C3A 8695  16.617  28.186  17.871 -0.1574 -0.0674 -0.0469
  725POPC   C4A 8696  16.481  28.295  17.466 -0.1239  0.0208 -0.2787
  725POPC   C1B 8697  16.615  27.321  18.884 -0.3862  0.1973  0.0095
  725POPC   C2B 8698  16.512  26.985  18.551 -0.1174 -0.1604 -0.0787
  725POPC   C3B 8699  16.468  26.837  18.088  0.4496  0.0843  0.0077
  725POPC   C4B 8700  16.036  26.760  17.785  0.0076 -0.1137 -0.1753
  726POPC   NC3 8701  30.807  28.013  19.692 -0.1946  0.0167 -0.0617
  726POPC   PO4 8702  30.867  28.410  19.703  0.1308  0.1431 -0.0915
  726POPC   GL1 8703  31.013  28.650  19.309  0.2045  0.1857 -0.1788
  726POPC   GL2 8704  30.713  28.651  19.236 -0.0830  0.0278  0.2235
  726POPC   C1A 8705  31.087  28.511  18.875 -0.0882 -0.0357 -0.0366
  726POPC   D2A 8706  30.812  28.444  18.534  0.1517  0.2769  0.1746
  726POPC   C3A 8707  30.776  28.616  18.092  0.1617  0.2066 -0.2001
  726POPC   C4A 8708  30.823  28.865  17.697 -0.2068 -0.2113  0.0715
  726POPC   C1B 8709  30.474  28.765  18.847  0.0669 -0.2885 -0.1323
  726POPC   C2B 8710  30.597  28.980  18.418  0.2927  0.1211  0.0873
  726POPC   C3B 8711  30.391  28.924  18.016  0.1284 -0.1715 -0.1890
  726POPC   C4B 8712  30.278  29.150  17.639 -0.1187  0.3743  0.0449
  727POPC   NC3 8713  14.443   4.699  19.601 -0.0859  0.1185  0.0812
  727POPC   PO4 8714  14.569   5.052  19.514 -0.1564 -0.0778  0.2417
  727POPC   GL1 8715  14.504   5.272  19.221 -0.0034  0.2573  0.1154
  727POPC   GL2 8716  14.572   5.570  19.203 -0.2481  0.1104 -0.5050
  727POPC   C1A 8717  14.296   5.192  18.838  0.0963  0.2344 -0.2071
  727POPC   D2A 8718  14.292   4.902  18.494 -0.0960  0.0296  0.1474
  727POPC   C3A 8719  13.920   4.826  18.182  0.3185 -0.0152  0.0549
  727POPC   C4A 8720  13.785   4.491  17.835  0.0225  0.0741  0.0468
  727POPC   C1B 8721  14.577   5.617  18.765 -0.1629 -0.4221  0.1212
  727POPC   C2B 8722  14.533   5.376  18.377 -0.2400 -0.1687 -0.1167
  727POPC   C3B 8723  14.398   5.167  17.950  0.3239 -0.2618 -0.1942
  727POPC   C4B 8724  13.973   5.038  17.718  0.0267 -0.0818 -0.3497
  728POPC   NC3 8725  18.417  29.594  19.551 -0.0008  0.3556 -0.3742
  728POPC   PO4 8726  18.511  29.204  19.526  0.1579  0.0148  0.0662
  728POPC   GL1 8727  18.647  29.168  19.168  0.3048  0.0688  0.0670
  728POPC   GL2 8728  18.486  28.909  19.112 -0.2348  0.1497  0.2299
  728POPC   C1A 8729  18.499  29.243  18.724 -0.3473  0.2775 -0.0132
  728POPC   D2A 8730  18.443  29.059  18.292 -0.2344 -0.0145 -0.1153
  728POPC   C3A 8731  18.431  29.059  17.837  0.2415  0.0284  0.0352
  728POPC   C4A 8732  18.295  28.965  17.433  0.3075 -0.0992 -0.1607
  728POPC   C1B 8733  18.413  28.708  18.707 -0.2777  0.0927 -0.1736
  728POPC   C2B 8734  18.303  28.568  18.266  0.1453  0.0461  0.0752
  728POPC   C3B 8735  18.251  28.402  17.833  0.1385  0.1310  0.0028
  728POPC   C4B 8736  18.126  28.419  17.375  0.3032  0.0357 -0.0853
  729POPC   NC3 8737  28.986  19.586  18.998  0.0389 -0.0409 -0.0726
  729POPC   PO4 8738  28.615  19.501  18.931  0.0855 -0.1219  0.0507
  729POPC   GL1 8739  28.732  19.496  18.562  0.0991  0.2718 -0.1894
  729POPC   GL2 8740  28.922  19.313  18.570  0.2637  0.0655  0.0953
  729POPC   C1A 8741  28.705  19.390  18.096  0.3247  0.1815 -0.0762
  729POPC   D2A 8742  28.929  19.439  17.755 -0.0642  0.0125  0.0553
  729POPC   C3A 8743  28.836  19.256  17.309 -0.1133 -0.1565 -0.0827
  729POPC   C4A 8744  28.841  19.312  16.876 -0.0251  0.1695  0.0740
  729POPC   C1B 8745  29.295  19.109  18.406  0.2242  0.0680 -0.2679
  729POPC   C2B 8746  29.448  19.015  17.962 -0.1040 -0.4343 -0.0475
  729POPC   C3B 8747  29.660  18.957  17.589 -0.3152 -0.3120  0.3581
  729POPC   C4B 8748  30.107  18.933  17.407  0.0354  0.3041  0.1050
  730POPC   NC3 8749  17.571   5.063  19.563  0.1922 -0.0901  0.0950
  730POPC   PO4 8750  17.559   4.802  19.212  0.1031 -0.0010 -0.0441
  730POPC   GL1 8751  17.381   4.674  18.940 -0.3742  0.1606 -0.5338
  730POPC   GL2 8752  17.193   4.829  18.863  0.0402  0.1274  0.3232
  730POPC   C1A 8753  17.626   4.413  18.663 -0.1863 -0.1960  0.3626
  730POPC   D2A 8754  17.578   4.138  18.328  0.3480  0.4921 -0.1261
  730POPC   C3A 8755  17.978   3.960  18.171 -0.4449 -0.0307  0.1299
  730POPC   C4A 8756  18.277   3.977  17.825 -0.2141  0.2935 -0.2200
  730POPC   C1B 8757  17.575   4.912  18.592  0.1256 -0.2620  0.0431
  730POPC   C2B 8758  17.951   4.963  18.365  0.1752  0.0596  0.0729
  730POPC   C3B 8759  18.024   4.887  17.888  0.0538 -0.0944 -0.4658
  730POPC   C4B 8760  17.956   4.827  17.446 -0.1342  0.1442  0.0198
  731POPC   NC3 8761   5.163   0.562  19.532 -0.0717  0.2986 -0.2177
  731POPC   PO4 8762   4.994   0.289  19.334 -0.1146 -0.0030 -0.1846
  731POPC   GL1 8763   5.039   0.099  18.977  0.1890  0.2119 -0.3861
  731POPC   GL2 8764   5.256  -0.065  19.092  0.2483 -0.1810  0.3214
  731POPC   C1A 8765   4.880  -0.179  18.700 -0.2897  0.1497 -0.1741
  731POPC   D2A 8766   4.562  -0.128  18.415  0.2719 -0.2387  0.0872
  731POPC   C3A 8767   4.698   0.053  17.977 -0.0149  0.1871 -0.0087
  731POPC   C4A 8768   5.152   0.202  17.893 -0.0084  0.0485  0.3994
  731POPC   C1B 8769   5.297   0.082  18.610  0.0614 -0.0049  0.3433
  731POPC   C2B 8770   5.110  -0.105  18.267 -0.2085  0.0529 -0.1590
  731POPC   C3B 8771   5.358  -0.318  17.904 -0.3116 -0.4405  0.2641
  731POPC   C4B 8772   5.433  -0.443  17.440  0.0106 -0.2053 -0.0636
  732POPC   NC3 8773  19.354  23.519  19.433  0.1380 -0.1736 -0.1494
  732POPC   PO4 8774  19.043  23.740  19.330  0.2016  0.0817 -0.2348
  732POPC   GL1 8775  19.305  23.661  18.980 -0.1841  0.2331 -0.1075
  732POPC   GL2 8776  19.200  23.457  18.882  0.2189 -0.0850  0.3560
  732POPC   C1A 8777  19.545  23.964  18.739 -0.0897  0.0250  0.2206
  732POPC   D2A 8778  19.885  24.018  18.382 -0.0803 -0.2942 -0.1208
  732POPC   C3A 8779  20.278  23.994  18.398 -0.1605  0.2457  0.2185
  732POPC   C4A 8780  20.631  23.707  18.403  0.2194 -0.2148  0.0717
  732POPC   C1B 8781  19.119  23.826  18.569  0.2224  0.2173 -0.3297
  732POPC   C2B 8782  19.169  24.223  18.441  0.1522  0.0011 -0.0666
  732POPC   C3B 8783  19.438  24.506  18.094  0.1287  0.1130 -0.0546
  732POPC   C4B 8784  19.480  24.772  17.709 -0.0531 -0.0971  0.0496
  733POPC   NC3 8785  30.608  20.172  19.292 -0.3231 -0.1845  0.0994
  733POPC   PO4 8786  30.269  20.057  19.190  0.3191 -0.0298  0.1764
  733POPC   GL1 8787  30.303  19.871  18.929  0.5792  0.0364 -0.2016
  733POPC   GL2 8788  30.529  20.008  18.752  0.2524  0.1140 -0.4557
  733POPC   C1A 8789  30.311  19.457  18.757  0.1343 -0.1376 -0.2116
  733POPC   D2A 8790  30.009  19.215  18.525 -0.2091 -0.0946  0.0001
  733POPC   C3A 8791  29.736  19.369  18.200 -0.3018  0.2441  0.1281
  733POPC   C4A 8792  29.532  19.416  17.702 -0.1764 -0.4986 -0.0564
  733POPC   C1B 8793  30.728  20.035  18.354 -0.0661 -0.0812 -0.1555
  733POPC   C2B 8794  30.661  20.123  17.874 -0.0394  0.3043  0.1169
  733POPC   C3B 8795  30.706  20.026  17.395  0.0601  0.2401  0.1316
  733POPC   C4B 8796  30.625  20.089  16.949  0.1447 -0.0612 -0.3192
  734POPC   NC3 8797  25.591   0.293  19.357 -0.3975  0.1352  0.4554
  734POPC   PO4 8798  25.663   0.626  19.514 -0.1059  0.2183 -0.3598
  734POPC   GL1 8799  25.828   0.799  19.191  0.3564 -0.0460 -0.0147
  734POPC   GL2 8800  25.564   0.978  19.105 -0.1530 -0.3184  0.0295
  734POPC   C1A 8801  26.024   0.869  18.803 -0.2422  0.0201  0.1139
  734POPC   D2A 8802  26.471   0.709  18.775  0.4816 -0.0221  0.0907
  734POPC   C3A 8803  26.444   1.056  18.518  0.1705 -0.0288  0.3097
  734POPC   C4A 8804  26.351   1.376  18.206  0.2127 -0.0265  0.2268
  734POPC   C1B 8805  25.563   1.083  18.668 -0.0943  0.0252 -0.2832
  734POPC   C2B 8806  25.342   0.995  18.299  0.1407 -0.0990  0.2109
  734POPC   C3B 8807  25.126   0.802  17.976  0.0620  0.0225  0.0263
  734POPC   C4B 8808  24.747   0.613  17.721  0.1723 -0.1954  0.0502
  735POPC   NC3 8809  28.249  17.378  19.142 -0.1790  0.2269  0.1649
  735POPC   PO4 8810  28.576  17.516  19.230 -0.1978  0.1190 -0.2020
  735POPC   GL1 8811  28.659  17.396  18.848  0.3227 -0.0222  0.2785
  735POPC   GL2 8812  28.424  17.448  18.670 -0.0428 -0.1699  0.1584
  735POPC   C1A 8813  28.900  17.532  18.542 -0.0817 -0.1920  0.3183
  735POPC   D2A 8814  28.934  17.531  18.066  0.0457 -0.2456  0.0962
  735POPC   C3A 8815  28.484  17.422  18.042  0.1130  0.0912 -0.0603
  735POPC   C4A 8816  28.056  17.272  18.176  0.1390  0.1218  0.0033
  735POPC   C1B 8817  28.480  17.794  18.407  0.0799  0.2575  0.2425
  735POPC   C2B 8818  28.414  17.985  17.924 -0.0349 -0.2378 -0.0955
  735POPC   C3B 8819  28.533  18.168  17.528 -0.0963  0.2057 -0.0111
  735POPC   C4B 8820  28.982  18.184  17.374  0.1033  0.0725  0.3307
  736POPC   NC3 8821   6.604  25.148  19.332 -0.1428 -0.0596  0.0047
  736POPC   PO4 8822   6.967  25.324  19.347  0.2330  0.0205 -0.0004
  736POPC   GL1 8823   7.140  25.094  19.170 -0.0502 -0.0265  0.0558
  736POPC   GL2 8824   6.953  24.912  19.008  0.0459  0.2999  0.3740
  736POPC   C1A 8825   7.346  25.000  18.765  0.2559 -0.0056 -0.0027
  736POPC   D2A 8826   7.525  25.006  18.384 -0.1914  0.0532 -0.2677
  736POPC   C3A 8827   7.374  25.063  17.921 -0.0701  0.1046 -0.0301
  736POPC   C4A 8828   7.633  25.261  17.586 -0.1748 -0.1443 -0.3418
  736POPC   C1B 8829   6.558  25.039  18.783  0.2472 -0.1542  0.0782
  736POPC   C2B 8830   6.309  25.123  18.400  0.0106  0.0875  0.1225
  736POPC   C3B 8831   6.221  25.226  17.893 -0.2672  0.0715 -0.0177
  736POPC   C4B 8832   6.219  25.249  17.438 -0.2287  0.0727 -0.1140
  737POPC   NC3 8833  30.583  13.499  19.884  0.1778  0.1280 -0.0156
  737POPC   PO4 8834  30.713  13.246  19.595  0.2284 -0.0607  0.0711
  737POPC   GL1 8835  30.623  13.079  19.194  0.2563 -0.4254  0.0821
  737POPC   GL2 8836  30.723  12.844  18.999 -0.1867 -0.0888  0.1629
  737POPC   C1A 8837  30.300  13.095  18.865  0.0466 -0.1461 -0.1157
  737POPC   D2A 8838  30.126  13.162  18.477 -0.3762  0.2998  0.1829
  737POPC   C3A 8839  30.217  12.747  18.299 -0.1545  0.2212  0.0378
  737POPC   C4A 8840  30.522  12.411  18.141  0.0997  0.1877  0.0301
  737POPC   C1B 8841  30.795  12.718  18.559  0.0984 -0.2766 -0.1635
  737POPC   C2B 8842  30.676  13.000  18.221 -0.2188  0.2318  0.2000
  737POPC   C3B 8843  30.365  12.943  17.903 -0.0548 -0.1401  0.0842
  737POPC   C4B 8844  30.081  12.711  17.589 -0.2487  0.0253 -0.0771
  738POPC   NC3 8845  23.977  19.626  20.218  0.3574  0.1052 -0.0951
  738POPC   PO4 8846  23.953  19.730  19.835 -0.2569  0.0439  0.0531
  738POPC   GL1 8847  23.662  19.788  19.568 -0.0298 -0.0831  0.2306
  738POPC   GL2 8848  23.412  19.669  19.702 -0.0634  0.0865  0.2873
  738POPC   C1A 8849  23.692  19.675  19.119 -0.2908  0.0383  0.0289
  738POPC   D2A 8850  23.559  19.557  18.688  0.0200  0.3357  0.0806
  738POPC   C3A 8851  23.370  19.150  18.502  0.0212 -0.0960  0.3550
  738POPC   C4A 8852  23.228  18.833  18.210  0.2784  0.1567  0.1107
  738POPC   C1B 8853  23.229  19.345  19.678  0.4759  0.0922  0.1272
  738POPC   C2B 8854  23.099  18.899  19.689 -0.2899 -0.0398  0.0197
  738POPC   C3B 8855  23.114  18.482  19.952  0.2665  0.1006 -0.1420
  738POPC   C4B 8856  23.203  18.069  20.051 -0.0488  0.1961 -0.0471
  739POPC   NC3 8857  19.830  15.320  19.255  0.0035  0.1378  0.1583
  739POPC   PO4 8858  19.611  15.084  19.040  0.2210  0.5588  0.2919
  739POPC   GL1 8859  19.774  14.897  18.683 -0.0799  0.1366 -0.0545
  739POPC   GL2 8860  19.686  15.052  18.506  0.2997 -0.1095 -0.1435
  739POPC   C1A 8861  20.143  14.842  18.412 -0.2009  0.0857  0.0563
  739POPC   D2A 8862  20.155  14.819  17.949 -0.0594  0.1657  0.0506
  739POPC   C3A 8863  20.453  14.565  17.761  0.1022  0.2509 -0.0132
  739POPC   C4A 8864  20.711  14.382  17.412 -0.1097  0.0942  0.0289
  739POPC   C1B 8865  19.656  15.440  18.182 -0.0243  0.2348  0.4052
  739POPC   C2B 8866  19.557  15.655  17.791  0.0394  0.1332 -0.0485
  739POPC   C3B 8867  19.251  15.871  17.505  0.0522 -0.0501  0.1405
  739POPC   C4B 8868  19.205  16.023  17.057 -0.0164 -0.1119 -0.2700
  740POPC   NC3 8869   5.978   5.426  19.880 -0.0442  0.0001 -0.0049
  740POPC   PO4 8870   5.888   5.492  19.488  0.0474 -0.0251 -0.0256
  740POPC   GL1 8871   5.876   5.379  19.135  0.5474 -0.1348 -0.0018
  740POPC   GL2 8872   5.982   5.145  19.014 -0.2805 -0.3013 -0.0333
  740POPC   C1A 8873   5.921   5.476  18.681 -0.1518 -0.1731 -0.0849
  740POPC   D2A 8874   5.914   5.460  18.247  0.1356  0.0012  0.0613
  740POPC   C3A 8875   5.708   5.425  17.857 -0.0863  0.1803 -0.1867
  740POPC   C4A 8876   5.634   5.523  17.423 -0.0883 -0.5708 -0.0754
  740POPC   C1B 8877   6.142   4.996  18.610  0.0830 -0.0731 -0.3318
  740POPC   C2B 8878   6.017   4.963  18.126 -0.1125 -0.1940  0.1121
  740POPC   C3B 8879   6.177   5.160  17.709 -0.1798  0.1910 -0.3378
  740POPC   C4B 8880   6.503   5.136  17.477  0.3674  0.1774  0.0860
  741POPC   NC3 8881   6.174  12.966  19.130  0.1179 -0.1417 -0.1315
  741POPC   PO4 8882   6.043  13.360  19.141  0.1619 -0.0874 -0.1152
  741POPC   GL1 8883   5.862  13.346  18.768 -0.1183 -0.4409 -0.0615
  741POPC   GL2 8884   5.998  13.099  18.679  0.0691  0.0048 -0.1511
  741POPC   C1A 8885   5.816  13.421  18.327  0.1573  0.3141 -0.1539
  741POPC   D2A 8886   5.839  13.652  17.903  0.1174 -0.0250 -0.1153
  741POPC   C3A 8887   6.043  13.874  17.572 -0.3759 -0.0873  0.1314
  741POPC   C4A 8888   6.478  13.987  17.470  0.1179 -0.1656  0.0383
  741POPC   C1B 8889   6.256  13.213  18.315  0.1548  0.0637  0.2181
  741POPC   C2B 8890   6.303  13.136  17.871 -0.0014 -0.1256 -0.1896
  741POPC   C3B 8891   6.468  12.874  17.600 -0.0285  0.3642 -0.1756
  741POPC   C4B 8892   6.620  12.526  17.412  0.1699 -0.2030  0.2619
  742POPC   NC3 8893  27.183  12.188  19.866  0.2517 -0.0478 -0.1246
  742POPC   PO4 8894  27.299  12.325  19.530  0.2492 -0.1605  0.1484
  742POPC   GL1 8895  27.481  12.141  19.276 -0.1388  0.2887  0.2266
  742POPC   GL2 8896  27.774  12.007  19.251  0.2647  0.1571 -0.1185
  742POPC   C1A 8897  27.443  12.140  18.819  0.3753  0.3488  0.1562
  742POPC   D2A 8898  27.583  12.270  18.419  0.1699  0.0005  0.1315
  742POPC   C3A 8899  27.659  12.072  17.992 -0.1216  0.2396  0.1580
  742POPC   C4A 8900  27.595  11.987  17.545 -0.1668  0.0284  0.0142
  742POPC   C1B 8901  27.833  11.847  18.820 -0.2356  0.0656 -0.1326
  742POPC   C2B 8902  28.062  11.968  18.455 -0.0105 -0.1174  0.1020
  742POPC   C3B 8903  28.114  12.152  18.082 -0.0540  0.2101 -0.0141
  742POPC   C4B 8904  28.034  12.228  17.658  0.1007  0.2509  0.2343
  743POPC   NC3 8905  21.105  26.791  19.245 -0.1553 -0.0242 -0.1211
  743POPC   PO4 8906  21.011  26.413  19.365  0.1374 -0.1976 -0.4039
  743POPC   GL1 8907  20.988  26.125  19.048 -0.1551 -0.0637  0.1074
  743POPC   GL2 8908  21.204  26.350  18.899  0.1975 -0.0763  0.1201
  743POPC   C1A 8909  20.762  26.123  18.667  0.1336 -0.0934 -0.1340
  743POPC   D2A 8910  20.433  25.965  18.380 -0.1139  0.1528  0.2411
  743POPC   C3A 8911  20.209  25.607  18.428 -0.2878 -0.1539 -0.0823
  743POPC   C4A 8912  20.273  25.173  18.182  0.1032  0.0575 -0.1546
  743POPC   C1B 8913  21.253  26.138  18.504  0.0681 -0.0276  0.0166
  743POPC   C2B 8914  21.067  26.083  18.062  0.1059  0.3816 -0.0231
  743POPC   C3B 8915  20.637  25.983  17.887 -0.1667  0.1282  0.0624
  743POPC   C4B 8916  20.257  25.912  17.691 -0.1551  0.0158  0.0459
  744POPC   NC3 8917  20.538  28.027  19.341  0.0221  0.2972  0.2301
  744POPC   PO4 8918  20.602  27.654  19.419 -0.1517 -0.0819 -0.0887
  744POPC   GL1 8919  20.518  27.702  19.010 -0.0502  0.1086 -0.0470
  744POPC   GL2 8920  20.372  27.488  18.971  0.0271 -0.2383 -0.1815
  744POPC   C1A 8921  20.868  27.624  18.690 -0.0381 -0.0156 -0.1709
  744POPC   D2A 8922  21.209  27.291  18.682  0.4365 -0.5637 -0.0748
  744POPC   C3A 8923  21.204  27.074  18.262 -0.0732  0.0910 -0.0907
  744POPC   C4A 8924  21.176  26.573  18.285 -0.1441 -0.3550  0.2232
  744POPC   C1B 8925  20.377  27.498  18.488  0.1562  0.0954  0.1773
  744POPC   C2B 8926  20.350  27.482  18.066 -0.1786 -0.0032 -0.1279
  744POPC   C3B 8927  20.328  27.285  17.645 -0.0319 -0.2123 -0.5170
  744POPC   C4B 8928  20.148  27.240  17.221  0.0836  0.2505  0.1315
  745POPC   NC3 8929  11.588  21.446  18.970  0.0980  0.2294  0.0070
  745POPC   PO4 8930  11.669  21.778  19.204  0.1055 -0.0908 -0.2072
  745POPC   GL1 8931  11.379  21.838  18.964 -0.2958  0.1749  0.0331
  745POPC   GL2 8932  11.533  21.929  18.708  0.1912 -0.1297 -0.1031
  745POPC   C1A 8933  11.169  21.558  18.692 -0.1171 -0.1865  0.1020
  745POPC   D2A 8934  10.947  21.399  18.297  0.1152  0.0531 -0.0492
  745POPC   C3A 8935  10.942  21.659  17.866  0.2205 -0.0295 -0.0599
  745POPC   C4A 8936  10.872  21.938  17.517 -0.0866  0.1467  0.0119
  745POPC   C1B 8937  11.567  22.094  18.300  0.0605 -0.0483  0.0293
  745POPC   C2B 8938  11.763  22.253  17.902  0.1404  0.0500  0.0965
  745POPC   C3B 8939  11.948  22.477  17.580  0.2519 -0.1149 -0.1596
  745POPC   C4B 8940  12.325  22.587  17.325 -0.2360  0.0777 -0.1468
  746POPC   NC3 8941   0.380  30.816  19.054  0.2067  0.0103  0.0852
  746POPC   PO4 8942   0.552  30.482  19.069 -0.2334  0.1319  0.0982
  746POPC   GL1 8943   0.402  30.355  18.673  0.0454  0.3983 -0.0419
  746POPC   GL2 8944   0.635  30.527  18.584 -0.1800  0.2315  0.2882
  746POPC   C1A 8945   0.341  30.029  18.345 -0.3811 -0.1323 -0.1709
  746POPC   D2A 8946   0.265  29.927  17.911 -0.1749 -0.1202 -0.0581
  746POPC   C3A 8947   0.566  29.708  17.642  0.2190 -0.2130  0.1258
  746POPC   C4A 8948   0.829  29.571  17.264 -0.0875  0.0913 -0.0852
  746POPC   C1B 8949   0.641  30.428  18.138 -0.2155  0.1593  0.0636
  746POPC   C2B 8950   0.605  30.310  17.711  0.0150  0.2553  0.0279
  746POPC   C3B 8951   0.170  30.163  17.488  0.1981  0.2633  0.4230
  746POPC   C4B 8952  -0.210  29.948  17.455 -0.2385  0.2465 -0.3526
  747POPC   NC3 8953  23.287  24.375  19.263 -0.0535 -0.0913 -0.0969
  747POPC   PO4 8954  22.977  24.598  19.137 -0.3912 -0.0589 -0.1358
  747POPC   GL1 8955  22.869  24.730  18.775  0.1001 -0.0672 -0.0015
  747POPC   GL2 8956  23.107  24.663  18.638  0.1124 -0.1840  0.1131
  747POPC   C1A 8957  22.928  25.094  18.497 -0.1484  0.0543  0.3316
  747POPC   D2A 8958  23.244  25.330  18.180 -0.1518  0.0701  0.1693
  747POPC   C3A 8959  23.152  25.493  17.809 -0.1647  0.3340  0.0396
  747POPC   C4A 8960  23.109  25.527  17.361  0.0642 -0.0103 -0.4610
  747POPC   C1B 8961  23.475  24.679  18.383  0.0983 -0.1845  0.3139
  747POPC   C2B 8962  23.796  24.662  17.999  0.0330 -0.0008 -0.1263
  747POPC   C3B 8963  23.803  24.730  17.538 -0.0438 -0.0225  0.3658
  747POPC   C4B 8964  23.709  24.644  17.117  0.1237  0.0417 -0.1944
  748POPC   NC3 8965   1.963   9.648  19.125 -0.1194 -0.2423 -0.1366
  748POPC   PO4 8966   2.380   9.702  19.089  0.2307 -0.1118 -0.4569
  748POPC   GL1 8967   2.327   9.354  18.897 -0.1119 -0.2664  0.0128
  748POPC   GL2 8968   2.621   9.163  18.870 -0.2418 -0.1047  0.4454
  748POPC   C1A 8969   2.299   9.435  18.445 -0.2069  0.0048 -0.1871
  748POPC   D2A 8970   2.590   9.497  18.114  0.4789 -0.0850  0.1211
  748POPC   C3A 8971   2.535   9.448  17.647  0.1225  0.0218  0.2598
  748POPC   C4A 8972   2.707   9.750  17.283 -0.1985 -0.1505 -0.2677
  748POPC   C1B 8973   2.817   9.186  18.454 -0.0096 -0.0865 -0.1672
  748POPC   C2B 8974   2.611   9.031  18.036  0.1933 -0.0427 -0.0484
  748POPC   C3B 8975   2.428   8.970  17.583  0.0498  0.0106  0.1720
  748POPC   C4B 8976   2.563   9.074  17.172 -0.1428 -0.0730 -0.2165
  749POPC   NC3 8977  12.518   0.570  19.460  0.1544  0.0319  0.3404
  749POPC   PO4 8978  12.807   0.605  19.206  0.0351  0.0668 -0.2976
  749POPC   GL1 8979  13.068   0.699  18.862 -0.0194  0.3901  0.0813
  749POPC   GL2 8980  12.927   0.561  18.593 -0.1527 -0.1319 -0.3638
  749POPC   C1A 8981  13.101   0.998  18.552  0.4021 -0.3259 -0.0849
  749POPC   D2A 8982  13.282   1.244  18.155  0.1840 -0.1761  0.1516
  749POPC   C3A 8983  13.232   1.075  17.756 -0.2324 -0.0382 -0.2576
  749POPC   C4A 8984  12.863   1.161  17.534 -0.4242 -0.1506 -0.0145
  749POPC   C1B 8985  12.935   0.659  18.129  0.0495  0.0667  0.0507
  749POPC   C2B 8986  12.892   0.599  17.689  0.0851  0.1263  0.0722
  749POPC   C3B 8987  12.727   0.713  17.322  0.5573  0.2521  0.1464
  749POPC   C4B 8988  12.854   1.010  17.055 -0.2144 -0.3391  0.2256
  750POPC   NC3 8989  22.098  22.355  19.359 -0.3219  0.0423  0.0517
  750POPC   PO4 8990  22.356  22.202  19.133 -0.1186  0.1832  0.0076
  750POPC   GL1 8991  22.330  22.239  18.736  0.0192  0.0120  0.1459
  750POPC   GL2 8992  22.555  22.115  18.508  0.0802 -0.0527 -0.1615
  750POPC   C1A 8993  22.061  22.289  18.312 -0.0130  0.0246  0.1129
  750POPC   D2A 8994  22.149  22.428  17.877  0.0797  0.0606  0.0397
  750POPC   C3A 8995  22.410  22.163  17.601 -0.5602  0.1821  0.1013
  750POPC   C4A 8996  22.649  21.954  17.269 -0.2969 -0.1110 -0.1346
  750POPC   C1B 8997  22.460  22.079  18.093 -0.1138 -0.1683  0.2750
  750POPC   C2B 8998  22.522  21.715  17.831 -0.1108  0.0641  0.1775
  750POPC   C3B 8999  22.595  21.338  17.575 -0.1650 -0.0077  0.0710
  750POPC   C4B 9000  22.719  21.494  17.123 -0.0502  0.0377 -0.1829
  751POPC   NC3 9001  26.488  16.112  19.446 -0.0723  0.1981  0.1568
  751POPC   PO4 9002  26.318  16.456  19.461 -0.2622 -0.2188 -0.2322
  751POPC   GL1 9003  26.280  16.533  19.097 -0.1414  0.1062 -0.4231
  751POPC   GL2 9004  26.391  16.742  18.927  0.0421 -0.1325  0.1191
  751POPC   C1A 9005  26.157  16.483  18.634 -0.1038  0.2049  0.2436
  751POPC   D2A 9006  26.114  16.346  18.161 -0.2219 -0.0041  0.0679
  751POPC   C3A 9007  26.287  15.922  18.205  0.0555  0.0409  0.1657
  751POPC   C4A 9008  26.257  15.771  17.761  0.1828 -0.0564 -0.1984
  751POPC   C1B 9009  26.638  16.762  18.513  0.2478 -0.1180  0.0997
  751POPC   C2B 9010  26.531  16.630  18.062  0.0236  0.3250 -0.2975
  751POPC   C3B 9011  26.481  16.304  17.748 -0.0486  0.2344  0.3707
  751POPC   C4B 9012  26.740  15.927  17.516  0.1382 -0.0389 -0.0288
  752POPC   NC3 9013  10.429  20.653  19.652 -0.2608  0.2235  0.0144
  752POPC   PO4 9014  10.285  20.422  19.280 -0.2088  0.0514 -0.4011
  752POPC   GL1 9015  10.125  20.311  18.909 -0.0430 -0.2479  0.3393
  752POPC   GL2 9016  10.386  20.353  18.804  0.2350  0.1743  0.1625
  752POPC   C1A 9017  10.005  20.587  18.556 -0.0611  0.1043 -0.0977
  752POPC   D2A 9018  10.060  20.880  18.194  0.2802 -0.0242  0.0785
  752POPC   C3A 9019  10.178  20.691  17.741  0.1421 -0.1128 -0.0943
  752POPC   C4A 9020  10.243  20.502  17.337 -0.2685  0.1609  0.1271
  752POPC   C1B 9021  10.574  20.239  18.362 -0.2391 -0.0532  0.1197
  752POPC   C2B 9022  10.484  20.254  17.913  0.1075 -0.1605 -0.0482
  752POPC   C3B 9023  10.788  20.190  17.570  0.3891  0.0297  0.2263
  752POPC   C4B 9024  10.945  20.162  17.148  0.0602 -0.1723  0.2208
  753POPC   NC3 9025  21.579  17.243  18.456 -0.2398 -0.0535  0.3012
  753POPC   PO4 9026  21.475  17.532  18.684  0.0408  0.5369 -0.0430
  753POPC   GL1 9027  21.860  17.654  18.479  0.0062 -0.1622  0.0338
  753POPC   GL2 9028  22.048  17.479  18.272 -0.2114  0.2249 -0.1376
  753POPC   C1A 9029  22.195  17.999  18.315  0.2076 -0.0289 -0.0049
  753POPC   D2A 9030  22.620  18.136  18.356  0.1404 -0.0540  0.1373
  753POPC   C3A 9031  22.998  17.861  18.387 -0.0042 -0.0188  0.0092
  753POPC   C4A 9032  23.286  17.571  18.397 -0.2526 -0.2300  0.1225
  753POPC   C1B 9033  22.474  17.544  18.151  0.0195  0.4984  0.0861
  753POPC   C2B 9034  22.729  17.872  17.907 -0.1489 -0.2460 -0.1690
  753POPC   C3B 9035  22.807  18.313  17.886 -0.1590  0.1217 -0.0367
  753POPC   C4B 9036  22.897  18.740  17.817 -0.2232  0.4308 -0.1071
  754POPC   NC3 9037  26.002  29.819  19.189  0.1372  0.2425  0.2117
  754POPC   PO4 9038  26.328  30.006  19.266  0.2551  0.4707 -0.1329
  754POPC   GL1 9039  26.397  30.220  18.984 -0.3376 -0.1890  0.2060
  754POPC   GL2 9040  26.167  30.142  18.806  0.1813 -0.0938  0.1348
  754POPC   C1A 9041  26.729  30.393  18.676  0.1965 -0.1822 -0.3340
  754POPC   D2A 9042  27.064  30.115  18.569  0.3593 -0.1143  0.0554
  754POPC   C3A 9043  27.034  29.893  18.116 -0.1851 -0.2130 -0.1041
  754POPC   C4A 9044  26.971  30.147  17.753 -0.0001  0.2946 -0.0522
  754POPC   C1B 9045  26.311  30.305  18.386  0.1808 -0.1117 -0.0446
  754POPC   C2B 9046  26.039  30.218  18.022 -0.0861 -0.0508  0.0365
  754POPC   C3B 9047  25.879  30.130  17.550  0.1157 -0.1950 -0.0483
  754POPC   C4B 9048  25.617  29.840  17.354  0.0472  0.0979  0.4282
  755POPC   NC3 9049  19.756  19.235  19.232  0.3348  0.1275  0.0590
  755POPC   PO4 9050  20.138  19.364  19.165  0.2004  0.3585  0.0207
  755POPC   GL1 9051  20.220  19.386  18.838 -0.4605 -0.0912 -0.0194
  755POPC   GL2 9052  20.517  19.604  18.848 -0.1368 -0.0239 -0.1865
  755POPC   C1A 9053  20.294  19.568  18.420 -0.0101  0.1315  0.2107
  755POPC   D2A 9054  20.365  19.545  17.961  0.1110 -0.0839 -0.0557
  755POPC   C3A 9055  19.944  19.517  17.755 -0.0645  0.3166 -0.0601
  755POPC   C4A 9056  19.637  19.858  17.616 -0.3656 -0.0645  0.2067
  755POPC   C1B 9057  20.799  19.447  18.555  0.0335 -0.0299 -0.0518
  755POPC   C2B 9058  20.931  19.636  18.175 -0.1580  0.0659  0.2956
  755POPC   C3B 9059  21.228  19.812  17.922  0.1393 -0.2167  0.3044
  755POPC   C4B 9060  21.657  19.950  17.695 -0.1522  0.0759 -0.0256
  756POPC   NC3 9061  20.746  21.195  19.147 -0.0294 -0.1179  0.0662
  756POPC   PO4 9062  20.451  21.469  19.127  0.0317  0.0759 -0.0571
  756POPC   GL1 9063  20.332  21.232  18.937 -0.1419 -0.2656 -0.2274
  756POPC   GL2 9064  20.439  21.041  18.759 -0.0649 -0.3207  0.1411
  756POPC   C1A 9065  20.150  21.394  18.526  0.2998 -0.1507  0.3508
  756POPC   D2A 9066  20.144  21.431  18.078 -0.1028  0.1402  0.0538
  756POPC   C3A 9067  20.294  21.061  17.826 -0.0749  0.1934  0.0891
  756POPC   C4A 9068  20.436  21.123  17.382  0.2608  0.1241  0.0603
  756POPC   C1B 9069  20.443  21.023  18.319  0.1941  0.1707  0.1651
  756POPC   C2B 9070  20.265  20.641  18.091  0.0827 -0.0017  0.0846
  756POPC   C3B 9071  20.402  20.547  17.632 -0.0792  0.2105 -0.0275
  756POPC   C4B 9072  20.237  20.669  17.214  0.1013  0.0874  0.2923
  757POPC   NC3 9073   3.412  24.758  19.679 -0.0365  0.1806 -0.1524
  757POPC   PO4 9074   3.255  25.076  19.458 -0.1617  0.1979 -0.2606
  757POPC   GL1 9075   3.322  24.711  19.249 -0.1985  0.0687  0.1448
  757POPC   GL2 9076   3.185  24.810  19.017  0.2903  0.1017  0.0020
  757POPC   C1A 9077   3.740  24.643  19.039  0.2283 -0.2456  0.0547
  757POPC   D2A 9078   3.643  24.537  18.599 -0.1273 -0.2538 -0.0846
  757POPC   C3A 9079   3.792  24.634  18.149  0.1609  0.0981  0.0323
  757POPC   C4A 9080   3.656  24.925  17.821 -0.0729  0.0569 -0.0744
  757POPC   C1B 9081   3.223  24.874  18.605  0.0042 -0.0953  0.0164
  757POPC   C2B 9082   3.360  24.761  18.196 -0.0410  0.0758  0.3278
  757POPC   C3B 9083   3.370  24.525  17.803 -0.0364  0.2747  0.0258
  757POPC   C4B 9084   3.695  24.434  17.521  0.4612 -0.0000  0.1111
  758POPC   NC3 9085  25.591  27.921  19.246 -0.2088  0.0749  0.0770
  758POPC   PO4 9086  25.941  27.826  19.403  0.1670 -0.0378  0.2383
  758POPC   GL1 9087  26.023  27.764  19.031 -0.0138  0.4412  0.0929
  758POPC   GL2 9088  25.925  27.503  19.018  0.0570 -0.0847  0.1939
  758POPC   C1A 9089  26.336  27.928  18.754  0.1011  0.0147 -0.0494
  758POPC   D2A 9090  26.627  28.082  18.471  0.0390  0.3850  0.1243
  758POPC   C3A 9091  26.513  28.124  17.985 -0.0052 -0.0437 -0.1870
  758POPC   C4A 9092  26.533  28.298  17.543  0.2836  0.2108 -0.0055
  758POPC   C1B 9093  26.089  27.497  18.582 -0.4005 -0.2230  0.2332
  758POPC   C2B 9094  26.160  27.750  18.209  0.2632  0.2951  0.0014
  758POPC   C3B 9095  26.240  27.729  17.805 -0.0531 -0.0006  0.0513
  758POPC   C4B 9096  26.205  27.927  17.406  0.2568  0.0167  0.1935
  759POPC   NC3 9097  22.185  26.033  18.899  0.1409  0.1413 -0.0664
  759POPC   PO4 9098  21.993  25.776  19.098  0.2536  0.2308 -0.0389
  759POPC   GL1 9099  21.880  25.821  18.688 -0.0880  0.1191  0.3513
  759POPC   GL2 9100  21.675  25.965  18.648  0.0464  0.1860  0.1122
  759POPC   C1A 9101  22.041  25.854  18.266  0.0192 -0.0293  0.2369
  759POPC   D2A 9102  21.988  26.093  17.815 -0.0033 -0.0536  0.2402
  759POPC   C3A 9103  21.761  26.021  17.454 -0.0701  0.0640  0.1744
  759POPC   C4A 9104  21.455  25.680  17.293 -0.3408 -0.1422  0.0708
  759POPC   C1B 9105  21.632  26.098  18.226  0.1301 -0.2002 -0.1941
  759POPC   C2B 9106  21.489  26.221  17.819  0.0011  0.2466 -0.1931
  759POPC   C3B 9107  21.168  26.100  17.538  0.1619  0.0873  0.3963
  759POPC   C4B 9108  20.696  26.126  17.445 -0.1155 -0.0833 -0.1681
  760POPC   NC3 9109  17.159  21.865  19.515  0.3285  0.0783  0.0423
  760POPC   PO4 9110  16.842  21.781  19.364  0.3150 -0.0173 -0.0452
  760POPC   GL1 9111  16.761  21.644  18.989 -0.1810  0.2651  0.2193
  760POPC   GL2 9112  16.896  21.788  18.795 -0.2712 -0.0127 -0.0715
  760POPC   C1A 9113  16.607  21.488  18.578 -0.1864  0.1025 -0.2254
  760POPC   D2A 9114  16.349  21.374  18.195  0.1603 -0.2687 -0.1003
  760POPC   C3A 9115  16.558  21.264  17.794  0.0726 -0.0891  0.0890
  760POPC   C4A 9116  16.398  20.988  17.445 -0.0151 -0.2275  0.1519
  760POPC   C1B 9117  17.000  21.602  18.353 -0.1834  0.1806  0.3938
  760POPC   C2B 9118  16.970  21.472  17.903 -0.2922 -0.1689  0.0916
  760POPC   C3B 9119  16.955  21.397  17.454  0.1931  0.1666  0.0271
  760POPC   C4B 9120  17.276  21.095  17.323 -0.0602 -0.0524 -0.0158
  761POPC   NC3 9121  27.527   1.451  19.286 -0.3412  0.1041  0.2365
  761POPC   PO4 9122  27.601   1.091  19.149 -0.4013 -0.0392 -0.1351
  761POPC   GL1 9123  27.490   1.336  18.805 -0.1930  0.0144  0.2564
  761POPC   GL2 9124  27.632   1.580  18.839  0.4083 -0.2161  0.1233
  761POPC   C1A 9125  27.464   1.470  18.367  0.0589 -0.2912 -0.2948
  761POPC   D2A 9126  27.367   1.526  17.912  0.0551 -0.2748 -0.1908
  761POPC   C3A 9127  27.059   1.247  17.743 -0.0900  0.0772  0.0593
  761POPC   C4A 9128  26.913   1.214  17.313 -0.1522  0.0892 -0.1384
  761POPC   C1B 9129  27.943   1.522  18.493 -0.0381 -0.1520  0.1997
  761POPC   C2B 9130  28.205   1.501  18.167 -0.1659 -0.3279 -0.0988
  761POPC   C3B 9131  28.173   1.627  17.742 -0.0492 -0.1510 -0.3200
  761POPC   C4B 9132  28.127   1.729  17.321  0.1254  0.0914  0.1665
  762POPC   NC3 9133  18.851  22.722  19.032 -0.0421 -0.1486  0.2126
  762POPC   PO4 9134  18.859  22.331  19.066 -0.1050  0.1281  0.0849
  762POPC   GL1 9135  18.609  22.403  18.779 -0.2780 -0.2467 -0.1158
  762POPC   GL2 9136  18.813  22.546  18.578 -0.1770  0.4608 -0.2247
  762POPC   C1A 9137  18.306  22.307  18.502  0.0990  0.0339  0.0204
  762POPC   D2A 9138  18.221  22.264  18.043  0.1370  0.0955  0.2834
  762POPC   C3A 9139  18.551  22.320  17.741 -0.0797 -0.1929  0.0559
  762POPC   C4A 9140  19.036  22.489  17.571  0.3063 -0.2598 -0.1893
  762POPC   C1B 9141  19.159  22.308  18.364 -0.1332 -0.0484  0.1399
  762POPC   C2B 9142  19.342  22.302  17.939  0.0265 -0.0698 -0.1077
  762POPC   C3B 9143  19.583  22.420  17.549 -0.1159  0.1088 -0.1334
  762POPC   C4B 9144  19.935  22.475  17.271  0.0950  0.1425 -0.1671
  763POPC   NC3 9145   5.633  16.136  19.239  0.2217  0.1968 -0.2163
  763POPC   PO4 9146   5.295  16.276  19.418 -0.3831  0.2302  0.0980
  763POPC   GL1 9147   5.154  16.308  19.002  0.0851  0.0420  0.0451
  763POPC   GL2 9148   4.927  16.143  19.083  0.1378 -0.2673  0.1694
  763POPC   C1A 9149   4.852  16.481  18.713 -0.1327 -0.0496  0.0485
  763POPC   D2A 9150   4.840  16.609  18.284 -0.2545 -0.1757  0.1760
  763POPC   C3A 9151   4.960  16.686  17.896 -0.0505 -0.2309 -0.0821
  763POPC   C4A 9152   5.070  16.504  17.450 -0.0666  0.0550 -0.0434
  763POPC   C1B 9153   4.955  15.936  18.651  0.1255 -0.2633 -0.1543
  763POPC   C2B 9154   5.102  15.774  18.239  0.1125  0.5742  0.1995
  763POPC   C3B 9155   5.107  15.723  17.807 -0.0047  0.0110 -0.2038
  763POPC   C4B 9156   5.186  15.695  17.306  0.3498  0.1646  0.2028
  764POPC   NC3 9157   6.101  25.366  19.569 -0.2022 -0.1130  0.2666
  764POPC   PO4 9158   6.177  25.735  19.410  0.1324  0.1846  0.1281
  764POPC   GL1 9159   6.123  26.008  19.117  0.5451  0.1884  0.0632
  764POPC   GL2 9160   6.256  25.804  18.908  0.1062  0.3062 -0.0695
  764POPC   C1A 9161   5.837  26.021  18.721 -0.0240  0.0485  0.1959
  764POPC   D2A 9162   5.669  25.742  18.331  0.0836 -0.1031  0.2230
  764POPC   C3A 9163   5.630  25.891  17.881 -0.0173 -0.1899  0.1104
  764POPC   C4A 9164   5.640  26.168  17.515  0.0374 -0.3146  0.0689
  764POPC   C1B 9165   6.447  25.607  18.545 -0.0022  0.1180 -0.3508
  764POPC   C2B 9166   6.549  25.522  18.094  0.3497 -0.0175 -0.1542
  764POPC   C3B 9167   6.670  25.340  17.677  0.1318 -0.0522  0.3077
  764POPC   C4B 9168   6.667  25.258  17.230 -0.0425 -0.1401 -0.1502
  765POPC   NC3 9169  12.620  16.204  19.178 -0.1816 -0.0947 -0.1020
  765POPC   PO4 9170  12.447  15.818  19.156  0.1265 -0.0782  0.0686
  765POPC   GL1 9171  12.307  15.751  18.798  0.0603 -0.0498 -0.3243
  765POPC   GL2 9172  12.275  15.530  18.736  0.1089  0.0958 -0.1606
  765POPC   C1A 9173  12.389  15.920  18.373 -0.1937 -0.0230 -0.2523
  765POPC   D2A 9174  12.618  15.924  17.949  0.1204  0.0161  0.1355
  765POPC   C3A 9175  12.807  15.522  17.719  0.1780  0.0290 -0.1881
  765POPC   C4A 9176  12.879  15.118  17.572  0.1870  0.2661 -0.1659
  765POPC   C1B 9177  12.256  15.184  18.478 -0.0229 -0.0304 -0.0838
  765POPC   C2B 9178  12.205  14.964  18.059  0.0954  0.1209  0.0578
  765POPC   C3B 9179  12.381  14.950  17.618  0.1111 -0.0146 -0.1024
  765POPC   C4B 9180  12.406  14.817  17.159  0.0042 -0.0508  0.0984
  766POPC   NC3 9181  30.978  12.806  19.490  0.0098  0.0331 -0.1080
  766POPC   PO4 9182  31.053  13.106  19.254  0.1778  0.1444 -0.0008
  766POPC   GL1 9183  31.177  13.034  18.893  0.2199 -0.2697 -0.3452
  766POPC   GL2 9184  31.233  12.722  18.865 -0.1767  0.1490  0.1989
  766POPC   C1A 9185  31.242  12.859  18.425  0.0844 -0.4114  0.2516
  766POPC   D2A 9186  31.087  12.567  18.095  0.1397  0.0565  0.1870
  766POPC   C3A 9187  31.370  12.480  17.751  0.2133 -0.0688  0.1125
  766POPC   C4A 9188  31.781  12.347  17.769 -0.3243 -0.1477 -0.2516
  766POPC   C1B 9189  31.327  12.391  18.574 -0.0759 -0.0416  0.0253
  766POPC   C2B 9190  31.478  12.261  18.178 -0.3924  0.3002  0.2697
  766POPC   C3B 9191  31.439  11.944  17.817  0.0205 -0.1087 -0.2832
  766POPC   C4B 9192  31.525  11.838  17.344  0.1384 -0.0869  0.0295
  767POPC   NC3 9193  30.183  14.972  19.641  0.0072 -0.3124  0.0598
  767POPC   PO4 9194  30.391  14.646  19.504  0.0892 -0.0267  0.0347
  767POPC   GL1 9195  30.425  14.447  19.155  0.1348 -0.0179  0.2002
  767POPC   GL2 9196  30.478  14.212  19.253 -0.0804 -0.0869  0.0179
  767POPC   C1A 9197  30.390  14.496  18.707 -0.0469 -0.2167  0.1337
  767POPC   D2A 9198  30.521  14.199  18.373 -0.1990 -0.0756  0.4316
  767POPC   C3A 9199  30.438  14.403  17.968 -0.1871 -0.1377 -0.0601
  767POPC   C4A 9200  30.326  14.633  17.589 -0.2178  0.0500 -0.0305
  767POPC   C1B 9201  30.481  13.965  18.868  0.0053 -0.0590  0.0292
  767POPC   C2B 9202  30.530  13.662  18.505 -0.0712  0.0724  0.1183
  767POPC   C3B 9203  30.402  13.462  18.145  0.2647  0.1919 -0.0754
  767POPC   C4B 9204  30.199  13.422  17.747 -0.2343  0.0233  0.3525
  768POPC   NC3 9205   6.397  20.226  19.067 -0.0072  0.1189  0.3029
  768POPC   PO4 9206   5.997  20.276  19.189  0.0799 -0.0249  0.0762
  768POPC   GL1 9207   6.126  20.515  18.831 -0.1073 -0.2359  0.0415
  768POPC   GL2 9208   5.937  20.315  18.614 -0.1100  0.0065  0.0417
  768POPC   C1A 9209   6.189  20.989  18.904  0.1686  0.3657  0.0431
  768POPC   D2A 9210   6.349  21.321  19.196  0.1446  0.0412 -0.1971
  768POPC   C3A 9211   6.655  21.638  19.083 -0.2290  0.1776 -0.1514
  768POPC   C4A 9212   7.146  21.589  19.055  0.4426 -0.1283 -0.0949
  768POPC   C1B 9213   5.898  20.450  18.165  0.5624  0.0144 -0.2472
  768POPC   C2B 9214   5.968  20.621  17.708 -0.0688  0.0462  0.3535
  768POPC   C3B 9215   6.142  20.472  17.256 -0.0307  0.0257 -0.0543
  768POPC   C4B 9216   6.159  20.222  16.842 -0.0229 -0.1823  0.0363
  769POPC   NC3 9217  12.442  12.815  19.803  0.2007  0.1734 -0.0427
  769POPC   PO4 9218  12.243  13.064  19.622  0.2698  0.1504  0.0332
  769POPC   GL1 9219  12.297  12.968  19.180  0.4293  0.1275 -0.2736
  769POPC   GL2 9220  12.425  13.271  19.160  0.1031  0.0991 -0.4864
  769POPC   C1A 9221  12.037  12.683  18.898  0.1143  0.1254 -0.0161
  769POPC   D2A 9222  11.921  12.298  18.595  0.2470  0.2398  0.1420
  769POPC   C3A 9223  11.921  12.377  18.129  0.1713 -0.0180 -0.0347
  769POPC   C4A 9224  12.163  12.401  17.719  0.1010 -0.0112 -0.3002
  769POPC   C1B 9225  12.586  13.447  18.775 -0.0654 -0.0894 -0.1357
  769POPC   C2B 9226  12.498  13.329  18.302  0.3683 -0.1864  0.1505
  769POPC   C3B 9227  12.414  13.236  17.854 -0.1622 -0.4985  0.0969
  769POPC   C4B 9228  12.438  12.794  17.643 -0.0366 -0.1085 -0.2711
  770POPC   NC3 9229   6.304  29.684  19.713  0.0323 -0.2873 -0.2068
  770POPC   PO4 9230   6.631  29.949  19.650  0.1158  0.2189  0.1916
  770POPC   GL1 9231   6.572  29.990  19.273 -0.0074  0.0353 -0.1403
  770POPC   GL2 9232   6.326  29.815  19.239  0.2668  0.0805 -0.1034
  770POPC   C1A 9233   6.719  30.177  18.880 -0.1262  0.0552 -0.1091
  770POPC   D2A 9234   6.911  30.445  18.563  0.0585 -0.1237  0.3786
  770POPC   C3A 9235   6.872  30.331  18.177  0.0159 -0.1852 -0.3983
  770POPC   C4A 9236   6.887  30.206  17.701 -0.2062  0.0817 -0.0321
  770POPC   C1B 9237   6.594  29.663  18.862 -0.4348 -0.1511 -0.2670
  770POPC   C2B 9238   6.420  29.668  18.446  0.0177  0.1757  0.4768
  770POPC   C3B 9239   6.246  29.504  18.084  0.2729  0.2665 -0.2965
  770POPC   C4B 9240   6.254  29.488  17.638 -0.0008  0.2235 -0.1053
  771POPC   NC3 9241  28.429  10.490  19.540 -0.1014 -0.0831 -0.1294
  771POPC   PO4 9242  28.510  10.855  19.659 -0.0674 -0.0252 -0.0352
  771POPC   GL1 9243  28.494  10.820  19.152  0.1438  0.1733 -0.0132
  771POPC   GL2 9244  28.173  10.753  19.203  0.1458  0.2069  0.1296
  771POPC   C1A 9245  28.355  11.007  18.751  0.2762 -0.3145  0.1138
  771POPC   D2A 9246  28.349  10.960  18.283  0.0483 -0.1291 -0.0147
  771POPC   C3A 9247  28.486  10.701  17.906 -0.1155  0.0795 -0.0388
  771POPC   C4A 9248  28.646  10.856  17.452  0.0717  0.1927 -0.0590
  771POPC   C1B 9249  28.043  10.490  18.889 -0.0854  0.1698 -0.0850
  771POPC   C2B 9250  28.027  10.477  18.439  0.1663  0.1196 -0.2796
  771POPC   C3B 9251  28.096  10.377  18.040  0.0540 -0.4054  0.4073
  771POPC   C4B 9252  28.035  10.690  17.697 -0.1029  0.0118  0.0568
  772POPC   NC3 9253  20.725   1.571  18.783 -0.0033 -0.0532 -0.0074
  772POPC   PO4 9254  21.165   1.636  18.797 -0.0252  0.0161  0.0322
  772POPC   GL1 9255  21.318   1.490  18.450 -0.0139  0.0067 -0.0105
  772POPC   GL2 9256  21.236   1.546  18.178 -0.1328  0.0575 -0.2552
  772POPC   C1A 9257  21.523   1.171  18.170 -0.0501  0.4700 -0.1366
  772POPC   D2A 9258  21.539   0.809  17.930  0.0397 -0.1839  0.0014
  772POPC   C3A 9259  21.955   0.851  17.694 -0.0868 -0.1481  0.0675
  772POPC   C4A 9260  22.256   0.863  17.366  0.2780 -0.0347 -0.2366
  772POPC   C1B 9261  21.083   1.642  17.735 -0.0556  0.0590 -0.2017
  772POPC   C2B 9262  21.283   1.648  17.317 -0.0413  0.1110  0.1818
  772POPC   C3B 9263  21.440   1.345  16.984  0.0895 -0.1147 -0.4142
  772POPC   C4B 9264  21.535   0.951  16.691 -0.0009 -0.0402  0.0482
  773POPC   NC3 9265  28.061  31.010  19.409  0.2492 -0.0214 -0.1566
  773POPC   PO4 9266  28.058  30.613  19.354  0.0120 -0.0848 -0.0697
  773POPC   GL1 9267  28.118  30.799  18.999 -0.1571  0.2538  0.0707
  773POPC   GL2 9268  27.919  30.984  18.916  0.1089  0.1147 -0.0258
  773POPC   C1A 9269  28.318  30.778  18.586 -0.1973  0.2736 -0.0293
  773POPC   D2A 9270  28.434  30.562  18.162 -0.0961  0.0619  0.0579
  773POPC   C3A 9271  28.208  30.645  17.763  0.1206  0.0446  0.0546
  773POPC   C4A 9272  28.132  30.586  17.337  0.1811  0.1087  0.2121
  773POPC   C1B 9273  27.852  31.120  18.477 -0.0178 -0.3053  0.0944
  773POPC   C2B 9274  27.888  31.419  18.121 -0.0317 -0.1531 -0.1649
  773POPC   C3B 9275  28.095  31.607  17.693  0.0033 -0.1157  0.1445
  773POPC   C4B 9276  28.070  31.863  17.271  0.0106 -0.0675  0.0240
  774POPC   NC3 9277  31.637   7.047  19.596  0.2000  0.0992 -0.2182
  774POPC   PO4 9278  31.801   6.850  19.289  0.2167  0.2023  0.2816
  774POPC   GL1 9279  31.963   6.719  18.925 -0.1796  0.1038 -0.0079
  774POPC   GL2 9280  31.695   6.520  18.922 -0.0893  0.0182  0.0808
  774POPC   C1A 9281  32.172   6.851  18.522 -0.0205  0.0761 -0.0503
  774POPC   D2A 9282  32.554   6.916  18.343 -0.0636 -0.0896 -0.2478
  774POPC   C3A 9283  32.465   6.650  18.030 -0.1453 -0.0814  0.3393
  774POPC   C4A 9284  32.280   6.202  18.015 -0.0194 -0.1491 -0.4832
  774POPC   C1B 9285  31.677   6.133  18.650  0.0989  0.1536 -0.0389
  774POPC   C2B 9286  31.743   6.057  18.200  0.0616  0.2372  0.1530
  774POPC   C3B 9287  31.795   6.386  17.891  0.1422  0.1094 -0.1331
  774POPC   C4B 9288  32.129   6.498  17.687  0.0088 -0.1845  0.1733
  775POPC   NC3 9289  24.747  11.892  19.490 -0.0896  0.1594  0.2683
  775POPC   PO4 9290  24.434  11.665  19.499 -0.0816 -0.0049  0.1277
  775POPC   GL1 9291  24.340  11.623  19.148 -0.3189  0.2138  0.2371
  775POPC   GL2 9292  24.393  11.501  18.896  0.2319 -0.1356  0.1564
  775POPC   C1A 9293  24.083  11.912  18.872  0.0215  0.2157  0.0798
  775POPC   D2A 9294  23.830  11.891  18.490 -0.1311  0.0770 -0.1042
  775POPC   C3A 9295  23.431  11.827  18.277 -0.0051 -0.2419  0.4646
  775POPC   C4A 9296  23.431  11.700  17.827 -0.1188 -0.2032 -0.1209
  775POPC   C1B 9297  24.269  11.649  18.476 -0.0409 -0.4864  0.2786
  775POPC   C2B 9298  24.528  11.815  18.145  0.0368 -0.0308  0.3293
  775POPC   C3B 9299  24.637  12.036  17.785 -0.2978  0.1226  0.0710
  775POPC   C4B 9300  24.763  12.395  17.526 -0.1028  0.3977 -0.1498
  776POPC   NC3 9301  14.433  28.356  19.575  0.0230  0.3057 -0.0932
  776POPC   PO4 9302  14.787  28.241  19.692 -0.1114  0.0551  0.1754
  776POPC   GL1 9303  14.915  28.526  19.455  0.3233 -0.1235 -0.3289
  776POPC   GL2 9304  14.742  28.611  19.285 -0.1241  0.0716  0.0632
  776POPC   C1A 9305  15.213  28.522  19.106  0.2653  0.1044  0.0913
  776POPC   D2A 9306  15.561  28.706  18.848  0.1670  0.1066  0.0050
  776POPC   C3A 9307  15.331  28.875  18.434  0.3745 -0.0901 -0.0716
  776POPC   C4A 9308  15.144  28.910  18.015  0.1125  0.1468 -0.1181
  776POPC   C1B 9309  14.727  28.274  18.957 -0.0385 -0.1128  0.1431
  776POPC   C2B 9310  15.090  28.141  18.673  0.1457 -0.0806 -0.1389
  776POPC   C3B 9311  15.476  27.866  18.436  0.0058 -0.1700 -0.2303
  776POPC   C4B 9312  15.932  27.720  18.297 -0.0933  0.1186  0.0019
  777POPC   NC3 9313  26.607  19.681  19.425  0.0779 -0.0655 -0.1243
  777POPC   PO4 9314  26.478  20.040  19.319 -0.0434  0.1064 -0.0131
  777POPC   GL1 9315  26.694  20.068  18.989 -0.1458 -0.0341  0.0808
  777POPC   GL2 9316  26.854  20.298  19.080  0.2017  0.1145  0.0476
  777POPC   C1A 9317  26.613  19.949  18.535  0.1804 -0.1190  0.0885
  777POPC   D2A 9318  26.646  19.682  18.152  0.1854  0.1235  0.1273
  777POPC   C3A 9319  26.581  19.771  17.697 -0.0371  0.1100  0.2601
  777POPC   C4A 9320  26.229  19.864  17.400  0.0699  0.3390  0.0223
  777POPC   C1B 9321  26.976  20.341  18.656  0.1452  0.0827 -0.0083
  777POPC   C2B 9322  26.938  20.568  18.319 -0.1654 -0.0019  0.0017
  777POPC   C3B 9323  26.915  20.546  17.840  0.0966  0.0927  0.4491
  777POPC   C4B 9324  26.906  20.155  17.564  0.4124  0.0386 -0.0005
  778POPC   NC3 9325  29.951   5.900  19.244  0.2399 -0.0931 -0.1608
  778POPC   PO4 9326  29.579   6.011  19.129 -0.0603  0.1861 -0.0558
  778POPC   GL1 9327  29.865   6.134  18.827  0.0279 -0.1350  0.3433
  778POPC   GL2 9328  29.788   5.908  18.646  0.0792 -0.4915  0.2137
  778POPC   C1A 9329  29.910   6.445  18.462 -0.0246  0.0599 -0.2855
  778POPC   D2A 9330  30.105   6.257  18.051  0.0671 -0.1856 -0.0357
  778POPC   C3A 9331  29.839   6.400  17.668 -0.0024  0.2112 -0.0501
  778POPC   C4A 9332  29.559   6.507  17.326  0.0426  0.0707  0.0763
  778POPC   C1B 9333  29.902   5.891  18.244  0.1986 -0.2112 -0.0074
  778POPC   C2B 9334  29.916   5.877  17.788  0.0465  0.0492 -0.0653
  778POPC   C3B 9335  30.269   6.024  17.572 -0.0072 -0.0752  0.2355
  778POPC   C4B 9336  30.391   6.186  17.151 -0.1280  0.2337 -0.0603
  779POPC   NC3 9337  21.343   5.488  19.294  0.0992  0.0367 -0.1168
  779POPC   PO4 9338  21.141   5.148  19.410 -0.0795 -0.1987  0.3051
  779POPC   GL1 9339  21.088   4.853  19.209  0.1970 -0.0633  0.1978
  779POPC   GL2 9340  21.389   4.838  19.087 -0.1894 -0.0433  0.0331
  779POPC   C1A 9341  21.041   4.825  18.705  0.0580  0.0519  0.0939
  779POPC   D2A 9342  21.275   4.667  18.370  0.2861 -0.0996  0.2014
  779POPC   C3A 9343  20.950   4.422  18.163  0.1381  0.1363  0.2358
  779POPC   C4A 9344  20.693   4.479  17.864  0.0843  0.2534 -0.1514
  779POPC   C1B 9345  21.669   4.723  18.765 -0.0543 -0.0670  0.0184
  779POPC   C2B 9346  21.729   4.776  18.320 -0.1814 -0.2727 -0.0631
  779POPC   C3B 9347  21.565   4.731  17.933 -0.1387 -0.0573  0.0253
  779POPC   C4B 9348  21.177   4.701  17.784  0.2920  0.0324 -0.0679
  780POPC   NC3 9349  10.299  12.979  19.477 -0.3697  0.0459  0.4247
  780POPC   PO4 9350  10.289  13.321  19.444  0.0416  0.4237  0.1350
  780POPC   GL1 9351  10.428  13.166  19.111  0.4368 -0.0799  0.0163
  780POPC   GL2 9352  10.589  13.421  19.037  0.1913  0.2184 -0.0884
  780POPC   C1A 9353  10.504  12.873  18.712  0.0403 -0.3049 -0.1994
  780POPC   D2A 9354  10.446  12.832  18.271 -0.1122 -0.1603 -0.5107
  780POPC   C3A 9355  10.710  13.025  17.972  0.0451 -0.1374 -0.3853
  780POPC   C4A 9356  10.507  13.243  17.628 -0.0494  0.0812 -0.1089
  780POPC   C1B 9357  10.599  13.401  18.554  0.1401 -0.6289 -0.2396
  780POPC   C2B 9358  10.690  13.474  18.169  0.2300  0.1686  0.0516
  780POPC   C3B 9359  10.673  13.795  17.837  0.5304  0.1878 -0.0058
  780POPC   C4B 9360  10.574  14.081  17.521  0.1314  0.1711 -0.1357
  781POPC   NC3 9361  21.174   2.501  18.626  0.0505 -0.4346  0.0811
  781POPC   PO4 9362  21.407   2.680  18.919 -0.0992  0.3211  0.2666
  781POPC   GL1 9363  21.512   2.782  18.506 -0.2510 -0.2730  0.0758
  781POPC   GL2 9364  21.295   2.882  18.292 -0.3685 -0.2638  0.4280
  781POPC   C1A 9365  21.880   2.835  18.256 -0.0884  0.3506  0.1964
  781POPC   D2A 9366  21.992   2.693  17.828  0.2036  0.1635 -0.1929
  781POPC   C3A 9367  21.903   3.059  17.517  0.1505  0.0832  0.2486
  781POPC   C4A 9368  21.771   3.493  17.466  0.2688 -0.1632 -0.0850
  781POPC   C1B 9369  21.084   2.920  17.916 -0.0063  0.0567 -0.0186
  781POPC   C2B 9370  21.106   2.703  17.489  0.2859 -0.2152 -0.2060
  781POPC   C3B 9371  20.860   2.327  17.308  0.2320 -0.2678 -0.2358
  781POPC   C4B 9372  20.932   2.004  16.998 -0.0895  0.1481 -0.1078
  782POPC   NC3 9373   8.706  19.795  19.163 -0.2806 -0.1944  0.1396
  782POPC   PO4 9374   8.996  20.020  19.196  0.0255 -0.1367 -0.0268
  782POPC   GL1 9375   8.927  19.822  18.721  0.0294 -0.3126 -0.0129
  782POPC   GL2 9376   8.656  19.692  18.678 -0.2908  0.0976 -0.4258
  782POPC   C1A 9377   9.194  19.890  18.353  0.3949 -0.0989  0.0950
  782POPC   D2A 9378   9.552  20.020  18.086  0.0148  0.3467 -0.1016
  782POPC   C3A 9379   9.702  19.797  17.726 -0.0643 -0.0561 -0.3444
  782POPC   C4A 9380   9.938  19.590  17.382  0.2807  0.0559  0.0896
  782POPC   C1B 9381   8.702  20.030  18.407 -0.1910 -0.0729 -0.0670
  782POPC   C2B 9382   8.695  20.302  18.032 -0.1330 -0.2101  0.5613
  782POPC   C3B 9383   8.704  20.722  17.808 -0.0514 -0.1624  0.0756
  782POPC   C4B 9384   8.822  20.998  17.520 -0.1830 -0.2826  0.0659
  783POPC   NC3 9385  20.610  21.930  19.158 -0.2415 -0.1761 -0.2727
  783POPC   PO4 9386  20.938  21.813  19.347  0.0512  0.1720 -0.0834
  783POPC   GL1 9387  20.997  21.618  19.049  0.2406  0.3576  0.1225
  783POPC   GL2 9388  21.010  21.882  18.852 -0.1999  0.0519 -0.1340
  783POPC   C1A 9389  20.801  21.459  18.622  0.3212 -0.2232 -0.0791
  783POPC   D2A 9390  20.658  21.400  18.135 -0.2176 -0.2500 -0.1613
  783POPC   C3A 9391  20.885  21.292  17.719  0.0439 -0.0108 -0.0711
  783POPC   C4A 9392  20.867  21.396  17.279  0.2261 -0.1878  0.1538
  783POPC   C1B 9393  20.979  21.874  18.405 -0.1107  0.0520 -0.0365
  783POPC   C2B 9394  21.037  21.753  17.956  0.1996 -0.1476  0.0312
  783POPC   C3B 9395  21.159  21.788  17.510 -0.0714 -0.2765 -0.1001
  783POPC   C4B 9396  21.296  21.568  17.121 -0.0347  0.0099  0.1856
  784POPC   NC3 9397  21.353   1.914  19.355 -0.0109 -0.2384 -0.1273
  784POPC   PO4 9398  21.546   1.762  19.099 -0.3344  0.2191 -0.1781
  784POPC   GL1 9399  21.616   1.766  18.661 -0.2658  0.3791 -0.3919
  784POPC   GL2 9400  21.888   1.781  18.685 -0.3440 -0.1740  0.1714
  784POPC   C1A 9401  21.671   1.782  18.206  0.0845 -0.2503 -0.0931
  784POPC   D2A 9402  21.555   1.776  17.722 -0.1686  0.2935 -0.3686
  784POPC   C3A 9403  21.557   1.326  17.646  0.0883 -0.0445  0.3136
  784POPC   C4A 9404  21.483   0.972  17.371 -0.0304 -0.0523  0.2352
  784POPC   C1B 9405  22.173   1.619  18.420 -0.2768 -0.0807  0.1784
  784POPC   C2B 9406  22.304   1.781  18.020 -0.2771 -0.2346 -0.0270
  784POPC   C3B 9407  22.038   1.791  17.646 -0.5320  0.2054 -0.2227
  784POPC   C4B 9408  21.800   1.654  17.273  0.0077  0.2752 -0.0530
  785POPC   NC3 9409   7.014   4.284  19.102  0.1054  0.0112 -0.2486
  785POPC   PO4 9410   6.770   4.447  19.332  0.0669 -0.0676  0.1968
  785POPC   GL1 9411   6.573   4.136  19.079 -0.2305  0.1880 -0.0164
  785POPC   GL2 9412   6.474   3.921  19.182  0.0822 -0.1598  0.0679
  785POPC   C1A 9413   6.713   4.073  18.620 -0.0861 -0.1165 -0.0997
  785POPC   D2A 9414   7.028   4.008  18.289  0.1011 -0.2533 -0.0074
  785POPC   C3A 9415   6.933   3.815  17.868  0.1571  0.2165  0.1528
  785POPC   C4A 9416   6.670   3.847  17.486 -0.2529 -0.0151  0.2692
  785POPC   C1B 9417   6.367   3.652  18.742 -0.0491 -0.2168 -0.0898
  785POPC   C2B 9418   6.365   3.274  18.420  0.2121 -0.2150  0.0057
  785POPC   C3B 9419   6.441   3.001  18.063  0.1830  0.0447 -0.0029
  785POPC   C4B 9420   6.482   2.944  17.595  0.0250 -0.0332 -0.3112
  786POPC   NC3 9421  13.380  30.195  19.453  0.2873 -0.1279  0.0973
  786POPC   PO4 9422  13.238  30.059  19.109 -0.1604 -0.3361 -0.0432
  786POPC   GL1 9423  13.195  29.990  18.732 -0.0358 -0.1210  0.1526
  786POPC   GL2 9424  12.856  29.938  18.751 -0.0365  0.2550 -0.0258
  786POPC   C1A 9425  13.249  30.181  18.335  0.2642 -0.2216  0.1104
  786POPC   D2A 9426  13.027  30.188  17.913 -0.2549  0.1986 -0.1610
  786POPC   C3A 9427  12.828  30.460  17.616  0.0409  0.3830  0.1340
  786POPC   C4A 9428  13.040  30.517  17.187  0.1211  0.0348  0.1804
  786POPC   C1B 9429  12.783  29.967  18.288  0.5008 -0.4093  0.1438
  786POPC   C2B 9430  12.976  29.715  17.909 -0.0967  0.0958  0.0970
  786POPC   C3B 9431  13.136  29.903  17.507  0.2708 -0.0296  0.3477
  786POPC   C4B 9432  13.043  30.004  17.073 -0.2376  0.0315 -0.5147
  787POPC   NC3 9433  18.905  14.284  19.197 -0.1102  0.0027  0.1866
  787POPC   PO4 9434  18.508  14.398  19.206  0.2787 -0.0565 -0.3078
  787POPC   GL1 9435  18.572  14.076  18.869  0.3921  0.1514  0.1008
  787POPC   GL2 9436  18.631  14.264  18.721 -0.1652  0.2991  0.0706
  787POPC   C1A 9437  18.420  13.876  18.478  0.0210 -0.0422  0.1769
  787POPC   D2A 9438  18.151  13.850  18.070  0.0097 -0.0033 -0.1794
  787POPC   C3A 9439  18.054  13.354  18.095  0.2153 -0.0840  0.0124
  787POPC   C4A 9440  18.341  13.029  18.128  0.3008  0.3418 -0.0140
  787POPC   C1B 9441  18.820  14.071  18.341  0.3794 -0.1212 -0.1311
  787POPC   C2B 9442  18.626  14.019  17.953  0.0845  0.3342  0.0102
  787POPC   C3B 9443  18.317  13.999  17.532  0.0743  0.1433  0.2737
  787POPC   C4B 9444  17.971  14.044  17.112  0.0386  0.0460  0.0655
  788POPC   NC3 9445  24.757  27.181  19.027  0.1882  0.1619 -0.1147
  788POPC   PO4 9446  24.470  27.279  19.299 -0.0391  0.2900  0.1528
  788POPC   GL1 9447  24.315  27.430  18.917  0.4864  0.1872 -0.2778
  788POPC   GL2 9448  24.526  27.696  18.832  0.3439  0.0679 -0.2018
  788POPC   C1A 9449  24.431  27.180  18.571  0.0084 -0.0014  0.0981
  788POPC   D2A 9450  24.730  26.949  18.249  0.1701 -0.0376  0.1589
  788POPC   C3A 9451  25.049  27.174  18.020  0.0792 -0.0608  0.2212
  788POPC   C4A 9452  25.351  27.235  18.352 -0.3035 -0.0182  0.0915
  788POPC   C1B 9453  24.245  27.715  18.442 -0.0735 -0.1329 -0.1286
  788POPC   C2B 9454  24.201  27.764  17.970 -0.0817 -0.0196 -0.0991
  788POPC   C3B 9455  24.095  27.661  17.515 -0.6788 -0.0254 -0.2188
  788POPC   C4B 9456  23.913  27.548  17.116 -0.2149  0.0772 -0.2197
  789POPC   NC3 9457  25.221  23.774  19.386 -0.2122  0.1063 -0.1269
  789POPC   PO4 9458  25.198  23.424  19.217 -0.0120  0.0022  0.0630
  789POPC   GL1 9459  25.001  23.549  18.833  0.1855  0.1091  0.2035
  789POPC   GL2 9460  25.132  23.270  18.652 -0.1215  0.1111 -0.0495
  789POPC   C1A 9461  25.112  23.733  18.407 -0.0044 -0.0904  0.1801
  789POPC   D2A 9462  25.076  23.848  17.919 -0.2848 -0.1825 -0.2220
  789POPC   C3A 9463  25.375  23.783  17.578 -0.0395 -0.1858  0.0951
  789POPC   C4A 9464  25.725  23.791  17.296  0.0431 -0.0568  0.1032
  789POPC   C1B 9465  25.140  22.965  18.276  0.0041 -0.0565 -0.0496
  789POPC   C2B 9466  25.048  22.945  17.841  0.1692 -0.1613  0.2753
  789POPC   C3B 9467  25.009  22.709  17.404  0.0527  0.0717  0.1501
  789POPC   C4B 9468  25.030  22.308  17.061  0.1628 -0.0282 -0.0857
  790POPC   NC3 9469   7.994  19.449  19.113 -0.0808  0.0421 -0.4349
  790POPC   PO4 9470   8.238  19.740  19.056  0.2852 -0.0624 -0.0323
  790POPC   GL1 9471   8.114  19.575  18.648 -0.2100 -0.3393 -0.1711
  790POPC   GL2 9472   7.983  19.369  18.612  0.2342 -0.1308 -0.1855
  790POPC   C1A 9473   8.302  19.683  18.240 -0.3407 -0.3592 -0.2102
  790POPC   D2A 9474   8.232  19.580  17.776  0.2068 -0.4583  0.2982
  790POPC   C3A 9475   8.427  19.602  17.351  0.0965 -0.2174  0.0593
  790POPC   C4A 9476   8.610  19.933  17.150 -0.3104 -0.2292  0.3761
  790POPC   C1B 9477   8.041  19.256  18.214 -0.0200  0.0157  0.2067
  790POPC   C2B 9478   8.111  19.016  17.797  0.1418  0.1618 -0.0259
  790POPC   C3B 9479   8.295  18.892  17.374 -0.3807 -0.0616 -0.0612
  790POPC   C4B 9480   8.277  19.037  16.973  0.1355 -0.0608 -0.3190
  791POPC   NC3 9481  27.050   7.534  19.246 -0.0249  0.0086 -0.1443
  791POPC   PO4 9482  27.065   7.170  19.032 -0.5172 -0.3285  0.1666
  791POPC   GL1 9483  27.062   7.091  18.594  0.1397  0.0380  0.2151
  791POPC   GL2 9484  27.199   7.297  18.553 -0.2827 -0.0737 -0.0360
  791POPC   C1A 9485  26.918   7.381  18.237 -0.1844 -0.2547 -0.0781
  791POPC   D2A 9486  27.039   7.474  17.833  0.2091  0.2887  0.0315
  791POPC   C3A 9487  27.134   7.809  17.507  0.0633 -0.2014  0.1179
  791POPC   C4A 9488  27.581   7.984  17.435 -0.1887  0.0052 -0.2580
  791POPC   C1B 9489  27.246   6.962  18.191 -0.3068  0.1790 -0.1769
  791POPC   C2B 9490  27.681   6.894  18.039  0.0573  0.2850  0.1070
  791POPC   C3B 9491  28.002   6.913  17.755  0.1891 -0.1349  0.0014
  791POPC   C4B 9492  28.160   6.789  17.308  0.2422  0.1299 -0.1081
  792POPC   NC3 9493   7.271  19.367  19.657  0.0309  0.0967 -0.2044
  792POPC   PO4 9494   7.068  19.615  19.454  0.5069 -0.0426  0.1857
  792POPC   GL1 9495   7.111  19.750  19.067  0.0143 -0.3531 -0.1573
  792POPC   GL2 9496   7.233  20.015  19.098  0.0924  0.2450  0.0735
  792POPC   C1A 9497   6.854  20.086  18.795  0.2393 -0.1861 -0.0242
  792POPC   D2A 9498   6.914  20.500  18.609  0.0420 -0.0969  0.0535
  792POPC   C3A 9499   7.118  20.910  18.564  0.1271  0.5703  0.1421
  792POPC   C4A 9500   7.395  21.151  18.369  0.0856 -0.1756  0.0769
  792POPC   C1B 9501   7.375  20.102  18.641  0.2587  0.4933 -0.0489
  792POPC   C2B 9502   7.603  20.204  18.242 -0.0226 -0.2749  0.2604
  792POPC   C3B 9503   7.810  20.298  17.877  0.1154 -0.0337  0.0565
  792POPC   C4B 9504   8.212  20.572  17.865 -0.0154 -0.1427 -0.0350
  793POPC   NC3 9505  20.085  17.645  18.916 -0.0361 -0.1594  0.1622
  793POPC   PO4 9506  20.279  17.841  19.227 -0.0860 -0.0553  0.0195
  793POPC   GL1 9507  20.078  18.125  19.083 -0.2542 -0.1636 -0.1363
  793POPC   GL2 9508  20.164  18.200  18.864 -0.0422  0.0280  0.1485
  793POPC   C1A 9509  19.735  18.045  18.731 -0.1493  0.2564 -0.2118
  793POPC   D2A 9510  19.651  17.736  18.382 -0.1570  0.0784  0.3431
  793POPC   C3A 9511  19.855  18.051  18.060  0.2045 -0.1640  0.1116
  793POPC   C4A 9512  19.813  18.187  17.642 -0.0282 -0.0448 -0.2143
  793POPC   C1B 9513  20.200  17.953  18.477 -0.0665 -0.5234 -0.0115
  793POPC   C2B 9514  20.326  18.003  18.045 -0.2961 -0.0836  0.1087
  793POPC   C3B 9515  20.306  17.792  17.706 -0.3615  0.0281  0.1522
  793POPC   C4B 9516  20.052  17.819  17.303  0.4270 -0.2431  0.0358
  794POPC   NC3 9517   6.621  26.027  19.148 -0.1359  0.1849 -0.0602
  794POPC   PO4 9518   6.632  25.635  19.194 -0.2780  0.1374  0.0774
  794POPC   GL1 9519   6.822  25.548  18.876 -0.0551  0.1891  0.0180
  794POPC   GL2 9520   6.984  25.384  18.825  0.2247  0.0534 -0.2630
  794POPC   C1A 9521   6.852  25.877  18.501 -0.3181 -0.4604  0.2802
  794POPC   D2A 9522   6.859  26.051  17.981 -0.2155 -0.1030  0.2522
  794POPC   C3A 9523   6.494  25.866  17.758  0.0729 -0.2210  0.0467
  794POPC   C4A 9524   6.465  25.653  17.363  0.1867 -0.3382 -0.2893
  794POPC   C1B 9525   6.970  25.313  18.411 -0.0263 -0.2081 -0.0772
  794POPC   C2B 9526   6.686  25.067  18.113  0.1715  0.1785  0.0154
  794POPC   C3B 9527   6.470  24.903  17.667 -0.0700 -0.1663 -0.0264
  794POPC   C4B 9528   6.498  24.719  17.262 -0.1304  0.1796  0.0138
  795POPC   NC3 9529  29.588  23.776  19.075  0.1926 -0.2005 -0.1662
  795POPC   PO4 9530  29.927  23.981  19.004 -0.1169 -0.3010  0.1308
  795POPC   GL1 9531  29.831  24.009  18.688  0.2098 -0.0551 -0.0381
  795POPC   GL2 9532  29.622  23.777  18.561  0.2510 -0.2461 -0.1480
  795POPC   C1A 9533  29.852  24.243  18.300 -0.1358  0.2229  0.1602
  795POPC   D2A 9534  29.735  24.490  17.991 -0.0018 -0.1749  0.2941
  795POPC   C3A 9535  29.648  24.616  17.578 -0.3804  0.0277 -0.0507
  795POPC   C4A 9536  29.633  24.677  17.089 -0.0716 -0.3039 -0.1543
  795POPC   C1B 9537  29.727  23.760  18.112  0.0692  0.0694  0.1023
  795POPC   C2B 9538  29.643  23.660  17.594 -0.1906 -0.0870  0.0675
  795POPC   C3B 9539  29.641  23.237  17.370  0.4648  0.0486 -0.3411
  795POPC   C4B 9540  29.832  22.951  17.018  0.0173  0.2751 -0.1928
  796POPC   NC3 9541   4.587  11.467  19.278  0.0260 -0.3066 -0.0627
  796POPC   PO4 9542   4.885  11.560  19.023 -0.0028  0.3580 -0.2888
  796POPC   GL1 9543   5.024  11.586  18.626 -0.1245 -0.0783  0.2692
  796POPC   GL2 9544   5.172  11.751  18.554  0.1900 -0.3703  0.0351
  796POPC   C1A 9545   5.177  11.273  18.307 -0.2307 -0.2118 -0.0896
  796POPC   D2A 9546   5.297  11.048  17.873 -0.0554 -0.2391 -0.0657
  796POPC   C3A 9547   4.951  11.012  17.548 -0.0656 -0.1925  0.0034
  796POPC   C4A 9548   4.640  10.906  17.218  0.1267  0.1602 -0.1199
  796POPC   C1B 9549   5.442  11.693  18.204 -0.0815  0.1855 -0.0281
  796POPC   C2B 9550   5.713  11.866  17.854  0.1806 -0.0692  0.0445
  796POPC   C3B 9551   5.820  11.646  17.463 -0.1084  0.1488  0.1845
  796POPC   C4B 9552   6.060  11.570  17.076 -0.0817  0.1328  0.0887
  797POPC   NC3 9553  19.174  14.910  18.761 -0.3408  0.0165 -0.0441
  797POPC   PO4 9554  18.931  14.659  18.899 -0.2953  0.4347 -0.2946
  797POPC   GL1 9555  18.788  14.716  18.505 -0.0864 -0.1242  0.2022
  797POPC   GL2 9556  18.482  14.740  18.501  0.1468 -0.0077 -0.3220
  797POPC   C1A 9557  18.807  14.487  18.113 -0.0241  0.1457  0.1306
  797POPC   D2A 9558  18.756  14.474  17.655 -0.3550 -0.1312 -0.1812
  797POPC   C3A 9559  18.744  14.170  17.321  0.0575 -0.0538 -0.0865
  797POPC   C4A 9560  18.633  14.080  16.893  0.0390 -0.0373 -0.1189
  797POPC   C1B 9561  18.022  14.733  18.335  0.1804 -0.1295  0.1826
  797POPC   C2B 9562  17.662  14.762  17.987  0.0725 -0.3826 -0.0249
  797POPC   C3B 9563  17.438  14.702  17.567 -0.1101  0.0135  0.1910
  797POPC   C4B 9564  17.133  14.507  17.230 -0.1108 -0.0032  0.0913
  798POPC   NC3 9565  28.719  28.509  19.189  0.1572  0.3669 -0.1231
  798POPC   PO4 9566  28.849  28.528  19.570  0.0284 -0.3474  0.1909
  798POPC   GL1 9567  29.192  28.568  19.257  0.0912 -0.0051  0.0021
  798POPC   GL2 9568  29.150  28.259  19.106 -0.3718  0.0188  0.1709
  798POPC   C1A 9569  29.426  28.650  18.868  0.3541  0.3212 -0.4128
  798POPC   D2A 9570  29.605  28.786  18.490 -0.1690  0.0983  0.0766
  798POPC   C3A 9571  29.557  28.520  18.095 -0.2294  0.1793  0.1297
  798POPC   C4A 9572  29.860  28.661  17.779  0.0351 -0.0514 -0.1245
  798POPC   C1B 9573  29.045  28.081  18.723  0.1771  0.0683 -0.3045
  798POPC   C2B 9574  29.128  28.287  18.324 -0.3226  0.1329 -0.0525
  798POPC   C3B 9575  29.091  28.367  17.850  0.1573  0.0920  0.1413
  798POPC   C4B 9576  28.696  28.428  17.596  0.5042 -0.3666  0.1850
  799POPC   NC3 9577  26.858  29.910  19.152 -0.0936 -0.0347  0.2184
  799POPC   PO4 9578  27.169  29.706  19.052 -0.3560  0.0644 -0.2587
  799POPC   GL1 9579  26.938  29.627  18.744  0.4038 -0.2012 -0.1186
  799POPC   GL2 9580  27.098  29.404  18.711  0.3774  0.0331  0.1560
  799POPC   C1A 9581  26.616  29.881  18.466  0.1884  0.5951  0.1528
  799POPC   D2A 9582  26.502  29.943  18.022 -0.2872 -0.0706  0.2111
  799POPC   C3A 9583  26.507  29.478  17.909  0.2288 -0.0734  0.1314
  799POPC   C4A 9584  26.589  29.086  17.647  0.0616 -0.0535 -0.1511
  799POPC   C1B 9585  27.193  29.408  18.295  0.2678  0.1103  0.2882
  799POPC   C2B 9586  27.010  29.423  17.915  0.0026 -0.1430  0.0751
  799POPC   C3B 9587  26.941  29.695  17.506 -0.2631 -0.2453 -0.0185
  799POPC   C4B 9588  26.914  29.868  17.075  0.1999 -0.0121  0.3345
  800POPC   NC3 9589  29.517   3.403  19.455 -0.2238  0.2409 -0.0292
  800POPC   PO4 9590  29.433   3.138  19.693  0.0196  0.1029 -0.0267
  800POPC   GL1 9591  29.135   2.943  19.402  0.0137 -0.1022 -0.2610
  800POPC   GL2 9592  29.087   3.099  19.212 -0.1187  0.0049 -0.1740
  800POPC   C1A 9593  29.121   2.574  19.085  0.1280  0.0277 -0.0317
  800POPC   D2A 9594  29.306   2.228  18.813 -0.0244  0.2021  0.0593
  800POPC   C3A 9595  29.715   2.118  19.040 -0.3214 -0.0252  0.0388
  800POPC   C4A 9596  29.931   1.773  19.220 -0.0955 -0.3113  0.2784
  800POPC   C1B 9597  29.145   3.112  18.747 -0.1127 -0.4029  0.2149
  800POPC   C2B 9598  28.965   3.301  18.375  0.0399 -0.0931 -0.1370
  800POPC   C3B 9599  29.152   3.431  17.951  0.0748 -0.5042  0.2793
  800POPC   C4B 9600  29.224   3.559  17.503 -0.0567  0.3024  0.2990
  801POPC   NC3 9601  15.762   6.124  19.414 -0.2753 -0.1294 -0.0943
  801POPC   PO4 9602  15.703   6.515  19.634  0.3967  0.0266  0.2636
  801POPC   GL1 9603  15.507   6.494  19.281 -0.2260 -0.1028  0.7358
  801POPC   GL2 9604  15.320   6.358  19.185  0.0280 -0.2476 -0.0959
  801POPC   C1A 9605  15.451   6.690  18.850 -0.2019 -0.0149  0.1591
  801POPC   D2A 9606  15.099   6.807  18.576  0.1153 -0.2479  0.4510
  801POPC   C3A 9607  15.268   6.902  18.141  0.1194 -0.1405 -0.0120
  801POPC   C4A 9608  15.627   6.893  17.820 -0.1947 -0.2398 -0.1658
  801POPC   C1B 9609  15.503   6.027  18.923 -0.1242 -0.1946 -0.4408
  801POPC   C2B 9610  15.941   5.906  18.886  0.1701  0.0563 -0.0062
  801POPC   C3B 9611  16.292   5.936  18.658 -0.1179  0.3390  0.0273
  801POPC   C4B 9612  16.332   5.765  18.179 -0.1484  0.1206 -0.0436
  802POPC   NC3 9613   4.165   5.645  19.886  0.1011 -0.2121 -0.0574
  802POPC   PO4 9614   4.427   5.933  19.840 -0.0463 -0.0855 -0.0454
  802POPC   GL1 9615   4.074   6.071  19.602 -0.0083 -0.1245 -0.3068
  802POPC   GL2 9616   4.074   6.162  19.311  0.0519 -0.1189  0.2666
  802POPC   C1A 9617   3.751   6.422  19.692 -0.0704  0.1094 -0.2614
  802POPC   D2A 9618   3.322   6.600  19.621  0.1616  0.1842 -0.1161
  802POPC   C3A 9619   3.247   6.546  19.164 -0.0014 -0.3379 -0.0698
  802POPC   C4A 9620   3.121   6.294  18.819 -0.1133 -0.3208  0.0948
  802POPC   C1B 9621   4.055   6.017  18.869  0.2226  0.1624 -0.3437
  802POPC   C2B 9622   3.904   5.744  18.570  0.0065 -0.4176 -0.1444
  802POPC   C3B 9623   3.459   5.650  18.477 -0.0015  0.3528  0.0634
  802POPC   C4B 9624   3.282   5.832  18.107  0.2435 -0.1058 -0.0630
  803POPC   NC3 9625  14.514   9.667  18.832 -0.0610 -0.1251  0.2028
  803POPC   PO4 9626  14.701   9.938  18.992 -0.0403  0.0064 -0.0545
  803POPC   GL1 9627  14.718  10.018  18.630  0.0234 -0.2491  0.0034
  803POPC   GL2 9628  14.488  10.014  18.452 -0.1298 -0.0521  0.0819
  803POPC   C1A 9629  15.028  10.061  18.309  0.3337  0.2344 -0.0400
  803POPC   D2A 9630  15.288  10.146  17.940 -0.0566 -0.0572  0.4015
  803POPC   C3A 9631  15.221  10.026  17.487 -0.3359 -0.1548 -0.0431
  803POPC   C4A 9632  15.193  10.011  16.978 -0.0282  0.1639  0.0302
  803POPC   C1B 9633  14.316   9.798  18.071 -0.1331 -0.2753 -0.1087
  803POPC   C2B 9634  14.482   9.637  17.667  0.2902  0.0309  0.0992
  803POPC   C3B 9635  14.881   9.673  17.373 -0.1982  0.1425 -0.2352
  803POPC   C4B 9636  15.036   9.486  16.957 -0.0571 -0.1039 -0.0994
  804POPC   NC3 9637  12.281  30.632  19.260  0.1914 -0.1883 -0.1017
  804POPC   PO4 9638  12.449  30.928  19.432 -0.0499 -0.1662 -0.0716
  804POPC   GL1 9639  12.562  30.948  19.092 -0.3388 -0.0116  0.1281
  804POPC   GL2 9640  12.481  31.235  18.994  0.3705  0.1209 -0.3211
  804POPC   C1A 9641  12.286  30.714  18.780  0.0023  0.0395  0.3721
  804POPC   D2A 9642  12.270  30.687  18.330 -0.1693 -0.1579  0.1543
  804POPC   C3A 9643  12.054  30.606  17.951  0.0636  0.1449 -0.0811
  804POPC   C4A 9644  12.315  30.687  17.570  0.0393  0.1029 -0.1939
  804POPC   C1B 9645  12.287  31.177  18.614  0.0612 -0.0406 -0.2930
  804POPC   C2B 9646  12.271  31.203  18.131  0.2293 -0.0362 -0.0435
  804POPC   C3B 9647  12.305  31.212  17.655 -0.0775 -0.1718 -0.0873
  804POPC   C4B 9648  12.115  31.100  17.260  0.2422 -0.1260  0.0006
  805POPC   NC3 9649  29.385  20.928  19.229 -0.0520 -0.3239 -0.1211
  805POPC   PO4 9650  28.986  21.024  19.172  0.1529  0.1253 -0.2821
  805POPC   GL1 9651  28.970  20.879  18.846  0.0253 -0.1087 -0.0324
  805POPC   GL2 9652  29.269  20.821  18.766  0.2592  0.0666  0.3258
  805POPC   C1A 9653  28.765  20.874  18.402 -0.1402 -0.0234 -0.1331
  805POPC   D2A 9654  28.540  20.772  17.986 -0.0019  0.2273 -0.4534
  805POPC   C3A 9655  28.871  20.661  17.658  0.1199  0.5242  0.2511
  805POPC   C4A 9656  29.049  20.557  17.215 -0.3026 -0.2444  0.1197
  805POPC   C1B 9657  29.609  20.666  18.520  0.1938  0.1852  0.0646
  805POPC   C2B 9658  29.744  20.271  18.342 -0.0371  0.1475 -0.1777
  805POPC   C3B 9659  29.683  19.941  18.019 -0.0595 -0.3038 -0.3622
  805POPC   C4B 9660  29.916  19.820  17.677  0.1092 -0.2107  0.1005
  806POPC   NC3 9661   6.052  23.012  20.090 -0.1580  0.2749  0.0878
  806POPC   PO4 9662   5.887  22.892  19.783 -0.2124  0.0497  0.1008
  806POPC   GL1 9663   5.959  22.798  19.412  0.1859  0.1115 -0.0227
  806POPC   GL2 9664   6.014  23.020  19.230 -0.1565  0.1634 -0.0808
  806POPC   C1A 9665   5.936  22.483  19.046 -0.0359  0.0115  0.3362
  806POPC   D2A 9666   6.015  22.292  18.634 -0.0734  0.1929  0.2575
  806POPC   C3A 9667   6.222  22.255  18.207  0.0907 -0.1443  0.0850
  806POPC   C4A 9668   6.500  22.378  17.870 -0.2102  0.2256 -0.3408
  806POPC   C1B 9669   6.147  22.911  18.859 -0.2329  0.3614  0.1123
  806POPC   C2B 9670   6.393  22.653  18.517  0.0283 -0.2418 -0.0573
  806POPC   C3B 9671   6.679  22.298  18.356 -0.0624  0.0712 -0.3082
  806POPC   C4B 9672   7.158  22.207  18.276  0.1849  0.0550 -0.1638
  807POPC   NC3 9673  11.833   3.575  19.435 -0.2390  0.1636  0.0611
  807POPC   PO4 9674  11.457   3.604  19.594 -0.5378 -0.0742  0.4335
  807POPC   GL1 9675  11.372   3.794  19.247 -0.5324  0.1451  0.4748
  807POPC   GL2 9676  11.448   3.508  19.095  0.0140 -0.3357  0.0083
  807POPC   C1A 9677  11.203   3.837  18.803 -0.0075  0.3025  0.0284
  807POPC   D2A 9678  10.749   3.729  18.627 -0.1605  0.0264 -0.3455
  807POPC   C3A 9679  10.669   3.470  18.267 -0.1125  0.1998  0.0775
  807POPC   C4A 9680  10.321   3.250  17.990 -0.0792  0.1054 -0.0413
  807POPC   C1B 9681  11.643   3.572  18.689 -0.2070  0.2183 -0.3185
  807POPC   C2B 9682  11.592   3.509  18.225 -0.5471 -0.3067 -0.1647
  807POPC   C3B 9683  11.790   3.586  17.789  0.2013 -0.2807 -0.0030
  807POPC   C4B 9684  11.900   3.472  17.337  0.1717 -0.0307 -0.0696
  808POPC   NC3 9685   6.275   9.575  18.718  0.1705 -0.1532  0.3952
  808POPC   PO4 9686   6.668   9.583  18.776 -0.1894  0.0249 -0.0157
  808POPC   GL1 9687   6.746   9.623  18.464  0.2259  0.4388  0.3887
  808POPC   GL2 9688   6.525   9.743  18.262 -0.2243  0.0677  0.1035
  808POPC   C1A 9689   6.934   9.521  18.012 -0.1374 -0.1454 -0.2985
  808POPC   D2A 9690   7.015   9.665  17.632 -0.1546  0.3772  0.1730
  808POPC   C3A 9691   7.351   9.500  17.355  0.1253 -0.2851  0.1328
  808POPC   C4A 9692   7.650   9.614  17.078  0.0708  0.3438 -0.0041
  808POPC   C1B 9693   6.615   9.877  17.763  0.2472 -0.0433  0.1594
  808POPC   C2B 9694   6.582  10.037  17.296 -0.1304  0.3624 -0.0473
  808POPC   C3B 9695   6.873  10.304  17.065 -0.0030  0.1836 -0.0015
  808POPC   C4B 9696   7.070  10.744  16.968  0.1644  0.0295  0.1725
  809POPC   NC3 9697  12.946  10.330  19.378  0.1142  0.0817 -0.4821
  809POPC   PO4 9698  13.129  10.023  19.503 -0.3947 -0.0516 -0.3744
  809POPC   GL1 9699  13.157   9.925  19.160 -0.3169  0.0701  0.0647
  809POPC   GL2 9700  12.943  10.001  18.967 -0.0641 -0.1220  0.1244
  809POPC   C1A 9701  13.467  10.066  18.824 -0.1505 -0.0459 -0.3296
  809POPC   D2A 9702  13.512  10.127  18.359  0.3953  0.3157  0.1984
  809POPC   C3A 9703  13.651  10.319  17.970 -0.1117 -0.1635 -0.1734
  809POPC   C4A 9704  13.722  10.459  17.528 -0.2664  0.1761  0.0197
  809POPC   C1B 9705  13.067   9.956  18.505 -0.4656 -0.2160  0.1843
  809POPC   C2B 9706  13.042  10.053  18.057 -0.0740  0.0109 -0.1674
  809POPC   C3B 9707  13.029   9.927  17.627 -0.1326 -0.1122  0.0255
  809POPC   C4B 9708  13.007   9.683  17.257  0.1534  0.2458 -0.2822
  810POPC   NC3 9709  15.236  24.973  18.875  0.0148 -0.1155  0.0556
  810POPC   PO4 9710  15.117  25.336  18.841  0.1318  0.6574 -0.0651
  810POPC   GL1 9711  14.810  25.437  18.597  0.1352  0.1891  0.2166
  810POPC   GL2 9712  14.965  25.718  18.555  0.1313 -0.1476 -0.1083
  810POPC   C1A 9713  14.860  25.297  18.160  0.0720  0.1705 -0.0233
  810POPC   D2A 9714  15.103  25.232  17.836  0.2716  0.3903  0.0551
  810POPC   C3A 9715  15.103  25.199  17.397  0.3020 -0.1694  0.0402
  810POPC   C4A 9716  14.720  25.228  17.134  0.1147  0.0173 -0.0252
  810POPC   C1B 9717  15.089  25.794  18.129  0.0162  0.0025 -0.1228
  810POPC   C2B 9718  14.980  25.679  17.658 -0.5205  0.5165 -0.3051
  810POPC   C3B 9719  15.128  25.699  17.255  0.0746 -0.0484 -0.1233
  810POPC   C4B 9720  15.211  26.019  16.913  0.4115 -0.0763  0.1079
  811POPC   NC3 9721  13.856  11.206  20.092 -0.1813 -0.0501 -0.0290
  811POPC   PO4 9722  13.494  11.093  20.111 -0.2652  0.1190 -0.0985
  811POPC   GL1 9723  13.541  10.948  19.696 -0.3615  0.4138  0.0014
  811POPC   GL2 9724  13.824  10.999  19.603 -0.1270 -0.0294  0.2950
  811POPC   C1A 9725  13.437  11.007  19.264 -0.3054  0.2637 -0.1774
  811POPC   D2A 9726  13.393  10.930  18.846  0.2328 -0.0337 -0.3586
  811POPC   C3A 9727  13.396  11.055  18.435  0.1979 -0.2493 -0.0499
  811POPC   C4A 9728  13.690  10.808  18.197 -0.0773  0.1165 -0.3767
  811POPC   C1B 9729  13.810  11.410  19.266 -0.0728 -0.0596  0.0020
  811POPC   C2B 9730  13.501  11.375  18.925 -0.2743 -0.2189  0.3673
  811POPC   C3B 9731  13.078  11.290  18.737  0.1093 -0.0253 -0.0901
  811POPC   C4B 9732  12.698  11.538  18.653 -0.0837 -0.1022 -0.1059
  812POPC   NC3 9733   3.108  30.140  18.643  0.1529  0.3270  0.0375
  812POPC   PO4 9734   3.078  30.472  18.883  0.0339 -0.0339  0.0300
  812POPC   GL1 9735   3.083  30.594  18.544 -0.1634 -0.0105 -0.0204
  812POPC   GL2 9736   2.966  30.879  18.557 -0.1612  0.0960  0.1033
  812POPC   C1A 9737   3.054  30.341  18.154  0.0814  0.1001  0.0965
  812POPC   D2A 9738   2.952  30.244  17.746 -0.0017  0.1367  0.0023
  812POPC   C3A 9739   3.306  30.294  17.434  0.2946  0.0814 -0.2532
  812POPC   C4A 9740   3.182  30.213  16.985 -0.2185 -0.1336  0.1119
  812POPC   C1B 9741   2.888  30.789  18.074 -0.0318 -0.2519  0.1329
  812POPC   C2B 9742   2.543  30.591  17.902 -0.0924 -0.3391  0.0634
  812POPC   C3B 9743   2.163  30.285  17.797 -0.3966 -0.1234 -0.2290
  812POPC   C4B 9744   2.030  30.204  17.364  0.1505 -0.2209 -0.0728
  813POPC   NC3 9745  14.362  24.233  18.736  0.0478  0.0386  0.1855
  813POPC   PO4 9746  14.073  24.018  18.926 -0.0220  0.0396  0.1885
  813POPC   GL1 9747  13.698  24.023  18.865  0.4912 -0.0056 -0.1097
  813POPC   GL2 9748  13.616  23.767  18.965  0.1449  0.1983  0.2601
  813POPC   C1A 9749  13.552  24.076  18.436  0.2117  0.4220  0.0315
  813POPC   D2A 9750  13.643  23.983  18.010  0.2824 -0.1696  0.0826
  813POPC   C3A 9751  13.546  24.303  17.670  0.1645 -0.1918 -0.2654
  813POPC   C4A 9752  13.383  24.439  17.279  0.0471  0.0273 -0.0020
  813POPC   C1B 9753  13.365  23.588  18.665 -0.0180 -0.0155  0.3454
  813POPC   C2B 9754  13.146  23.494  18.263  0.1348  0.3354  0.1847
  813POPC   C3B 9755  13.220  23.415  17.854 -0.1711  0.2020  0.1401
  813POPC   C4B 9756  13.353  23.363  17.387  0.2220  0.1511 -0.0886
  814POPC   NC3 9757  31.143   6.464  19.200  0.2651  0.3154 -0.0919
  814POPC   PO4 9758  31.290   6.825  19.343  0.0284 -0.0282 -0.1807
  814POPC   GL1 9759  31.257   6.846  18.966 -0.0303  0.0543 -0.1762
  814POPC   GL2 9760  31.424   6.968  18.789 -0.1924 -0.3212  0.2144
  814POPC   C1A 9761  31.233   6.497  18.686  0.1023 -0.0165 -0.1466
  814POPC   D2A 9762  31.294   6.266  18.287 -0.1229 -0.4801 -0.3057
  814POPC   C3A 9763  30.981   6.512  18.022  0.1214  0.2216 -0.0512
  814POPC   C4A 9764  30.869   6.583  17.581 -0.2000  0.1963 -0.0915
  814POPC   C1B 9765  31.327   6.995  18.367 -0.1597  0.0139  0.0711
  814POPC   C2B 9766  31.447   6.804  17.924 -0.1678  0.1092  0.1030
  814POPC   C3B 9767  31.543   6.577  17.527 -0.0634  0.2295  0.0057
  814POPC   C4B 9768  31.745   6.590  17.126  0.0286  0.3000  0.0696
  815POPC   NC3 9769  27.546  26.093  19.308 -0.0716  0.1864  0.1907
  815POPC   PO4 9770  27.741  25.817  19.510 -0.0731 -0.0248  0.0219
  815POPC   GL1 9771  27.706  25.701  19.082  0.1905  0.1290 -0.3081
  815POPC   GL2 9772  27.972  25.598  19.121  0.4688 -0.0961 -0.2603
  815POPC   C1A 9773  27.678  26.038  18.786  0.1392 -0.0330  0.0779
  815POPC   D2A 9774  27.396  26.242  18.502 -0.2554 -0.1246 -0.0237
  815POPC   C3A 9775  27.329  26.239  18.059  0.1648  0.1557  0.1448
  815POPC   C4A 9776  27.459  26.137  17.659  0.0662  0.2125  0.2436
  815POPC   C1B 9777  28.076  25.800  18.745 -0.6085 -0.6424  0.2661
  815POPC   C2B 9778  27.979  25.766  18.285 -0.0009  0.1815  0.1197
  815POPC   C3B 9779  27.842  25.870  17.861 -0.1187  0.0566 -0.1110
  815POPC   C4B 9780  27.840  25.716  17.399 -0.0992  0.3224  0.0713
  816POPC   NC3 9781   2.265  14.443  19.703 -0.0150  0.0527 -0.2059
  816POPC   PO4 9782   1.884  14.356  19.588 -0.1058 -0.2969  0.2099
  816POPC   GL1 9783   2.100  14.278  19.212  0.2334 -0.0744  0.1731
  816POPC   GL2 9784   1.933  14.387  18.964  0.0709  0.0595  0.2407
  816POPC   C1A 9785   2.414  14.140  18.864 -0.2424  0.1758  0.3158
  816POPC   D2A 9786   2.425  14.040  18.423  0.2938  0.0941  0.0266
  816POPC   C3A 9787   2.444  13.601  18.294 -0.2674 -0.1907  0.1788
  816POPC   C4A 9788   2.175  13.259  18.268  0.1651  0.2910 -0.0006
  816POPC   C1B 9789   2.005  13.934  18.932 -0.2569  0.0531 -0.0177
  816POPC   C2B 9790   2.269  13.688  18.753  0.1259 -0.0838  0.1456
  816POPC   C3B 9791   2.594  13.489  18.942 -0.2131 -0.0642  0.0625
  816POPC   C4B 9792   2.772  13.342  19.259  0.0305 -0.3005 -0.2458
  817POPC   NC3 9793  31.590  18.019  19.728  0.4495  0.1139 -0.1203
  817POPC   PO4 9794  31.770  17.981  19.402  0.1261 -0.0692  0.2929
  817POPC   GL1 9795  31.777  18.153  19.079  0.1525 -0.0159 -0.0435
  817POPC   GL2 9796  31.927  17.964  18.905  0.0381  0.3744  0.0385
  817POPC   C1A 9797  31.408  18.370  18.877  0.0856 -0.1899 -0.1070
  817POPC   D2A 9798  31.153  18.090  18.620  0.1577  0.1950 -0.1125
  817POPC   C3A 9799  31.121  18.059  18.154  0.2949 -0.0725  0.1735
  817POPC   C4A 9800  30.975  17.912  17.761  0.1036 -0.0328  0.0915
  817POPC   C1B 9801  32.176  18.225  18.677  0.0104 -0.2267  0.1647
  817POPC   C2B 9802  32.377  18.385  18.284 -0.0027 -0.3799  0.1282
  817POPC   C3B 9803  32.318  18.551  17.846 -0.0658 -0.2004  0.0370
  817POPC   C4B 9804  32.501  18.635  17.397  0.4504 -0.0360  0.0492
  818POPC   NC3 9805  12.246  20.456  19.985 -0.0126  0.0792  0.0969
  818POPC   PO4 9806  12.241  20.432  19.612 -0.0221 -0.1576  0.1151
  818POPC   GL1 9807  12.261  20.617  19.196  0.0308  0.1257  0.2263
  818POPC   GL2 9808  12.527  20.555  19.235 -0.0067 -0.1001  0.2217
  818POPC   C1A 9809  11.973  20.537  18.789 -0.0492 -0.1641 -0.0555
  818POPC   D2A 9810  11.923  20.732  18.340  0.2884 -0.0405  0.1776
  818POPC   C3A 9811  12.006  20.437  17.977  0.0754 -0.0612 -0.0290
  818POPC   C4A 9812  12.119  20.165  17.652  0.0479  0.0900 -0.0077
  818POPC   C1B 9813  12.587  20.692  18.848  0.1446 -0.0066 -0.0625
  818POPC   C2B 9814  12.435  20.973  18.576  0.0508 -0.2288  0.0757
  818POPC   C3B 9815  12.115  21.196  18.283  0.1830  0.2720  0.0809
  818POPC   C4B 9816  11.759  21.485  18.476  0.0303 -0.0586  0.0562
  819POPC   NC3 9817  26.457  25.451  19.379 -0.0778  0.2019  0.0440
  819POPC   PO4 9818  26.518  25.056  19.361  0.3200 -0.0829  0.0397
  819POPC   GL1 9819  26.720  25.175  19.034  0.2629  0.4520  0.1212
  819POPC   GL2 9820  26.528  25.383  18.878  0.1343  0.0146 -0.0536
  819POPC   C1A 9821  26.946  24.890  18.642  0.1880 -0.3754 -0.2134
  819POPC   D2A 9822  26.948  24.586  18.237  0.0737 -0.3055 -0.1415
  819POPC   C3A 9823  26.804  24.859  17.880 -0.1166 -0.0765 -0.0711
  819POPC   C4A 9824  26.703  24.994  17.415 -0.3831 -0.1910  0.0819
  819POPC   C1B 9825  26.575  25.303  18.460 -0.0791  0.0933  0.2271
  819POPC   C2B 9826  26.600  25.598  18.091  0.0107 -0.0324 -0.0510
  819POPC   C3B 9827  26.288  25.885  17.925  0.2344  0.0324  0.1181
  819POPC   C4B 9828  25.882  25.999  18.157  0.0012 -0.0587  0.0014
  820POPC   NC3 9829  19.218  21.997  19.139  0.0433 -0.0278 -0.2259
  820POPC   PO4 9830  19.583  22.188  19.152  0.2596  0.0193 -0.2253
  820POPC   GL1 9831  19.627  22.165  18.739  0.0900 -0.0882 -0.1168
  820POPC   GL2 9832  19.399  22.043  18.680 -0.1898 -0.0795 -0.1073
  820POPC   C1A 9833  19.653  22.436  18.340  0.0654 -0.2445 -0.1664
  820POPC   D2A 9834  19.880  22.345  17.903  0.0036  0.2168 -0.0483
  820POPC   C3A 9835  19.979  22.736  17.738 -0.0928  0.1606  0.3406
  820POPC   C4A 9836  19.798  23.009  17.382 -0.0848  0.4201 -0.0803
  820POPC   C1B 9837  19.762  21.890  18.414 -0.2032 -0.4118 -0.0627
  820POPC   C2B 9838  20.019  21.925  18.035 -0.3031 -0.1435  0.1585
  820POPC   C3B 9839  20.160  21.923  17.576  0.1056  0.1924 -0.0460
  820POPC   C4B 9840  20.224  22.092  17.181  0.0992  0.0852 -0.1464
  821POPC   NC3 9841   3.938  24.373  19.532  0.0087 -0.0173 -0.1318
  821POPC   PO4 9842   4.303  24.369  19.682  0.1025 -0.1448  0.2300
  821POPC   GL1 9843   4.521  24.120  19.300  0.2429  0.2889  0.1490
  821POPC   GL2 9844   4.291  24.106  19.230  0.1605  0.2464 -0.2522
  821POPC   C1A 9845   4.731  24.006  18.897  0.3137  0.0729 -0.1546
  821POPC   D2A 9846   5.049  24.066  18.566 -0.1587  0.2237  0.0150
  821POPC   C3A 9847   4.780  24.194  18.243 -0.0813  0.1473 -0.1818
  821POPC   C4A 9848   4.385  23.999  18.155 -0.0415  0.0985 -0.1107
  821POPC   C1B 9849   4.234  24.394  18.927 -0.0784  0.1359 -0.1681
  821POPC   C2B 9850   4.064  24.819  18.709  0.2595 -0.0146  0.1238
  821POPC   C3B 9851   3.663  25.024  18.469 -0.4704 -0.0203 -0.1450
  821POPC   C4B 9852   3.566  25.368  18.168  0.0143  0.0388 -0.0962
  822POPC   NC3 9853  11.418  11.396  19.605  0.1438 -0.2847 -0.0941
  822POPC   PO4 9854  11.559  11.027  19.668 -0.0158 -0.0092 -0.0948
  822POPC   GL1 9855  11.605  11.049  19.276 -0.0357  0.3750  0.2269
  822POPC   GL2 9856  11.547  11.282  19.135  0.3720  0.0860  0.2374
  822POPC   C1A 9857  11.474  10.797  18.913 -0.0222 -0.0141 -0.0895
  822POPC   D2A 9858  11.421  10.673  18.522  0.1519 -0.2418  0.0702
  822POPC   C3A 9859  11.323  10.713  18.050  0.0410 -0.0759 -0.0874
  822POPC   C4A 9860  11.355  10.449  17.693  0.2668  0.1126 -0.0316
  822POPC   C1B 9861  11.848  11.086  18.817 -0.1593  0.0257 -0.0693
  822POPC   C2B 9862  11.898  10.862  18.454 -0.5452 -0.0191  0.1299
  822POPC   C3B 9863  11.794  10.660  18.078 -0.3847 -0.2246  0.4882
  822POPC   C4B 9864  11.863  10.652  17.615  0.0101 -0.0975  0.0776
  823POPC   NC3 9865   8.015  20.351  19.410 -0.0218 -0.1066  0.0720
  823POPC   PO4 9866   8.364  20.167  19.312 -0.1796  0.0115 -0.2197
  823POPC   GL1 9867   8.485  20.095  18.844  0.7136  0.3702  0.1002
  823POPC   GL2 9868   8.710  20.280  18.901 -0.0895 -0.2425  0.0427
  823POPC   C1A 9869   8.419  20.439  18.521  0.2447 -0.1803 -0.2580
  823POPC   D2A 9870   8.638  20.700  18.270 -0.2705  0.3742 -0.2263
  823POPC   C3A 9871   9.082  20.874  18.502 -0.0379  0.3176 -0.1985
  823POPC   C4A 9872   9.395  20.695  18.831  0.2105 -0.0761  0.1072
  823POPC   C1B 9873   9.077  20.363  18.671  0.0155  0.1861  0.1380
  823POPC   C2B 9874   9.142  20.423  18.256 -0.0395 -0.2442  0.5168
  823POPC   C3B 9875   9.167  20.212  17.868  0.1152 -0.2374  0.0114
  823POPC   C4B 9876   9.206  19.895  17.589  0.1308  0.2133 -0.0624
  824POPC   NC3 9877  18.652  24.024  19.338  0.0380 -0.1858  0.4163
  824POPC   PO4 9878  18.469  24.259  19.620  0.1814  0.2729 -0.0837
  824POPC   GL1 9879  18.240  24.252  19.246 -0.5095  0.3230  0.1756
  824POPC   GL2 9880  18.019  24.506  19.153 -0.1082  0.1144 -0.1111
  824POPC   C1A 9881  18.520  24.458  18.900  0.0492 -0.0284 -0.1754
  824POPC   D2A 9882  18.542  24.539  18.441  0.0379 -0.0578  0.1225
  824POPC   C3A 9883  18.537  24.884  18.110  0.2012  0.1706 -0.1488
  824POPC   C4A 9884  18.720  25.137  17.769 -0.0449 -0.1087 -0.1879
  824POPC   C1B 9885  18.112  24.260  18.724  0.0852 -0.0104  0.0092
  824POPC   C2B 9886  18.275  24.115  18.377  0.1478  0.1273  0.0471
  824POPC   C3B 9887  18.304  24.169  17.929 -0.2921 -0.1084 -0.1509
  824POPC   C4B 9888  18.628  24.116  17.556 -0.1625  0.4337 -0.0676
  825POPC   NC3 9889  14.752  24.032  19.068 -0.2990 -0.0672 -0.2768
  825POPC   PO4 9890  15.087  24.218  19.124 -0.0049 -0.1204  0.0424
  825POPC   GL1 9891  15.081  24.076  18.686 -0.0820  0.2656  0.2311
  825POPC   GL2 9892  14.826  24.133  18.577  0.2316  0.2132  0.1993
  825POPC   C1A 9893  15.381  23.875  18.346  0.1274 -0.1335 -0.0072
  825POPC   D2A 9894  15.249  23.813  17.912 -0.0019  0.1698  0.0132
  825POPC   C3A 9895  15.441  23.962  17.532  0.4724  0.1033 -0.1497
  825POPC   C4A 9896  15.532  23.962  17.103 -0.1447 -0.0214  0.2577
  825POPC   C1B 9897  14.534  24.245  18.232 -0.0628 -0.2351  0.0715
  825POPC   C2B 9898  14.519  24.205  17.798 -0.4941  0.0256 -0.0701
  825POPC   C3B 9899  14.339  24.155  17.415 -0.2348  0.0918 -0.1232
  825POPC   C4B 9900  13.927  24.308  17.311  0.0540  0.2296  0.0586
  826POPC   NC3 9901   7.679  18.544  19.136  0.0322 -0.1391  0.0799
  826POPC   PO4 9902   7.920  18.388  18.837 -0.0331  0.0070 -0.4307
  826POPC   GL1 9903   8.083  18.373  18.502  0.0890  0.3453 -0.2129
  826POPC   GL2 9904   8.439  18.265  18.630  0.1938 -0.0099  0.1060
  826POPC   C1A 9905   7.859  18.615  18.185  0.2172  0.3676 -0.0153
  826POPC   D2A 9906   7.681  18.769  17.745  0.1661 -0.0347 -0.0825
  826POPC   C3A 9907   7.354  18.470  17.558 -0.0492  0.1787  0.4330
  826POPC   C4A 9908   6.926  18.321  17.465  0.2261  0.1485 -0.2733
  826POPC   C1B 9909   8.477  18.207  18.185  0.1859  0.2321  0.2474
  826POPC   C2B 9910   8.625  18.110  17.712 -0.1412  0.1468  0.0867
  826POPC   C3B 9911   8.773  18.263  17.287 -0.3210 -0.0567  0.0807
  826POPC   C4B 9912   9.094  18.557  17.113  0.2482 -0.2880 -0.2169
  827POPC   NC3 9913  13.338   5.265  19.807 -0.1151  0.4145 -0.1151
  827POPC   PO4 9914  13.523   4.951  19.881 -0.1300  0.3766 -0.3675
  827POPC   GL1 9915  13.630   5.054  19.525 -0.1266  0.1490 -0.1411
  827POPC   GL2 9916  13.897   5.182  19.339  0.3987 -0.0782  0.0197
  827POPC   C1A 9917  13.575   4.853  19.115 -0.2080  0.1534  0.0447
  827POPC   D2A 9918  13.692   4.767  18.657  0.0148  0.2119  0.2805
  827POPC   C3A 9919  13.386   4.794  18.249  0.2678 -0.1107 -0.1412
  827POPC   C4A 9920  13.315   4.745  17.751 -0.1869  0.1529  0.1934
  827POPC   C1B 9921  14.085   4.784  19.115 -0.0749  0.2428  0.0654
  827POPC   C2B 9922  14.140   4.492  18.736 -0.1392  0.0766 -0.0444
  827POPC   C3B 9923  14.148   4.269  18.316 -0.2215  0.0622  0.2224
  827POPC   C4B 9924  14.168   4.184  17.884  0.0346  0.1151  0.1924
  828POPC   NC3 9925  25.688  26.398  19.427 -0.1237 -0.0292  0.1367
  828POPC   PO4 9926  25.743  26.807  19.421 -0.2995  0.0203 -0.0693
  828POPC   GL1 9927  25.808  26.677  19.056 -0.1767  0.0152  0.3133
  828POPC   GL2 9928  25.530  26.659  18.944  0.2411 -0.2194 -0.0991
  828POPC   C1A 9929  26.130  26.609  18.722  0.3998 -0.0123 -0.2185
  828POPC   D2A 9930  26.577  26.671  18.447 -0.2555 -0.0743  0.0764
  828POPC   C3A 9931  26.496  26.649  18.015 -0.1727  0.0017  0.1475
  828POPC   C4A 9932  26.447  26.658  17.587 -0.0548  0.2382  0.0219
  828POPC   C1B 9933  25.347  26.751  18.507  0.0125 -0.2551 -0.4768
  828POPC   C2B 9934  25.284  26.681  18.053 -0.0199  0.0920 -0.1880
  828POPC   C3B 9935  25.187  26.813  17.616 -0.1571 -0.0433 -0.1501
  828POPC   C4B 9936  24.981  26.564  17.282 -0.1824  0.1097  0.1654
  829POPC   NC3 9937  19.546   4.349  19.671  0.3045 -0.2567 -0.1618
  829POPC   PO4 9938  19.401   4.028  19.679 -0.1571  0.3789  0.1322
  829POPC   GL1 9939  19.525   3.834  19.406 -0.0761  0.2005 -0.0542
  829POPC   GL2 9940  19.598   3.552  19.541 -0.2601  0.2496 -0.2804
  829POPC   C1A 9941  19.453   3.798  18.932 -0.1563  0.0477 -0.0690
  829POPC   D2A 9942  19.533   3.676  18.486  0.1274 -0.2148  0.3111
  829POPC   C3A 9943  19.453   3.921  18.061 -0.0021 -0.1648  0.1086
  829POPC   C4A 9944  19.396   3.873  17.612  0.3288 -0.1107  0.2054
  829POPC   C1B 9945  19.271   3.444  19.232  0.2625 -0.0887  0.0882
  829POPC   C2B 9946  19.255   3.329  18.783 -0.3144  0.1226 -0.1806
  829POPC   C3B 9947  19.420   3.004  18.560 -0.0534  0.0989 -0.2119
  829POPC   C4B 9948  19.639   2.578  18.401 -0.1257  0.0322 -0.0344
  830POPC   NC3 9949  27.570   6.133  19.298 -0.0882  0.0754  0.0952
  830POPC   PO4 9950  27.398   6.357  19.026  0.1414 -0.0715  0.0994
  830POPC   GL1 9951  27.321   6.228  18.714 -0.0266  0.0900 -0.0456
  830POPC   GL2 9952  27.023   6.205  18.688  0.1405  0.3351  0.0693
  830POPC   C1A 9953  27.288   6.402  18.284 -0.3592 -0.1583 -0.3250
  830POPC   D2A 9954  27.192   6.606  17.891  0.3475 -0.0400  0.0160
  830POPC   C3A 9955  27.560   6.617  17.545 -0.1878  0.0152  0.0295
  830POPC   C4A 9956  27.666   6.972  17.251  0.2717 -0.0144 -0.1501
  830POPC   C1B 9957  26.822   6.184  18.250  0.1142  0.1776 -0.3632
  830POPC   C2B 9958  26.847   6.223  17.769 -0.0625 -0.1144 -0.1714
  830POPC   C3B 9959  27.196   6.234  17.387  0.0416  0.1172  0.1799
  830POPC   C4B 9960  27.338   6.301  16.975 -0.0735 -0.1704  0.1899
  831POPC   NC3 9961  30.494  31.289  19.576 -0.1116  0.4189  0.0125
  831POPC   PO4 9962  30.499  31.582  19.304  0.0309 -0.1399  0.1270
  831POPC   GL1 9963  30.535  31.465  18.954 -0.1131 -0.0647  0.4761
  831POPC   GL2 9964  30.777  31.573  18.833  0.2045  0.2822 -0.2922
  831POPC   C1A 9965  30.257  31.356  18.607  0.0859  0.1798  0.2045
  831POPC   D2A 9966  29.976  31.431  18.244  0.0043  0.0254 -0.0679
  831POPC   C3A 9967  30.258  31.323  17.952 -0.1276  0.0390  0.0462
  831POPC   C4A 9968  30.438  31.391  17.529 -0.2688 -0.1244  0.0238
  831POPC   C1B 9969  30.942  31.911  18.643  0.0395  0.0398  0.0594
  831POPC   C2B 9970  30.962  32.122  18.203 -0.1731  0.0270 -0.0732
  831POPC   C3B 9971  30.951  32.142  17.734 -0.3244 -0.0122 -0.1527
  831POPC   C4B 9972  30.854  32.173  17.319  0.1918  0.0485  0.2678
  832POPC   NC3 9973  16.313  27.161  19.314 -0.1093 -0.0155  0.0655
  832POPC   PO4 9974  16.253  27.401  19.574 -0.0504 -0.2024  0.1420
  832POPC   GL1 9975  16.085  27.549  19.210  0.2110  0.3079 -0.0029
  832POPC   GL2 9976  15.923  27.763  19.358 -0.0895  0.0798  0.2227
  832POPC   C1A 9977  16.177  27.502  18.754  0.2191 -0.0778 -0.0782
  832POPC   D2A 9978  16.434  27.485  18.405  0.0491 -0.2650 -0.1386
  832POPC   C3A 9979  16.408  27.803  18.068  0.0072 -0.1937 -0.2997
  832POPC   C4A 9980  16.233  27.810  17.709 -0.0634 -0.3346 -0.0490
  832POPC   C1B 9981  15.741  27.688  18.941 -0.0463  0.0987  0.3896
  832POPC   C2B 9982  15.642  27.403  18.607  0.1117  0.3638 -0.0574
  832POPC   C3B 9983  15.656  27.327  18.147 -0.1286  0.0282 -0.0219
  832POPC   C4B 9984  15.592  27.740  17.951 -0.2180  0.1053 -0.1715
  833POPC   NC3 9985  23.864   1.835  19.103  0.3182  0.4385  0.0400
  833POPC   PO4 9986  24.235   1.878  19.120 -0.0731  0.1743  0.3050
  833POPC   GL1 9987  24.150   1.811  18.727 -0.0590  0.0490  0.0284
  833POPC   GL2 9988  24.391   1.990  18.624 -0.2979  0.2981 -0.1013
  833POPC   C1A 9989  24.019   1.770  18.322 -0.1712 -0.1342  0.1900
  833POPC   D2A 9990  24.003   1.663  17.843 -0.0480 -0.0173 -0.2200
  833POPC   C3A 9991  23.874   1.889  17.470  0.0678 -0.3050  0.0884
  833POPC   C4A 9992  23.445   1.998  17.412 -0.1075 -0.0518 -0.2280
  833POPC   C1B 9993  24.313   2.176  18.216  0.0333  0.1976  0.0215
  833POPC   C2B 9994  24.384   1.962  17.840  0.3353 -0.1110  0.1712
  833POPC   C3B 9995  24.391   2.069  17.362  0.0154  0.1154 -0.1575
  833POPC   C4B 9996  24.254   2.185  17.002  0.1071 -0.1818 -0.0406
  834POPC   NC3 9997   9.338   7.777  19.956  0.0733  0.1763  0.1227
  834POPC   PO4 9998   8.992   7.971  19.841  0.3860 -0.2880  0.0573
  834POPC   GL1 9999   9.143   7.874  19.426 -0.0677 -0.0820  0.1032
  834POPC   GL210000   9.038   8.129  19.295 -0.0772 -0.2764 -0.1196
  834POPC   C1A10001   9.524   7.774  19.227 -0.0678 -0.1514  0.0753
  834POPC   D2A10002   9.867   7.720  18.939 -0.0103 -0.0062  0.2063
  834POPC   C3A10003  10.266   7.692  18.746 -0.0016 -0.0428  0.2550
  834POPC   C4A10004  10.449   7.737  18.384 -0.0270 -0.2173  0.1480
  834POPC   C1B10005   9.341   8.363  19.024  0.2962 -0.2642  0.2673
  834POPC   C2B10006   9.667   8.477  18.697  0.1439  0.1226 -0.3122
  834POPC   C3B10007   9.855   8.495  18.317  0.3040 -0.0766  0.4720
  834POPC   C4B10008   9.850   8.397  17.910  0.0026 -0.1883 -0.0242
  835POPC   NC310009  26.782  18.022  19.147  0.2622  0.0409  0.2436
  835POPC   PO410010  26.437  17.850  19.104  0.0340  0.0155  0.0012
  835POPC   GL110011  26.338  17.792  18.651 -0.1000  0.2460 -0.0123
  835POPC   GL210012  26.068  17.950  18.651 -0.0310 -0.3376 -0.1616
  835POPC   C1A10013  26.308  17.917  18.234  0.0231  0.0031  0.2198
  835POPC   D2A10014  26.478  17.796  17.838  0.3432 -0.0030 -0.0422
  835POPC   C3A10015  26.285  17.597  17.518 -0.5071 -0.2763 -0.1468
  835POPC   C4A10016  26.278  17.419  17.079  0.2386 -0.1140  0.0475
  835POPC   C1B10017  25.816  18.070  18.308 -0.0506  0.1648  0.2526
  835POPC   C2B10018  25.507  18.156  18.020  0.0141 -0.0030  0.0540
  835POPC   C3B10019  25.410  17.952  17.623 -0.1157  0.2121  0.1405
  835POPC   C4B10020  25.060  18.042  17.339  0.2040 -0.1629  0.1449
  836POPC   NC310021   9.111  19.099  19.153 -0.0718 -0.0769  0.1951
  836POPC   PO410022   8.859  19.273  18.853  0.0088 -0.0612  0.0114
  836POPC   GL110023   8.698  18.995  18.579  0.2041  0.2838  0.4146
  836POPC   GL210024   8.543  19.171  18.423  0.1343  0.3198 -0.0422
  836POPC   C1A10025   9.055  18.948  18.239 -0.0655  0.1448 -0.1544
  836POPC   D2A10026   9.514  19.116  18.160  0.0134 -0.1772  0.1432
  836POPC   C3A10027   9.650  19.270  17.734 -0.0438 -0.1009 -0.2150
  836POPC   C4A10028   9.471  19.465  17.308  0.0381  0.2830  0.1182
  836POPC   C1B10029   8.632  19.057  17.980  0.1026 -0.2012  0.1845
  836POPC   C2B10030   8.673  19.210  17.599 -0.1850  0.0303  0.3240
  836POPC   C3B10031   8.888  19.552  17.357  0.0744 -0.3527  0.0614
  836POPC   C4B10032   9.188  19.840  17.114  0.2471  0.1315 -0.3490
  837POPC   NC310033  21.173  18.084  19.550 -0.0554 -0.0191 -0.3135
  837POPC   PO410034  20.919  17.939  19.289 -0.1575  0.2132 -0.0715
  837POPC   GL110035  21.116  18.210  18.925  0.2496  0.0409 -0.2220
  837POPC   GL210036  20.934  18.375  18.780 -0.0307 -0.1668 -0.1588
  837POPC   C1A10037  21.535  18.180  18.633 -0.2521 -0.0098  0.1701
  837POPC   D2A10038  21.703  18.370  18.214 -0.5508 -0.0448 -0.4380
  837POPC   C3A10039  22.184  18.529  18.141 -0.1008 -0.0134  0.1418
  837POPC   C4A10040  22.446  18.836  17.932 -0.1038 -0.3224 -0.2553
  837POPC   C1B10041  20.728  18.239  18.367  0.3899 -0.1853 -0.3259
  837POPC   C2B10042  20.848  18.044  17.955 -0.0860  0.1216 -0.0090
  837POPC   C3B10043  20.903  17.922  17.530 -0.0346  0.1270 -0.0701
  837POPC   C4B10044  20.759  17.502  17.373 -0.2158 -0.1986  0.1975
  838POPC   NC310045   0.636  13.415  19.725 -0.0768  0.0233 -0.0466
  838POPC   PO410046   0.233  13.416  19.745  0.2667 -0.1443  0.1994
  838POPC   GL110047   0.168  13.530  19.339  0.0102 -0.1133 -0.2047
  838POPC   GL210048   0.267  13.334  19.170  0.0611 -0.3655  0.0895
  838POPC   C1A10049   0.367  13.883  19.126 -0.0353  0.0083  0.1476
  838POPC   D2A10050   0.166  14.198  18.925 -0.2103  0.2016 -0.3530
  838POPC   C3A10051   0.244  14.231  18.480  0.0110  0.0227 -0.0084
  838POPC   C4A10052   0.227  14.411  18.018 -0.1079  0.0668  0.0314
  838POPC   C1B10053   0.171  13.563  18.783  0.2138 -0.0633 -0.0306
  838POPC   C2B10054   0.351  13.705  18.376  0.2219 -0.0178 -0.2737
  838POPC   C3B10055   0.707  13.839  18.129  0.0248  0.1890  0.2078
  838POPC   C4B10056   1.117  13.735  17.911 -0.3631  0.2029  0.0245
  839POPC   NC310057  25.416  30.392  19.221  0.1128  0.2069  0.2971
  839POPC   PO410058  25.548  30.039  19.369  0.0502 -0.1883 -0.1417
  839POPC   GL110059  25.522  29.917  18.993 -0.0420  0.2202  0.1649
  839POPC   GL210060  25.588  30.139  18.813 -0.0932  0.4047  0.1076
  839POPC   C1A10061  25.283  29.637  18.666 -0.0443 -0.4321 -0.1016
  839POPC   D2A10062  24.926  29.344  18.504  0.2794  0.0605  0.2757
  839POPC   C3A10063  24.696  28.954  18.367 -0.4694  0.0152 -0.2589
  839POPC   C4A10064  24.375  28.629  18.377 -0.1362 -0.1792 -0.0643
  839POPC   C1B10065  25.846  30.026  18.409 -0.1733  0.0110  0.1363
  839POPC   C2B10066  25.572  29.932  18.031  0.0161  0.0285 -0.0045
  839POPC   C3B10067  25.729  29.584  17.745  0.0422  0.2592 -0.1243
  839POPC   C4B10068  25.621  29.343  17.378 -0.4257  0.1596 -0.1933
  840POPC   NC310069  29.701  17.422  19.273  0.0300 -0.0316 -0.1532
  840POPC   PO410070  29.395  17.145  19.321 -0.0441  0.1686 -0.1029
  840POPC   GL110071  29.461  17.239  18.895 -0.4288  0.0767 -0.2617
  840POPC   GL210072  29.337  17.524  18.881 -0.2862  0.0810 -0.1555
  840POPC   C1A10073  29.143  17.097  18.601 -0.0592 -0.0175 -0.5436
  840POPC   D2A10074  28.944  17.001  18.241  0.2880  0.4142  0.0743
  840POPC   C3A10075  28.739  16.942  17.796 -0.2332 -0.2768 -0.0317
  840POPC   C4A10076  28.440  17.151  17.519 -0.0144 -0.4136  0.0945
  840POPC   C1B10077  29.413  17.447  18.400  0.0976  0.1375  0.0854
  840POPC   C2B10078  29.586  17.238  17.968 -0.2406 -0.2457  0.0129
  840POPC   C3B10079  29.586  17.096  17.540 -0.1332  0.1947 -0.0563
  840POPC   C4B10080  29.615  16.773  17.250  0.1845 -0.0724  0.0938
  841POPC   NC310081  30.603  29.520  19.124  0.3007 -0.0213  0.0213
  841POPC   PO410082  30.949  29.740  19.080 -0.1171  0.0672  0.0889
  841POPC   GL110083  30.941  29.705  18.713  0.0324 -0.3316  0.1744
  841POPC   GL210084  31.062  29.413  18.631 -0.0018 -0.0572 -0.0540
  841POPC   C1A10085  31.310  29.850  18.433 -0.0900  0.1873  0.0341
  841POPC   D2A10086  31.595  30.167  18.243 -0.0167  0.0178  0.0247
  841POPC   C3A10087  31.711  30.385  17.862 -0.1891 -0.2939  0.2620
  841POPC   C4A10088  31.549  30.479  17.368 -0.1542  0.0206 -0.1602
  841POPC   C1B10089  30.940  29.286  18.201 -0.0429  0.0178 -0.4038
  841POPC   C2B10090  30.973  29.318  17.748 -0.1932  0.1365  0.1301
  841POPC   C3B10091  31.020  29.217  17.297 -0.1377  0.1300  0.0711
  841POPC   C4B10092  30.934  28.991  16.885  0.3034 -0.0080  0.1233
  842POPC   NC310093  17.376  28.222  19.533  0.2594 -0.0336 -0.1608
  842POPC   PO410094  17.407  27.845  19.528  0.1172 -0.0910  0.1298
  842POPC   GL110095  17.294  27.848  19.150 -0.1292  0.0035  0.1337
  842POPC   GL210096  17.071  27.655  18.989  0.3552  0.2342 -0.1536
  842POPC   C1A10097  17.405  27.860  18.711  0.1799  0.0918  0.1297
  842POPC   D2A10098  17.215  27.887  18.291 -0.2460 -0.0587  0.0576
  842POPC   C3A10099  16.869  27.654  18.107  0.0173 -0.0027  0.1965
  842POPC   C4A10100  16.557  27.449  17.801  0.0418  0.0678 -0.2534
  842POPC   C1B10101  16.980  27.503  18.547  0.1919 -0.1118 -0.0749
  842POPC   C2B10102  16.843  27.200  18.206 -0.0026  0.2900  0.1035
  842POPC   C3B10103  16.906  26.947  17.858 -0.1018  0.0809  0.3861
  842POPC   C4B10104  17.013  27.017  17.419 -0.1332 -0.2742  0.4538
  843POPC   NC310105   5.911   9.603  19.370 -0.3240  0.0837  0.1087
  843POPC   PO410106   5.822   9.368  19.052  0.1440 -0.0559 -0.0286
  843POPC   GL110107   5.773   9.270  18.732  0.1320  0.0627  0.1780
  843POPC   GL210108   5.840   9.438  18.487 -0.0094  0.0226 -0.0481
  843POPC   C1A10109   5.685   9.011  18.375 -0.2809 -0.0553  0.0673
  843POPC   D2A10110   5.525   8.767  18.027  0.1259  0.1208 -0.0030
  843POPC   C3A10111   5.847   8.584  17.760  0.2182  0.2476 -0.6136
  843POPC   C4A10112   6.321   8.489  17.828 -0.4342  0.2748 -0.0061
  843POPC   C1B10113   5.856   9.475  18.038 -0.2548  0.0291  0.1174
  843POPC   C2B10114   5.953   9.385  17.571 -0.1926 -0.1404 -0.0190
  843POPC   C3B10115   5.791   9.398  17.176 -0.0665  0.1359  0.1337
  843POPC   C4B10116   5.885   9.065  16.886  0.1643 -0.0088 -0.0572
  844POPC   NC310117   9.182  18.294  19.387 -0.0069  0.1206 -0.0051
  844POPC   PO410118   9.324  18.656  19.336  0.0918 -0.0183 -0.0178
  844POPC   GL110119   9.450  18.684  18.995 -0.4523  0.0570  0.2529
  844POPC   GL210120   9.437  18.400  18.938  0.1867  0.1720  0.3716
  844POPC   C1A10121   9.486  19.009  18.667  0.0812  0.1798  0.1469
  844POPC   D2A10122   9.311  19.399  18.483 -0.4093  0.1930  0.1611
  844POPC   C3A10123   8.893  19.526  18.246 -0.0540  0.3692 -0.3063
  844POPC   C4A10124   8.817  19.782  17.866 -0.3441 -0.0314 -0.0253
  844POPC   C1B10125   9.357  18.501  18.473  0.0571  0.2069 -0.1824
  844POPC   C2B10126   9.355  18.543  18.016 -0.0524 -0.0584 -0.0152
  844POPC   C3B10127   9.319  18.871  17.635 -0.1751  0.0911 -0.0547
  844POPC   C4B10128   9.370  18.967  17.212  0.0826  0.2121 -0.0404
  845POPC   NC310129   4.433   7.409  19.028 -0.0391 -0.1635 -0.0120
  845POPC   PO410130   4.564   7.712  19.225  0.0933 -0.0163 -0.1123
  845POPC   GL110131   4.862   7.841  19.058 -0.2860  0.1757  0.4557
  845POPC   GL210132   5.102   7.718  19.083 -0.1971  0.2645 -0.0980
  845POPC   C1A10133   4.963   7.859  18.611  0.3851 -0.0268  0.1888
  845POPC   D2A10134   5.007   7.897  18.155 -0.0982 -0.1045 -0.1874
  845POPC   C3A10135   5.433   7.825  17.888 -0.0507  0.2130  0.0391
  845POPC   C4A10136   5.638   7.721  17.488  0.1541  0.1749  0.1540
  845POPC   C1B10137   5.329   7.511  18.733  0.1254 -0.0650 -0.5620
  845POPC   C2B10138   5.433   7.485  18.244 -0.3267 -0.0168  0.0550
  845POPC   C3B10139   5.336   7.364  17.826  0.1522  0.0631  0.0094
  845POPC   C4B10140   5.160   7.676  17.481 -0.2573 -0.0514 -0.0872
  846POPC   NC310141  10.432  21.538  19.242  0.4175 -0.0655 -0.2690
  846POPC   PO410142  10.649  21.814  19.423  0.4746  0.1219  0.1221
  846POPC   GL110143  10.446  21.964  19.134 -0.0497 -0.0999  0.1830
  846POPC   GL210144  10.254  22.242  19.251 -0.1201  0.0651 -0.2944
  846POPC   C1A10145  10.547  21.717  18.719 -0.0092 -0.1304 -0.1237
  846POPC   D2A10146  10.518  21.709  18.250  0.0968 -0.0436 -0.1417
  846POPC   C3A10147  10.626  21.994  17.961  0.5479  0.0883  0.1693
  846POPC   C4A10148  10.742  22.393  17.778 -0.0822 -0.1932 -0.3229
  846POPC   C1B10149  10.070  22.181  18.782  0.1232 -0.2421  0.0574
  846POPC   C2B10150   9.674  22.199  18.570  0.1450  0.1346  0.3175
  846POPC   C3B10151   9.408  22.452  18.226 -0.1637 -0.1815 -0.0110
  846POPC   C4B10152   9.069  22.461  17.867 -0.3075 -0.0039 -0.0183
  847POPC   NC310153  14.549  17.366  18.938 -0.2084  0.2836 -0.0127
  847POPC   PO410154  14.679  17.156  19.220  0.0419  0.2348  0.0713
  847POPC   GL110155  14.891  16.949  18.940 -0.0514 -0.2202  0.1661
  847POPC   GL210156  15.126  17.143  18.856  0.0615  0.1034  0.1876
  847POPC   C1A10157  14.793  16.891  18.477 -0.0868  0.0049 -0.1041
  847POPC   D2A10158  15.195  16.894  18.270  0.1557  0.1330 -0.1725
  847POPC   C3A10159  15.389  16.875  17.851 -0.5144 -0.0845  0.0485
  847POPC   C4A10160  15.578  17.128  17.514  0.1764  0.0290 -0.2308
  847POPC   C1B10161  15.504  16.963  18.717 -0.3867  0.0755 -0.0569
  847POPC   C2B10162  15.754  17.004  18.291 -0.0523 -0.0076  0.1464
  847POPC   C3B10163  15.959  16.971  17.880  0.0432 -0.0321  0.0374
  847POPC   C4B10164  16.014  16.738  17.437 -0.0454  0.0226  0.1348
  848POPC   NC310165  10.411  15.896  19.182  0.1805 -0.1474  0.2561
  848POPC   PO410166  10.386  15.548  19.351 -0.0176 -0.1103 -0.0105
  848POPC   GL110167  10.241  15.512  19.006 -0.2076  0.4258 -0.2441
  848POPC   GL210168  10.472  15.531  18.816  0.0613 -0.1998  0.0098
  848POPC   C1A10169   9.985  15.393  18.647  0.0160  0.1864 -0.2569
  848POPC   D2A10170   9.795  15.336  18.243 -0.1670 -0.0855  0.1936
  848POPC   C3A10171   9.730  15.074  17.933  0.0188  0.0640  0.0227
  848POPC   C4A10172   9.831  14.906  17.569 -0.1807 -0.1124  0.2259
  848POPC   C1B10173  10.377  15.457  18.401 -0.2833 -0.1759  0.0409
  848POPC   C2B10174  10.181  15.482  17.955  0.3230  0.0456 -0.2364
  848POPC   C3B10175  10.118  15.631  17.531 -0.2667 -0.2358 -0.0699
  848POPC   C4B10176  10.321  15.674  17.093  0.0019  0.2573 -0.0769
  849POPC   NC310177  31.276  25.412  18.826 -0.0393 -0.0961 -0.1071
  849POPC   PO410178  31.501  25.211  19.122  0.2017  0.0041 -0.0664
  849POPC   GL110179  31.654  25.123  18.717 -0.0103 -0.0665  0.0848
  849POPC   GL210180  31.390  24.922  18.710 -0.0331  0.1242  0.1917
  849POPC   C1A10181  31.724  25.288  18.278  0.4497  0.3188  0.0671
  849POPC   D2A10182  31.938  25.583  17.965 -0.0210  0.1441 -0.0906
  849POPC   C3A10183  31.750  26.000  18.091  0.0499 -0.0238  0.2479
  849POPC   C4A10184  31.356  26.209  17.942 -0.1130  0.1784  0.0585
  849POPC   C1B10185  31.474  24.761  18.297 -0.1345  0.1790 -0.1093
  849POPC   C2B10186  31.507  24.684  17.804  0.0333  0.0294 -0.1333
  849POPC   C3B10187  31.388  24.785  17.365  0.0546 -0.1125 -0.1927
  849POPC   C4B10188  31.560  24.622  16.950 -0.0855  0.3364  0.1991
  850POPC   NC310189   8.674   2.145  19.795 -0.0322 -0.0926 -0.2290
  850POPC   PO410190   8.563   2.400  19.523  0.0511  0.0116 -0.0958
  850POPC   GL110191   8.525   2.221  19.102 -0.2077 -0.3022  0.2846
  850POPC   GL210192   8.450   1.970  19.232 -0.1452 -0.0106  0.1036
  850POPC   C1A10193   8.528   2.405  18.695 -0.0740  0.0226 -0.0341
  850POPC   D2A10194   8.534   2.192  18.244  0.2493  0.1382  0.0690
  850POPC   C3A10195   8.285   2.236  17.915  0.0008 -0.0030  0.1771
  850POPC   C4A10196   8.114   2.578  17.742  0.2420 -0.1818  0.1576
  850POPC   C1B10197   8.578   1.888  18.815  0.0270  0.1516  0.0577
  850POPC   C2B10198   8.566   1.678  18.399  0.0860 -0.1838  0.1176
  850POPC   C3B10199   8.699   1.413  17.970  0.1011  0.0882  0.1192
  850POPC   C4B10200   8.873   1.116  17.746 -0.0801 -0.0531 -0.0292
  851POPC   NC310201  18.311  22.585  19.113 -0.1489  0.1707  0.2060
  851POPC   PO410202  18.413  22.959  19.060 -0.2617 -0.1030 -0.2005
  851POPC   GL110203  18.526  22.891  18.710  0.0712 -0.0853 -0.2190
  851POPC   GL210204  18.728  23.111  18.601  0.3440  0.1408  0.0949
  851POPC   C1A10205  18.484  22.755  18.267  0.1037  0.0242  0.0380
  851POPC   D2A10206  18.257  22.703  17.838 -0.1803 -0.1931  0.2548
  851POPC   C3A10207  17.956  22.874  17.501 -0.0419  0.0279  0.0301
  851POPC   C4A10208  17.803  23.344  17.409 -0.4133  0.2279 -0.0685
  851POPC   C1B10209  18.997  23.346  18.312  0.1785 -0.1177 -0.1036
  851POPC   C2B10210  19.099  23.615  17.973 -0.2394 -0.2922 -0.1066
  851POPC   C3B10211  19.182  24.056  17.839 -0.0898  0.2102  0.1837
  851POPC   C4B10212  19.146  24.407  17.586  0.0862  0.0834  0.0222
  852POPC   NC310213  23.137   6.769  19.119 -0.2991 -0.0907 -0.1429
  852POPC   PO410214  23.263   6.387  19.213 -0.1326 -0.1757  0.0741
  852POPC   GL110215  23.222   6.322  18.860 -0.1079  0.0210 -0.1845
  852POPC   GL210216  23.448   6.201  18.686  0.2694 -0.3245  0.3705
  852POPC   C1A10217  22.998   6.579  18.609 -0.3218  0.0106  0.0086
  852POPC   D2A10218  22.826   6.774  18.211 -0.0813 -0.0302 -0.0223
  852POPC   C3A10219  22.772   6.657  17.809 -0.0603  0.1180  0.3348
  852POPC   C4A10220  22.850   6.529  17.367  0.0278 -0.1362 -0.2436
  852POPC   C1B10221  23.615   6.255  18.242 -0.1601 -0.1359 -0.2036
  852POPC   C2B10222  23.523   5.972  17.937 -0.0130 -0.1755  0.0962
  852POPC   C3B10223  23.428   6.001  17.500 -0.4004 -0.0413 -0.2077
  852POPC   C4B10224  23.237   6.271  17.176 -0.0768 -0.0240 -0.0124
  853POPC   NC310225   4.600  24.813  19.058 -0.0416 -0.1094 -0.1562
  853POPC   PO410226   4.951  24.953  19.197  0.1295  0.1510  0.0317
  853POPC   GL110227   4.976  25.260  18.943 -0.0160 -0.1856 -0.1596
  853POPC   GL210228   4.971  25.061  18.693 -0.1515 -0.3768 -0.1008
  853POPC   C1A10229   4.932  25.535  18.533  0.1335 -0.0243  0.2659
  853POPC   D2A10230   4.998  25.530  18.074  0.1603 -0.1517 -0.1131
  853POPC   C3A10231   5.441  25.457  17.910 -0.1259 -0.1384  0.2110
  853POPC   C4A10232   5.728  25.244  17.594  0.1858 -0.0970  0.1942
  853POPC   C1B10233   4.524  25.010  18.596 -0.0500  0.0854  0.1611
  853POPC   C2B10234   4.217  24.944  18.295 -0.0736 -0.0862 -0.0710
  853POPC   C3B10235   4.220  24.955  17.847  0.1229 -0.0909 -0.1041
  853POPC   C4B10236   4.093  24.786  17.462  0.1502 -0.2077 -0.2502
  854POPC   NC310237  18.292   8.686  19.559 -0.3061 -0.2143  0.0738
  854POPC   PO410238  18.123   8.635  19.218 -0.2391 -0.1364  0.0807
  854POPC   GL110239  18.316   8.821  18.940  0.3211  0.0426 -0.0991
  854POPC   GL210240  18.588   8.602  18.950  0.2205  0.0521  0.3126
  854POPC   C1A10241  18.143   8.937  18.448  0.3669  0.0934  0.1408
  854POPC   D2A10242  18.132   8.710  18.082  0.2523 -0.1419  0.3140
  854POPC   C3A10243  18.469   8.635  17.848 -0.1619 -0.1250  0.1423
  854POPC   C4A10244  18.761   8.993  17.733  0.0536  0.1114 -0.0078
  854POPC   C1B10245  18.463   8.512  18.501  0.1754 -0.1953 -0.2976
  854POPC   C2B10246  18.486   8.217  18.191  0.0328 -0.2480  0.0467
  854POPC   C3B10247  18.349   8.028  17.896  0.3932  0.1952 -0.0456
  854POPC   C4B10248  18.239   7.811  17.506 -0.2602 -0.0532 -0.1416
  855POPC   NC310249  20.816  28.780  19.154 -0.0814 -0.1000  0.2526
  855POPC   PO410250  20.863  28.383  19.184  0.0346 -0.1491 -0.1177
  855POPC   GL110251  20.702  28.320  18.897  0.1410 -0.1224  0.1598
  855POPC   GL210252  20.645  28.573  18.725  0.0479 -0.0889  0.1495
  855POPC   C1A10253  20.512  28.036  18.672 -0.1808  0.2803  0.0545
  855POPC   D2A10254  20.400  28.098  18.196  0.0919 -0.1240  0.2196
  855POPC   C3A10255  20.476  27.866  17.816 -0.0473 -0.0325 -0.2553
  855POPC   C4A10256  20.666  27.974  17.369 -0.0561 -0.0114  0.0055
  855POPC   C1B10257  20.692  28.520  18.277 -0.0330 -0.2587  0.2281
  855POPC   C2B10258  20.601  28.345  17.829 -0.0863 -0.1356  0.0898
  855POPC   C3B10259  20.335  28.317  17.446  0.1214  0.1352 -0.2178
  855POPC   C4B10260  19.955  28.112  17.254  0.1449  0.2321 -0.1014
  856POPC   NC310261  29.193  28.088  19.565 -0.2981 -0.2076 -0.0696
  856POPC   PO410262  28.859  28.017  19.593  0.1109 -0.3747 -0.0013
  856POPC   GL110263  29.038  27.802  19.289  0.0560 -0.2995  0.1628
  856POPC   GL210264  28.934  27.549  19.366 -0.1850  0.0584 -0.0235
  856POPC   C1A10265  29.027  27.576  18.872 -0.2523  0.2202 -0.2655
  856POPC   D2A10266  29.181  27.280  18.578  0.0450  0.2632  0.0107
  856POPC   C3A10267  29.193  27.124  18.111  0.1734 -0.0680  0.0728
  856POPC   C4A10268  29.293  27.240  17.691 -0.1398  0.0667  0.4471
  856POPC   C1B10269  28.641  27.341  19.083  0.1646 -0.1136 -0.1013
  856POPC   C2B10270  28.644  27.281  18.650  0.2062 -0.1502 -0.0748
  856POPC   C3B10271  28.661  27.205  18.263  0.0595 -0.1124 -0.0035
  856POPC   C4B10272  28.766  27.326  17.806 -0.0924  0.0159 -0.3532
  857POPC   NC310273   4.311  20.652  19.387  0.5311  0.3495  0.1722
  857POPC   PO410274   4.426  20.948  19.534  0.1124 -0.1641  0.2738
  857POPC   GL110275   4.491  21.047  19.068 -0.2551 -0.2832  0.1323
  857POPC   GL210276   4.505  20.821  18.933  0.0682 -0.0921 -0.2128
  857POPC   C1A10277   4.602  21.328  18.696 -0.0723  0.1152  0.1585
  857POPC   D2A10278   4.678  21.311  18.225  0.1916 -0.3102 -0.1587
  857POPC   C3A10279   4.538  21.504  17.793 -0.0282 -0.2796 -0.3135
  857POPC   C4A10280   4.343  21.923  17.582 -0.1915  0.1902  0.1790
  857POPC   C1B10281   4.816  20.847  18.568 -0.2655 -0.1937  0.1542
  857POPC   C2B10282   5.154  21.084  18.306  0.0125  0.0112  0.0585
  857POPC   C3B10283   5.553  21.205  18.071  0.1237 -0.3881 -0.0078
  857POPC   C4B10284   5.527  20.901  17.727  0.1361 -0.4717  0.0807
  858POPC   NC310285  10.650  15.064  19.903 -0.0967 -0.0826 -0.0866
  858POPC   PO410286  10.493  15.100  19.538 -0.0066  0.1479  0.0766
  858POPC   GL110287  10.209  15.118  19.191 -0.2492 -0.2855  0.6204
  858POPC   GL210288   9.879  15.167  19.121 -0.0025 -0.1899 -0.1096
  858POPC   C1A10289  10.306  15.019  18.734  0.0468  0.2867 -0.1089
  858POPC   D2A10290  10.193  14.965  18.278 -0.1001  0.1499 -0.1150
  858POPC   C3A10291  10.077  14.666  17.951  0.2364 -0.0412  0.1492
  858POPC   C4A10292  10.261  14.217  17.895  0.0495  0.1049  0.1949
  858POPC   C1B10293   9.736  14.909  18.749 -0.0458 -0.0135 -0.1162
  858POPC   C2B10294   9.398  14.658  18.643  0.1792 -0.0205  0.3887
  858POPC   C3B10295   9.298  14.254  18.480 -0.2696  0.3029  0.1817
  858POPC   C4B10296   9.379  13.825  18.339  0.2426 -0.0540  0.2479
  859POPC   NC310297   9.169  17.414  19.292  0.4381 -0.0911 -0.0996
  859POPC   PO410298   9.105  17.778  19.479 -0.0581 -0.1956  0.1128
  859POPC   GL110299   9.026  17.922  19.159 -0.3061  0.0681  0.3997
  859POPC   GL210300   8.762  17.757  19.085  0.2221  0.1008  0.0046
  859POPC   C1A10301   9.196  17.656  18.772 -0.1997 -0.0140  0.2242
  859POPC   D2A10302   9.389  17.535  18.356 -0.1022  0.4060  0.0688
  859POPC   C3A10303   9.314  17.670  17.951  0.2339 -0.0351  0.2473
  859POPC   C4A10304   9.554  17.987  17.729 -0.0955 -0.2810 -0.1185
  859POPC   C1B10305   8.739  17.842  18.627  0.1305  0.2288  0.0414
  859POPC   C2B10306   8.812  17.738  18.219  0.1561 -0.1259 -0.1361
  859POPC   C3B10307   8.709  17.581  17.765  0.2717  0.1745  0.0300
  859POPC   C4B10308   8.465  17.352  17.443  0.0799  0.2109  0.2055
  860POPC   NC310309  21.731  11.220  19.078  0.0565 -0.1965  0.2984
  860POPC   PO410310  21.436  10.980  19.148 -0.2429 -0.0529 -0.4249
  860POPC   GL110311  21.390  10.918  18.781 -0.2353 -0.1029 -0.1602
  860POPC   GL210312  21.349  11.183  18.689  0.0587  0.0024  0.1357
  860POPC   C1A10313  21.551  10.674  18.393  0.3483 -0.1622  0.0531
  860POPC   D2A10314  21.526  10.638  17.899  0.1803 -0.4050  0.1900
  860POPC   C3A10315  21.158  10.877  17.699 -0.3780 -0.0992  0.0229
  860POPC   C4A10316  20.969  11.098  17.364 -0.0681 -0.0516  0.0876
  860POPC   C1B10317  21.765  11.374  18.495  0.1524 -0.1648 -0.0217
  860POPC   C2B10318  21.975  11.546  18.104 -0.2709 -0.0028 -0.1490
  860POPC   C3B10319  22.129  11.443  17.697  0.0286 -0.0188 -0.1895
  860POPC   C4B10320  22.371  11.116  17.462  0.0234 -0.0341 -0.1433
  861POPC   NC310321   7.630  17.893  19.062 -0.3413  0.1803  0.0066
  861POPC   PO410322   7.400  18.146  19.134  0.0584 -0.0531  0.2157
  861POPC   GL110323   7.550  18.195  18.688 -0.0736 -0.0843 -0.1612
  861POPC   GL210324   7.396  18.389  18.648 -0.2680 -0.1817 -0.1589
  861POPC   C1A10325   7.689  18.098  18.286 -0.1388 -0.4013  0.0723
  861POPC   D2A10326   7.674  17.732  18.050 -0.1052  0.1414  0.1455
  861POPC   C3A10327   7.378  17.544  17.799 -0.0227  0.2651 -0.0772
  861POPC   C4A10328   7.089  17.457  17.409 -0.4132 -0.4277  0.2096
  861POPC   C1B10329   7.325  18.698  18.342  0.0649 -0.2179 -0.0067
  861POPC   C2B10330   7.231  18.853  17.959  0.1875 -0.0300  0.2849
  861POPC   C3B10331   7.070  19.202  17.681  0.1827  0.2273 -0.2186
  861POPC   C4B10332   7.124  19.617  17.811  0.0655  0.3414  0.3630
  862POPC   NC310333   6.456  31.370  19.597 -0.3042  0.3119  0.0132
  862POPC   PO410334   6.111  31.295  19.432  0.0176  0.1561 -0.0774
  862POPC   GL110335   5.978  31.087  19.103  0.1892 -0.3926 -0.1894
  862POPC   GL210336   6.198  30.859  19.019  0.4932  0.2930  0.0082
  862POPC   C1A10337   5.946  31.262  18.683 -0.0327  0.2444 -0.0874
  862POPC   D2A10338   5.968  31.199  18.209 -0.2212 -0.0333 -0.1473
  862POPC   C3A10339   6.196  30.905  17.927 -0.3008  0.0516 -0.1418
  862POPC   C4A10340   6.379  30.909  17.479 -0.0637 -0.4153 -0.0374
  862POPC   C1B10341   6.123  30.849  18.522  0.3275  0.0147 -0.1298
  862POPC   C2B10342   5.831  30.626  18.190 -0.1566  0.0124 -0.3272
  862POPC   C3B10343   5.359  30.601  18.121  0.2621 -0.1181  0.0028
  862POPC   C4B10344   5.141  30.924  17.902 -0.1003  0.0994  0.1949
  863POPC   NC310345   4.169   3.708  19.428 -0.2632 -0.0233 -0.1810
  863POPC   PO410346   3.795   3.803  19.380 -0.1405 -0.0418 -0.5196
  863POPC   GL110347   3.706   3.775  19.065 -0.2269 -0.3171 -0.0217
  863POPC   GL210348   3.910   3.938  18.886  0.1817 -0.0263 -0.1142
  863POPC   C1A10349   3.705   3.431  18.761  0.3123 -0.0499 -0.1055
  863POPC   D2A10350   3.866   3.325  18.351  0.0365  0.1063 -0.1533
  863POPC   C3A10351   4.250   3.402  18.127 -0.2040  0.0835 -0.1406
  863POPC   C4A10352   4.516   3.244  17.823 -0.0840  0.0942 -0.0650
  863POPC   C1B10353   3.787   3.961  18.448  0.1922  0.0978  0.0600
  863POPC   C2B10354   3.444   4.098  18.085 -0.3035 -0.1984  0.1462
  863POPC   C3B10355   3.301   4.313  17.619 -0.0273  0.4028  0.1515
  863POPC   C4B10356   3.596   4.353  17.324  0.0463 -0.1437  0.1940
  864POPC   NC310357  15.730  25.525  19.631  0.0221  0.0120 -0.1925
  864POPC   PO410358  15.862  25.204  19.400 -0.2330 -0.3486 -0.1350
  864POPC   GL110359  16.022  25.453  19.111  0.1122  0.0266 -0.3507
  864POPC   GL210360  15.934  25.737  19.258  0.0817  0.1155 -0.2173
  864POPC   C1A10361  16.279  25.690  18.835 -0.4462 -0.2222 -0.1812
  864POPC   D2A10362  16.510  26.036  18.788  0.0449 -0.1407 -0.3359
  864POPC   C3A10363  16.848  26.216  18.559 -0.0693 -0.1107 -0.1378
  864POPC   C4A10364  16.838  26.671  18.344 -0.1817  0.0475 -0.0985
  864POPC   C1B10365  15.797  25.929  18.830  0.3433  0.0802  0.0987
  864POPC   C2B10366  16.037  25.968  18.434  0.2077 -0.0282  0.0234
  864POPC   C3B10367  16.108  25.867  17.958 -0.0483  0.2306 -0.0994
  864POPC   C4B10368  16.528  25.809  17.745 -0.1083 -0.1480  0.0698
  865POPC   NC310369  22.047  12.979  19.947  0.0907  0.2575  0.0750
  865POPC   PO410370  22.175  13.164  19.608 -0.1881  0.1767 -0.3706
  865POPC   GL110371  22.319  13.192  19.189  0.0837 -0.1434 -0.3464
  865POPC   GL210372  22.130  13.347  19.039  0.3564 -0.1850 -0.0774
  865POPC   C1A10373  22.607  13.402  18.889  0.1954  0.0361  0.1904
  865POPC   D2A10374  22.792  13.124  18.555 -0.1378 -0.1116  0.0741
  865POPC   C3A10375  22.720  13.016  18.082 -0.1460  0.2159  0.0815
  865POPC   C4A10376  22.639  12.915  17.632 -0.2079 -0.1954 -0.1190
  865POPC   C1B10377  22.216  13.056  18.751  0.3297 -0.2199  0.1642
  865POPC   C2B10378  22.261  12.993  18.272  0.1532  0.0881  0.2548
  865POPC   C3B10379  22.179  13.091  17.837 -0.0925  0.0704  0.3972
  865POPC   C4B10380  22.082  12.947  17.408 -0.1236  0.1458 -0.0509
  866POPC   NC310381  26.284  15.142  19.172  0.2070  0.3426 -0.4186
  866POPC   PO410382  26.633  15.289  19.135  0.0057  0.1670 -0.1924
  866POPC   GL110383  26.529  14.959  18.799  0.3372  0.0146 -0.1937
  866POPC   GL210384  26.329  15.067  18.658  0.1443 -0.0815  0.1019
  866POPC   C1A10385  26.712  14.948  18.343 -0.0856 -0.1479  0.0186
  866POPC   D2A10386  26.725  14.936  17.859 -0.0920  0.0184  0.0953
  866POPC   C3A10387  26.729  14.585  17.574 -0.1159 -0.0845 -0.0662
  866POPC   C4A10388  26.514  14.653  17.154 -0.1709  0.0975 -0.0448
  866POPC   C1B10389  26.172  14.840  18.307  0.0979 -0.2793  0.0022
  866POPC   C2B10390  25.877  14.805  17.957 -0.0725  0.1810  0.3065
  866POPC   C3B10391  25.747  14.885  17.522 -0.2765 -0.2381 -0.0239
  866POPC   C4B10392  25.768  14.853  17.039  0.0227  0.1179  0.1506
  867POPC   NC310393   2.670   0.735  19.269 -0.0272  0.1154  0.4673
  867POPC   PO410394   2.424   0.953  19.449  0.1465  0.1159 -0.1134
  867POPC   GL110395   2.084   0.707  19.245  0.2798 -0.3164 -0.3892
  867POPC   GL210396   2.208   0.552  19.014 -0.2456  0.0884  0.1923
  867POPC   C1A10397   1.882   0.959  18.928  0.0767  0.0692 -0.0462
  867POPC   D2A10398   1.841   1.221  18.565  0.0114  0.0113  0.1255
  867POPC   C3A10399   2.016   0.952  18.208 -0.2982 -0.0238 -0.2689
  867POPC   C4A10400   2.040   0.676  17.870  0.0455 -0.1071  0.4871
  867POPC   C1B10401   1.915   0.411  18.645  0.0122  0.0341 -0.2098
  867POPC   C2B10402   1.676   0.502  18.192  0.3174 -0.0655 -0.0112
  867POPC   C3B10403   1.649   0.432  17.743  0.2107  0.0907  0.1659
  867POPC   C4B10404   1.688   0.332  17.370 -0.0080 -0.0636 -0.1289
  868POPC   NC310405  20.530   1.911  19.154  0.2119  0.5731 -0.0578
  868POPC   PO410406  20.215   2.154  19.047 -0.0507 -0.1398  0.2135
  868POPC   GL110407  20.351   1.916  18.698  0.1200 -0.5728 -0.1757
  868POPC   GL210408  20.175   1.685  18.824  0.1731  0.2649  0.2256
  868POPC   C1A10409  20.285   2.102  18.299  0.0994  0.0324 -0.1254
  868POPC   D2A10410  20.192   2.175  17.845 -0.1217  0.2536  0.0476
  868POPC   C3A10411  19.840   1.833  17.714  0.0288 -0.2249  0.0333
  868POPC   C4A10412  19.429   1.920  17.568  0.1906 -0.1219  0.0192
  868POPC   C1B10413  20.244   1.622  18.317  0.0456  0.1693 -0.0378
  868POPC   C2B10414  20.303   1.689  17.889  0.2270 -0.0778 -0.0035
  868POPC   C3B10415  20.324   1.900  17.448 -0.2239  0.2477  0.1283
  868POPC   C4B10416  20.377   2.269  17.136 -0.1046 -0.0124 -0.1386
  869POPC   NC310417  26.538   3.393  19.067  0.0431 -0.2929 -0.3386
  869POPC   PO410418  26.160   3.242  19.059 -0.2678  0.0197  0.2021
  869POPC   GL110419  26.206   3.131  18.736  0.1149 -0.2120 -0.3553
  869POPC   GL210420  26.365   3.396  18.612  0.1264 -0.1009  0.0315
  869POPC   C1A10421  26.295   3.050  18.269  0.1010  0.0806  0.1019
  869POPC   D2A10422  26.469   3.046  17.884 -0.0257  0.0236  0.1700
  869POPC   C3A10423  26.218   3.436  17.695 -0.0152  0.0016  0.0086
  869POPC   C4A10424  25.978   3.682  17.288  0.0467  0.1120  0.0545
  869POPC   C1B10425  26.414   3.534  18.188 -0.1446 -0.0933  0.2002
  869POPC   C2B10426  26.792   3.456  17.883  0.1221 -0.1127  0.1456
  869POPC   C3B10427  26.733   3.376  17.492  0.0521 -0.0759 -0.0405
  869POPC   C4B10428  26.391   3.385  17.182  0.1879  0.0616  0.1360
  870POPC   NC310429   5.224   5.592  19.302  0.1417 -0.1177 -0.2084
  870POPC   PO410430   5.390   5.248  19.294 -0.0349 -0.0501 -0.2456
  870POPC   GL110431   5.220   5.183  18.942  0.0820  0.0732  0.3142
  870POPC   GL210432   5.482   5.267  18.795  0.0951  0.3100 -0.1401
  870POPC   C1A10433   5.069   5.074  18.490  0.1493  0.0329 -0.2060
  870POPC   D2A10434   5.049   4.871  18.070  0.1010  0.1886  0.0723
  870POPC   C3A10435   4.728   4.768  17.749 -0.2483  0.0294 -0.1362
  870POPC   C4A10436   4.555   4.690  17.341  0.1734 -0.0291 -0.0091
  870POPC   C1B10437   5.636   4.937  18.519  0.0858  0.0029  0.2162
  870POPC   C2B10438   5.582   4.745  18.097  0.1955  0.0104  0.0274
  870POPC   C3B10439   5.405   4.556  17.715  0.0673  0.0700 -0.0881
  870POPC   C4B10440   5.085   4.679  17.418 -0.1793 -0.4719  0.0649
  871POPC   NC310441  20.146  12.731  19.237 -0.0885  0.1480  0.1796
  871POPC   PO410442  19.924  12.460  19.403 -0.0133  0.1198  0.0073
  871POPC   GL110443  19.802  12.494  19.017 -0.1144  0.2076 -0.0741
  871POPC   GL210444  20.048  12.292  18.886 -0.0478  0.0373  0.3842
  871POPC   C1A10445  19.477  12.350  18.737  0.0244  0.0333  0.1219
  871POPC   D2A10446  19.359  12.142  18.340 -0.2917 -0.1199 -0.3357
  871POPC   C3A10447  19.132  11.866  17.997  0.1436 -0.2215  0.1816
  871POPC   C4A10448  18.805  11.660  17.824  0.0552 -0.0663  0.2050
  871POPC   C1B10449  19.872  12.203  18.468  0.0110 -0.0864  0.1629
  871POPC   C2B10450  19.834  11.965  18.096 -0.0006 -0.0846  0.0768
  871POPC   C3B10451  19.697  11.832  17.690 -0.2788  0.2048 -0.2687
  871POPC   C4B10452  19.347  11.485  17.714 -0.0089 -0.2606 -0.1525
  872POPC   NC310453  24.334  12.530  19.692  0.0669  0.1360  0.0474
  872POPC   PO410454  24.727  12.475  19.582  0.1626 -0.0157  0.2396
  872POPC   GL110455  24.550  12.335  19.262  0.0239 -0.1486 -0.4079
  872POPC   GL210456  24.345  12.129  19.285 -0.5005  0.1631 -0.1516
  872POPC   C1A10457  24.618  12.487  18.808  0.1058  0.1866  0.1674
  872POPC   D2A10458  24.588  12.659  18.384  0.2474  0.2715  0.0032
  872POPC   C3A10459  24.449  12.419  17.995 -0.0276 -0.0554  0.1999
  872POPC   C4A10460  24.267  12.253  17.573 -0.0972  0.1856  0.0777
  872POPC   C1B10461  24.586  12.042  18.872  0.0221 -0.0142  0.1967
  872POPC   C2B10462  24.773  11.719  18.602  0.0818  0.4510 -0.0643
  872POPC   C3B10463  24.613  11.338  18.464  0.0405 -0.2870 -0.3533
  872POPC   C4B10464  24.338  11.252  18.130 -0.1629 -0.1876  0.1601
  873POPC   NC310465   0.277  29.059  19.770 -0.0255 -0.1704 -0.0666
  873POPC   PO410466   0.014  28.751  19.634 -0.1372 -0.0102  0.2770
  873POPC   GL110467  -0.064  28.670  19.297 -0.0043  0.0442  0.3437
  873POPC   GL210468  -0.291  28.778  19.179  0.3017  0.2780  0.1355
  873POPC   C1A10469  -0.247  28.289  19.085 -0.3158 -0.2262 -0.0048
  873POPC   D2A10470  -0.715  28.185  19.248 -0.1031 -0.0409 -0.0048
  873POPC   C3A10471  -0.855  28.014  18.820  0.3466 -0.0749  0.1503
  873POPC   C4A10472  -0.865  27.967  18.347  0.1668  0.0489  0.1702
  873POPC   C1B10473  -0.297  29.095  18.916  0.1387 -0.1916  0.1963
  873POPC   C2B10474  -0.206  29.183  18.504  0.1268  0.0998  0.1966
  873POPC   C3B10475  -0.144  29.176  18.009 -0.2195 -0.0462 -0.0162
  873POPC   C4B10476  -0.126  29.398  17.589  0.1594  0.1314 -0.0220
  874POPC   NC310477   8.271  10.953  18.594 -0.3500  0.1454 -0.0540
  874POPC   PO410478   8.232  11.119  18.964  0.0600 -0.3630  0.0055
  874POPC   GL110479   8.087  11.451  18.814 -0.2500  0.0932 -0.1518
  874POPC   GL210480   8.343  11.623  18.855 -0.0820 -0.1846 -0.0793
  874POPC   C1A10481   8.058  11.440  18.337 -0.5017 -0.0662  0.0901
  874POPC   D2A10482   8.347  11.314  17.987  0.1874  0.0613  0.2416
  874POPC   C3A10483   8.444  11.538  17.607 -0.0858  0.0503  0.0776
  874POPC   C4A10484   8.821  11.635  17.369 -0.0652 -0.2789 -0.2306
  874POPC   C1B10485   8.551  11.396  18.493 -0.0061 -0.1359 -0.2997
  874POPC   C2B10486   8.801  11.497  18.077  0.0227 -0.2508 -0.0260
  874POPC   C3B10487   8.938  11.261  17.680 -0.3063  0.1963 -0.0769
  874POPC   C4B10488   8.957  11.090  17.267  0.0759  0.0882  0.2633
  875POPC   NC310489   7.392  14.634  19.928  0.0795 -0.0635 -0.1591
  875POPC   PO410490   7.199  14.373  19.712  0.1179  0.2181  0.0407
  875POPC   GL110491   7.353  14.499  19.300 -0.1491  0.1157 -0.1131
  875POPC   GL210492   7.502  14.190  19.251 -0.1451 -0.1097 -0.1229
  875POPC   C1A10493   7.412  14.626  18.835  0.0057  0.0544 -0.1455
  875POPC   D2A10494   7.324  14.677  18.348 -0.2987  0.3413 -0.0138
  875POPC   C3A10495   7.320  14.830  17.921 -0.3313  0.0325 -0.0094
  875POPC   C4A10496   7.660  14.860  17.587  0.1653 -0.0114  0.2107
  875POPC   C1B10497   7.372  14.084  18.859  0.0454  0.1142  0.2598
  875POPC   C2B10498   7.268  14.179  18.399 -0.0760  0.0081 -0.2313
  875POPC   C3B10499   7.314  14.165  17.947 -0.1221 -0.3792  0.1076
  875POPC   C4B10500   7.544  14.311  17.579 -0.0827  0.1284  0.2438
  876POPC   NC310501   8.834  26.485  19.082 -0.1613 -0.3196 -0.4661
  876POPC   PO410502   9.066  26.181  19.194  0.0043  0.1104  0.0054
  876POPC   GL110503   9.064  26.124  18.796 -0.0138 -0.4836 -0.2715
  876POPC   GL210504   9.130  26.381  18.724 -0.1047  0.1790  0.0522
  876POPC   C1A10505   9.056  25.976  18.315  0.2161  0.0364 -0.0797
  876POPC   D2A10506   9.000  25.823  17.865 -0.2105  0.1092 -0.1886
  876POPC   C3A10507   8.617  26.044  17.699  0.0566 -0.0656  0.2520
  876POPC   C4A10508   8.413  26.042  17.319  0.1565  0.2634 -0.2040
  876POPC   C1B10509   9.262  26.563  18.327 -0.0404 -0.1252  0.1250
  876POPC   C2B10510   9.290  26.797  17.944  0.0451 -0.2417  0.1543
  876POPC   C3B10511   9.073  26.882  17.531 -0.3877 -0.0321 -0.3809
  876POPC   C4B10512   9.273  27.052  17.157  0.1655  0.2657  0.3283
  877POPC   NC310513   0.969   7.057  19.457 -0.1614 -0.3766 -0.1525
  877POPC   PO410514   0.867   6.738  19.598 -0.3074  0.0850 -0.0309
  877POPC   GL110515   0.853   6.665  19.241 -0.2102 -0.1442 -0.0869
  877POPC   GL210516   1.135   6.715  19.173 -0.1366  0.0284  0.0650
  877POPC   C1A10517   0.709   6.496  18.831 -0.1193  0.0342  0.1181
  877POPC   D2A10518   0.397   6.313  18.505 -0.1921 -0.1846  0.0397
  877POPC   C3A10519   0.381   5.824  18.474  0.4602 -0.0128  0.3176
  877POPC   C4A10520  -0.012   5.599  18.599 -0.0624  0.0796  0.0624
  877POPC   C1B10521   1.132   6.275  19.026  0.0734  0.4128  0.0152
  877POPC   C2B10522   1.364   6.147  18.660  0.0040  0.1772  0.1276
  877POPC   C3B10523   1.534   6.500  18.404  0.1347  0.2436 -0.2211
  877POPC   C4B10524   1.348   6.667  18.022  0.1191  0.1131  0.0005
  878POPC   NC310525   0.548  28.633  19.832  0.3760 -0.1572 -0.0340
  878POPC   PO410526   0.704  28.956  19.611 -0.1051  0.2421 -0.1139
  878POPC   GL110527   0.432  28.871  19.411 -0.0004  0.2779 -0.3310
  878POPC   GL210528   0.488  28.608  19.270  0.0175 -0.1299 -0.2166
  878POPC   C1A10529   0.264  29.056  19.027  0.0164  0.0164  0.2681
  878POPC   D2A10530   0.286  29.010  18.597  0.0840  0.0799  0.3850
  878POPC   C3A10531   0.672  29.081  18.353 -0.0979  0.1968 -0.0423
  878POPC   C4A10532   1.037  28.924  18.176 -0.1142  0.1651  0.2341
  878POPC   C1B10533   0.609  28.342  18.856  0.2936  0.0574 -0.0089
  878POPC   C2B10534   0.508  28.559  18.415 -0.1571  0.1593 -0.1405
  878POPC   C3B10535   0.586  28.765  17.974  0.1290  0.1296 -0.1576
  878POPC   C4B10536   0.659  28.806  17.528  0.0128 -0.1631  0.2735
  879POPC   NC310537   5.069  20.920  19.537 -0.1973  0.2091  0.0539
  879POPC   PO410538   4.842  20.676  19.350  0.1848  0.1156  0.3586
  879POPC   GL110539   4.981  20.645  18.940 -0.1738  0.0215  0.2860
  879POPC   GL210540   5.235  20.775  19.064 -0.0589 -0.0486  0.0937
  879POPC   C1A10541   5.005  20.299  18.640  0.2341 -0.1174  0.0543
  879POPC   D2A10542   4.829  19.945  18.409  0.0644 -0.0175 -0.2891
  879POPC   C3A10543   4.907  20.058  17.988  0.3651 -0.0382  0.2603
  879POPC   C4A10544   5.161  20.018  17.587 -0.3509 -0.0187  0.4788
  879POPC   C1B10545   5.339  20.697  18.640  0.2452 -0.0531  0.0702
  879POPC   C2B10546   5.376  20.674  18.200  0.1023  0.0495  0.1103
  879POPC   C3B10547   5.125  20.565  17.862  0.1871 -0.0866 -0.0738
  879POPC   C4B10548   4.798  20.755  17.558 -0.0428  0.0525 -0.2979
  880POPC   NC310549  29.134  15.542  19.118  0.0423  0.3280 -0.0789
  880POPC   PO410550  29.285  15.175  19.217 -0.0778  0.1883  0.3645
  880POPC   GL110551  29.274  15.029  18.886  0.0579 -0.1170  0.4983
  880POPC   GL210552  29.172  15.217  18.670 -0.0362  0.0767 -0.1665
  880POPC   C1A10553  29.373  14.765  18.499  0.1111 -0.1774  0.2822
  880POPC   D2A10554  29.656  14.758  18.144  0.3020 -0.2567  0.0377
  880POPC   C3A10555  29.933  15.030  18.415 -0.0888 -0.1367  0.2504
  880POPC   C4A10556  30.313  14.955  18.603 -0.1565  0.0357 -0.1756
  880POPC   C1B10557  29.498  15.283  18.344 -0.1643 -0.2530 -0.1999
  880POPC   C2B10558  29.529  15.320  17.929  0.1175 -0.1476  0.0691
  880POPC   C3B10559  29.723  15.471  17.475  0.0819  0.1020  0.3211
  880POPC   C4B10560  30.071  15.476  17.179 -0.1245  0.3486 -0.4200
  881POPC   NC310561  20.299  20.724  19.565  0.2679 -0.0384 -0.0381
  881POPC   PO410562  20.302  20.834  19.203 -0.0880  0.1507 -0.1211
  881POPC   GL110563  20.585  20.653  18.895 -0.1060 -0.2756 -0.1422
  881POPC   GL210564  20.400  20.550  18.647 -0.0561  0.4380 -0.0568
  881POPC   C1A10565  21.070  20.799  18.920 -0.0925  0.4159  0.0996
  881POPC   D2A10566  21.545  20.713  19.005  0.1452  0.1404 -0.0063
  881POPC   C3A10567  21.863  20.461  18.770 -0.3712  0.1718 -0.0438
  881POPC   C4A10568  22.184  20.406  18.486  0.2879  0.0194  0.0159
  881POPC   C1B10569  20.710  20.573  18.313  0.1508  0.0309 -0.3201
  881POPC   C2B10570  20.766  20.798  17.890 -0.1053  0.1245  0.1754
  881POPC   C3B10571  20.931  20.868  17.492  0.0042 -0.1519  0.0933
  881POPC   C4B10572  20.732  20.912  17.100 -0.0138  0.0144 -0.1648
  882POPC   NC310573   6.177  13.833  19.158  0.2287  0.0498 -0.0291
  882POPC   PO410574   6.455  13.692  19.379  0.0647  0.1476 -0.1177
  882POPC   GL110575   6.478  13.394  18.975  0.0705 -0.1982 -0.2645
  882POPC   GL210576   6.364  13.524  18.693 -0.1487 -0.0006 -0.0129
  882POPC   C1A10577   6.467  13.007  18.712  0.2638  0.2213 -0.0202
  882POPC   D2A10578   6.222  12.685  18.450 -0.1225  0.0312 -0.0882
  882POPC   C3A10579   6.146  12.695  17.954 -0.1667  0.1800 -0.0763
  882POPC   C4A10580   5.931  12.693  17.526  0.0395  0.2013  0.1404
  882POPC   C1B10581   6.440  13.996  18.653 -0.1295  0.0990  0.1257
  882POPC   C2B10582   6.729  14.302  18.464 -0.0864 -0.0397  0.0211
  882POPC   C3B10583   6.868  14.496  18.076  0.1709  0.1333  0.0834
  882POPC   C4B10584   6.797  14.778  17.730 -0.0982  0.1769  0.0334
  883POPC   NC310585  29.797  18.259  19.204  0.3119 -0.0257  0.2513
  883POPC   PO410586  30.049  18.339  19.475  0.1287 -0.0226 -0.6410
  883POPC   GL110587  30.245  18.230  19.111  0.1073 -0.1679  0.1640
  883POPC   GL210588  30.493  17.995  19.020  0.3667 -0.5343 -0.2046
  883POPC   C1A10589  30.383  18.387  18.709 -0.0499 -0.2136 -0.4306
  883POPC   D2A10590  30.242  18.574  18.306  0.2098 -0.2030  0.0995
  883POPC   C3A10591  30.113  19.004  18.095  0.0256  0.0922  0.0097
  883POPC   C4A10592  30.091  19.310  17.770 -0.3194 -0.3265  0.0688
  883POPC   C1B10593  30.691  17.783  18.676 -0.0508  0.3717 -0.0414
  883POPC   C2B10594  30.829  17.619  18.241 -0.0516  0.1675  0.3006
  883POPC   C3B10595  30.813  17.442  17.818  0.1967  0.1283  0.0442
  883POPC   C4B10596  30.397  17.374  17.583  0.0743 -0.1502 -0.2432
  884POPC   NC310597  30.602   9.675  19.597 -0.0255  0.0663  0.0522
  884POPC   PO410598  30.846   9.837  19.299  0.1244 -0.0091 -0.0351
  884POPC   GL110599  30.828  10.002  18.880 -0.1057  0.0658 -0.4105
  884POPC   GL210600  30.793  10.307  18.872  0.1586  0.0133 -0.3146
  884POPC   C1A10601  30.766  10.192  18.405  0.0697 -0.1657 -0.2210
  884POPC   D2A10602  30.640  10.333  18.006 -0.1509 -0.0860  0.1691
  884POPC   C3A10603  30.775  10.164  17.550 -0.1104  0.1455  0.0769
  884POPC   C4A10604  30.724  10.080  17.083 -0.1507  0.1825 -0.3514
  884POPC   C1B10605  30.385  10.354  18.638  0.0783  0.0591  0.0318
  884POPC   C2B10606  29.956  10.102  18.735 -0.0164  0.0073 -0.0991
  884POPC   C3B10607  29.531   9.854  18.578 -0.0929 -0.1191  0.3646
  884POPC   C4B10608  29.248   9.650  18.196 -0.0665  0.1398  0.1236
  885POPC   NC310609  12.167  29.484  19.034 -0.1407 -0.0835 -0.1083
  885POPC   PO410610  12.332  29.798  19.214 -0.0755 -0.0449 -0.1889
  885POPC   GL110611  12.301  29.930  18.839 -0.1491 -0.0367  0.1779
  885POPC   GL210612  12.394  30.239  18.859 -0.1987 -0.0860 -0.3215
  885POPC   C1A10613  12.501  29.668  18.537  0.2890  0.1234  0.0260
  885POPC   D2A10614  12.635  29.498  18.149 -0.3432 -0.2588 -0.0622
  885POPC   C3A10615  12.378  29.190  17.898 -0.0423 -0.2945  0.0196
  885POPC   C4A10616  12.431  28.801  18.091 -0.0116  0.0867  0.1091
  885POPC   C1B10617  12.262  30.197  18.436 -0.0002  0.0118  0.1732
  885POPC   C2B10618  12.175  29.801  18.156 -0.0061 -0.3259 -0.1913
  885POPC   C3B10619  12.398  29.685  17.736  0.0152  0.0270 -0.1583
  885POPC   C4B10620  12.752  29.556  17.519 -0.1618  0.0844  0.0581
  886POPC   NC310621  15.574  17.675  19.374 -0.0826  0.3799 -0.1512
  886POPC   PO410622  15.899  17.844  19.532  0.1637  0.0413 -0.0285
  886POPC   GL110623  15.841  17.911  19.092 -0.1262 -0.2180  0.2709
  886POPC   GL210624  16.060  17.835  18.832  0.1940 -0.1825 -0.0249
  886POPC   C1A10625  15.839  18.302  18.860  0.1676  0.0872 -0.1163
  886POPC   D2A10626  15.457  18.420  18.636  0.0769 -0.1342  0.0822
  886POPC   C3A10627  15.461  18.381  18.195  0.3951 -0.0652  0.0496
  886POPC   C4A10628  15.335  18.272  17.767  0.1287  0.0125  0.1525
  886POPC   C1B10629  16.165  17.847  18.331  0.3038 -0.1460  0.0917
  886POPC   C2B10630  16.187  17.926  17.884  0.1242  0.2490 -0.1489
  886POPC   C3B10631  16.156  17.906  17.381 -0.0051  0.2882  0.3945
  886POPC   C4B10632  16.079  18.287  17.122 -0.1817 -0.0919  0.0824
  887POPC   NC310633  20.016  16.156  18.992 -0.0818 -0.0740 -0.1935
  887POPC   PO410634  19.856  15.839  19.086  0.2827 -0.1685  0.1742
  887POPC   GL110635  19.918  15.877  18.629 -0.0493 -0.2199  0.0621
  887POPC   GL210636  20.180  16.028  18.577  0.2653  0.0652 -0.0608
  887POPC   C1A10637  19.585  15.985  18.307 -0.2523  0.2636  0.2673
  887POPC   D2A10638  19.409  16.162  17.868 -0.3498  0.1515  0.1002
  887POPC   C3A10639  19.515  16.277  17.454 -0.0979  0.0096 -0.2011
  887POPC   C4A10640  19.738  16.092  17.150 -0.0567  0.1685  0.1627
  887POPC   C1B10641  20.319  16.171  18.126  0.0235 -0.2035 -0.1078
  887POPC   C2B10642  20.505  16.188  17.688 -0.1807 -0.1785 -0.1361
  887POPC   C3B10643  20.703  15.921  17.328  0.1524 -0.1880  0.1684
  887POPC   C4B10644  20.712  15.576  17.058 -0.1008 -0.2074 -0.1513
  888POPC   NC310645  13.077  25.933  19.615  0.0738 -0.0309 -0.1303
  888POPC   PO410646  12.760  26.113  19.458  0.1348 -0.0710 -0.1078
  888POPC   GL110647  12.677  26.275  19.091  0.0392 -0.3394 -0.2059
  888POPC   GL210648  12.816  26.164  18.934  0.1119  0.3956 -0.2277
  888POPC   C1A10649  12.332  26.305  18.767 -0.2515  0.1819 -0.2035
  888POPC   D2A10650  12.261  26.229  18.349 -0.0334 -0.0069 -0.2507
  888POPC   C3A10651  12.217  25.754  18.284 -0.3950  0.3038 -0.2099
  888POPC   C4A10652  12.283  25.537  17.904 -0.4435 -0.4471  0.1573
  888POPC   C1B10653  12.772  26.265  18.471 -0.3949 -0.1145  0.0066
  888POPC   C2B10654  12.617  26.425  18.096  0.1488  0.1933  0.3335
  888POPC   C3B10655  12.425  26.740  17.803 -0.0553  0.2337  0.2432
  888POPC   C4B10656  12.206  27.104  17.618  0.3496 -0.1690  0.0522
  889POPC   NC310657  30.261  24.384  18.658 -0.0609  0.1834  0.1346
  889POPC   PO410658  30.636  24.466  18.835 -0.1161  0.2001 -0.0589
  889POPC   GL110659  30.698  24.647  18.442 -0.0513 -0.1562  0.1528
  889POPC   GL210660  30.539  24.663  18.285 -0.1021  0.0458 -0.3887
  889POPC   C1A10661  31.039  24.614  18.070  0.1421 -0.1302  0.0602
  889POPC   D2A10662  31.073  24.479  17.658 -0.1307 -0.2123  0.0633
  889POPC   C3A10663  30.820  24.375  17.297  0.2372 -0.1640  0.0159
  889POPC   C4A10664  30.794  24.152  16.932  0.0312  0.1662  0.0078
  889POPC   C1B10665  30.680  24.879  17.888  0.0618  0.1232  0.0836
  889POPC   C2B10666  30.814  24.996  17.397 -0.1219  0.0769 -0.3372
  889POPC   C3B10667  31.003  24.816  17.020  0.1416  0.4538  0.3994
  889POPC   C4B10668  31.108  24.521  16.653 -0.3535  0.1091 -0.1967
  890POPC   NC310669  26.968   2.597  19.093 -0.0363  0.2200  0.1093
  890POPC   PO410670  27.353   2.564  19.168  0.0154 -0.0607  0.0090
  890POPC   GL110671  27.640   2.394  18.930 -0.0108  0.2107  0.0326
  890POPC   GL210672  27.606   2.103  18.801 -0.2206  0.1351  0.2684
  890POPC   C1A10673  27.608   2.462  18.490 -0.1623  0.1173 -0.4054
  890POPC   D2A10674  27.708   2.300  18.028  0.1567 -0.0017  0.1700
  890POPC   C3A10675  27.398   2.034  17.801  0.0494 -0.0373  0.2587
  890POPC   C4A10676  27.145   1.811  17.531  0.3312  0.1613 -0.3560
  890POPC   C1B10677  27.590   1.971  18.364 -0.0817 -0.1452  0.0515
  890POPC   C2B10678  27.777   1.774  18.015  0.1483 -0.0457  0.0178
  890POPC   C3B10679  27.666   1.653  17.557 -0.1107 -0.0935 -0.4333
  890POPC   C4B10680  27.359   1.378  17.360  0.1575 -0.0299  0.1088
  891POPC   NC310681  24.809   4.429  19.082 -0.1213 -0.2151  0.1211
  891POPC   PO410682  24.993   4.079  19.156  0.0717 -0.1533  0.1630
  891POPC   GL110683  25.195   3.945  18.852 -0.0038  0.4264  0.0579
  891POPC   GL210684  25.372   3.699  18.734  0.0330 -0.1800  0.0352
  891POPC   C1A10685  25.244   4.099  18.420 -0.0508 -0.4590 -0.0639
  891POPC   D2A10686  25.463   4.420  18.213  0.1142 -0.0587  0.2279
  891POPC   C3A10687  25.254   4.795  17.957 -0.3448  0.0654  0.1148
  891POPC   C4A10688  25.217   4.841  17.529 -0.1921 -0.1988 -0.0436
  891POPC   C1B10689  25.407   3.473  18.338 -0.2337  0.0836  0.1882
  891POPC   C2B10690  25.352   3.153  18.007 -0.1634 -0.0119 -0.3653
  891POPC   C3B10691  25.394   2.819  17.636  0.0644  0.0705  0.1124
  891POPC   C4B10692  25.414   2.415  17.483  0.0426 -0.2128 -0.2851
  892POPC   NC310693  10.978  10.722  20.145 -0.3264 -0.2948 -0.0921
  892POPC   PO410694  11.045  10.953  19.831  0.0905  0.0611 -0.1219
  892POPC   GL110695  11.150  10.948  19.389 -0.0083 -0.0436  0.4590
  892POPC   GL210696  11.043  11.223  19.328  0.1671 -0.0278  0.1860
  892POPC   C1A10697  11.063  10.560  19.150 -0.1813  0.0974 -0.1348
  892POPC   D2A10698  11.323  10.280  18.864  0.2157 -0.2776 -0.1678
  892POPC   C3A10699  11.257  10.176  18.417 -0.3834  0.1989 -0.0206
  892POPC   C4A10700  11.048  10.043  18.031 -0.1326  0.1779  0.0318
  892POPC   C1B10701  11.015  10.998  18.950  0.0040  0.0179  0.2040
  892POPC   C2B10702  10.933  10.792  18.566  0.1280  0.2512  0.0795
  892POPC   C3B10703  10.889  10.943  18.129 -0.2392 -0.0082  0.2799
  892POPC   C4B10704  10.910  10.955  17.685 -0.4355  0.0726 -0.0602
  893POPC   NC310705  30.552   7.186  19.693 -0.1143  0.1491 -0.1297
  893POPC   PO410706  30.387   7.167  19.365  0.1758 -0.2185 -0.1839
  893POPC   GL110707  30.308   7.294  18.978 -0.2011  0.0393 -0.0722
  893POPC   GL210708  30.492   7.201  18.758 -0.0545 -0.1479 -0.0989
  893POPC   C1A10709  30.286   7.658  18.697  0.3530  0.0850 -0.0302
  893POPC   D2A10710  30.318   8.002  18.426  0.0326 -0.3888  0.0200
  893POPC   C3A10711  30.416   7.930  17.994  0.1821  0.2189 -0.0582
  893POPC   C4A10712  30.393   7.655  17.633  0.3136 -0.0305 -0.2057
  893POPC   C1B10713  30.311   7.294  18.315 -0.0293  0.0619 -0.0655
  893POPC   C2B10714  30.075   7.262  17.948 -0.1344 -0.1207 -0.1306
  893POPC   C3B10715  29.842   7.527  17.612 -0.2606  0.1396  0.1753
  893POPC   C4B10716  29.655   7.875  17.349 -0.1247  0.1966  0.1565
  894POPC   NC310717   2.213   7.241  19.699  0.1164  0.0031 -0.1603
  894POPC   PO410718   2.223   7.480  19.438  0.2136  0.2483 -0.1189
  894POPC   GL110719   2.253   7.543  19.046  0.3293  0.1685 -0.3842
  894POPC   GL210720   2.370   7.757  18.885 -0.1679  0.2333 -0.1536
  894POPC   C1A10721   2.480   7.212  18.802  0.0403 -0.0260 -0.0518
  894POPC   D2A10722   2.440   6.830  18.493 -0.0216 -0.0000 -0.0328
  894POPC   C3A10723   2.689   6.675  18.123 -0.0942 -0.0911 -0.0141
  894POPC   C4A10724   2.959   6.649  17.861  0.0883 -0.3756  0.0452
  894POPC   C1B10725   1.985   7.961  18.661  0.0416  0.0020  0.0902
  894POPC   C2B10726   1.746   7.933  18.267 -0.1109  0.4552  0.2291
  894POPC   C3B10727   1.756   7.838  17.820 -0.1945 -0.0660  0.0783
  894POPC   C4B10728   1.604   7.524  17.541  0.0628 -0.2285 -0.1592
  895POPC   NC310729   8.360  18.903  19.611  0.2195  0.0118 -0.4220
  895POPC   PO410730   8.045  19.004  19.367 -0.0940 -0.0865  0.1008
  895POPC   GL110731   7.920  18.921  18.993 -0.2084  0.0759 -0.2025
  895POPC   GL210732   7.683  18.999  18.910  0.1565 -0.0328  0.2231
  895POPC   C1A10733   8.123  18.897  18.559  0.0106 -0.2285 -0.1585
  895POPC   D2A10734   8.382  18.695  18.251 -0.1678 -0.0614  0.1049
  895POPC   C3A10735   8.212  18.523  17.889  0.2567  0.0510  0.2689
  895POPC   C4A10736   7.917  18.225  17.703 -0.3952  0.0062 -0.2965
  895POPC   C1B10737   7.623  19.059  18.421  0.3521 -0.0557  0.2288
  895POPC   C2B10738   7.461  19.302  18.057 -0.1218 -0.0272 -0.0501
  895POPC   C3B10739   7.639  19.460  17.645 -0.0633 -0.1939 -0.1565
  895POPC   C4B10740   7.587  19.721  17.254 -0.2239 -0.0522 -0.1953
  896POPC   NC310741  22.394  24.219  19.162  0.0664  0.1043  0.1165
  896POPC   PO410742  22.058  24.192  18.936 -0.2086 -0.2266 -0.3081
  896POPC   GL110743  22.158  23.962  18.530 -0.0677 -0.0850 -0.1969
  896POPC   GL210744  22.397  23.971  18.663 -0.2150  0.0891  0.2682
  896POPC   C1A10745  22.340  24.014  18.115  0.1197  0.1916  0.1525
  896POPC   D2A10746  22.422  23.903  17.682  0.1787  0.3071 -0.0892
  896POPC   C3A10747  22.566  24.245  17.415 -0.0763 -0.0176  0.0181
  896POPC   C4A10748  22.864  24.633  17.352 -0.1438 -0.1280  0.1998
  896POPC   C1B10749  22.591  24.265  18.484  0.1168 -0.1771 -0.1094
  896POPC   C2B10750  22.749  24.681  18.287 -0.0825 -0.2465  0.2009
  896POPC   C3B10751  23.083  24.785  18.037  0.2243 -0.4609 -0.1614
  896POPC   C4B10752  23.431  24.973  17.833  0.0209 -0.0642  0.0578
  897POPC   NC310753  29.585  28.980  19.702 -0.0195 -0.0068  0.1967
  897POPC   PO410754  29.889  29.095  19.433 -0.2963 -0.1455 -0.0861
  897POPC   GL110755  29.909  29.138  19.029  0.4994  0.3064 -0.0994
  897POPC   GL210756  29.926  28.863  18.960  0.1057 -0.1293 -0.0079
  897POPC   C1A10757  29.646  29.222  18.670  0.1175 -0.0829 -0.1532
  897POPC   D2A10758  29.492  29.226  18.251  0.2931  0.2240  0.0653
  897POPC   C3A10759  29.427  28.936  17.872 -0.0142 -0.0266 -0.2075
  897POPC   C4A10760  29.592  28.873  17.431 -0.1632  0.2144 -0.1313
  897POPC   C1B10761  30.045  28.981  18.499 -0.1793  0.1181 -0.3400
  897POPC   C2B10762  29.934  29.053  18.091  0.0835 -0.0324 -0.1213
  897POPC   C3B10763  29.763  29.222  17.690 -0.2907  0.0875  0.2061
  897POPC   C4B10764  29.484  29.428  17.443  0.1797 -0.1139  0.1175
  898POPC   NC310765  19.408   2.090  19.270  0.0979  0.1472  0.0654
  898POPC   PO410766  19.049   2.027  19.115 -0.0333 -0.1772 -0.2366
  898POPC   GL110767  18.812   2.065  18.870  0.2756  0.2869  0.3739
  898POPC   GL210768  18.734   2.369  18.837 -0.0351 -0.0038  0.1135
  898POPC   C1A10769  18.645   1.940  18.498 -0.1640  0.1180 -0.1179
  898POPC   D2A10770  18.438   1.950  18.117  0.0183  0.0924 -0.0807
  898POPC   C3A10771  18.551   1.984  17.667  0.0329 -0.0127  0.2071
  898POPC   C4A10772  18.274   1.930  17.258  0.0688  0.2367 -0.0295
  898POPC   C1B10773  18.854   2.376  18.388 -0.2016  0.2636  0.0135
  898POPC   C2B10774  18.876   2.088  17.990  0.2401 -0.2947 -0.2187
  898POPC   C3B10775  18.951   1.756  17.620 -0.1124  0.3387 -0.1494
  898POPC   C4B10776  18.922   1.834  17.190  0.1795  0.1953 -0.2641
  899POPC   NC310777  29.782  30.679  19.583 -0.0299  0.2947 -0.2931
  899POPC   PO410778  29.772  30.900  19.242  0.1474 -0.1375 -0.1619
  899POPC   GL110779  29.715  30.870  18.818  0.2435 -0.0917  0.3068
  899POPC   GL210780  29.963  30.989  18.636 -0.3973  0.2810 -0.0198
  899POPC   C1A10781  29.719  30.685  18.378 -0.1898 -0.0596 -0.0594
  899POPC   D2A10782  29.417  30.879  18.060  0.1225  0.1629 -0.0572
  899POPC   C3A10783  29.415  31.360  17.978  0.2396 -0.0740 -0.2053
  899POPC   C4A10784  29.283  31.756  17.735  0.2274 -0.1254  0.4715
  899POPC   C1B10785  30.335  30.957  18.327 -0.0684  0.0250  0.1643
  899POPC   C2B10786  30.491  30.901  17.898 -0.0123 -0.2630 -0.1919
  899POPC   C3B10787  30.619  30.956  17.505  0.0195  0.0361 -0.1539
  899POPC   C4B10788  30.741  31.102  17.135 -0.1122  0.0422 -0.2108
  900POPC   NC310789  15.026   9.051  18.946  0.0574  0.1852 -0.2465
  900POPC   PO410790  14.649   9.187  18.949  0.0573  0.2400 -0.0769
  900POPC   GL110791  14.835   9.410  18.667 -0.1017  0.1696 -0.3758
  900POPC   GL210792  15.066   9.612  18.685  0.2505  0.1495 -0.1479
  900POPC   C1A10793  14.767   9.657  18.283 -0.0545  0.0834 -0.1954
  900POPC   D2A10794  14.853   9.831  17.879  0.1923 -0.0795  0.0862
  900POPC   C3A10795  14.653  10.080  17.594  0.1078 -0.1020 -0.0325
  900POPC   C4A10796  14.757  10.186  17.186  0.0802 -0.0069 -0.2638
  900POPC   C1B10797  15.256   9.525  18.300 -0.1337  0.0106  0.1947
  900POPC   C2B10798  15.289   9.593  17.846  0.0463  0.0734 -0.2751
  900POPC   C3B10799  15.405   9.606  17.368 -0.1515 -0.3413  0.1330
  900POPC   C4B10800  15.653   9.675  16.953 -0.3819  0.4004  0.2312
  901POPC   NC310801   0.932  24.765  19.217 -0.0539  0.1027  0.0949
  901POPC   PO410802   1.045  24.416  19.277 -0.1303  0.0634  0.1349
  901POPC   GL110803   1.167  24.135  19.021 -0.1544  0.0637  0.2991
  901POPC   GL210804   1.420  23.991  18.926  0.0262 -0.0103 -0.0184
  901POPC   C1A10805   1.015  24.247  18.560  0.2268  0.1257 -0.1149
  901POPC   D2A10806   1.241  24.268  18.186  0.1035  0.0811  0.1501
  901POPC   C3A10807   1.141  24.508  17.861 -0.1157 -0.0444  0.0295
  901POPC   C4A10808   1.036  24.279  17.505  0.0791 -0.0018  0.2025
  901POPC   C1B10809   1.546  24.019  18.473  0.0148 -0.1505 -0.2702
  901POPC   C2B10810   1.664  23.792  18.086  0.0669  0.0877  0.1478
  901POPC   C3B10811   1.798  23.806  17.650 -0.3944 -0.3357  0.2830
  901POPC   C4B10812   1.591  23.712  17.267  0.1014 -0.1318  0.1077
  902POPC   NC310813  14.855   6.387  19.343 -0.0091  0.0411 -0.0805
  902POPC   PO410814  14.941   5.999  19.448 -0.1499  0.1584  0.1400
  902POPC   GL110815  14.873   5.969  19.006  0.3513 -0.1264 -0.0682
  902POPC   GL210816  14.602   6.069  19.030  0.0373  0.1904  0.0390
  902POPC   C1A10817  15.116   5.870  18.657 -0.0801 -0.0641 -0.2432
  902POPC   D2A10818  15.367   5.905  18.263  0.2005  0.0820  0.0073
  902POPC   C3A10819  15.327   5.647  17.884  0.0652 -0.2103 -0.0741
  902POPC   C4A10820  15.468   5.616  17.419 -0.3486  0.2347  0.0630
  902POPC   C1B10821  14.683   6.026  18.555 -0.2137 -0.1143 -0.0804
  902POPC   C2B10822  14.886   6.011  18.191  0.1159 -0.0322  0.1242
  902POPC   C3B10823  14.927   6.315  17.768 -0.0366  0.0147  0.4163
  902POPC   C4B10824  15.121   6.759  17.641  0.2108  0.2400 -0.0081
  903POPC   NC310825  22.876   3.728  18.743  0.1640 -0.2103 -0.1052
  903POPC   PO410826  22.793   4.149  18.855  0.2808 -0.4341 -0.0243
  903POPC   GL110827  22.765   4.270  18.625 -0.2931 -0.0714 -0.0190
  903POPC   GL210828  22.874   4.147  18.363 -0.0813 -0.4055 -0.1125
  903POPC   C1A10829  22.675   4.572  18.300  0.0766 -0.1225 -0.0823
  903POPC   D2A10830  22.685   4.745  17.857  0.0373  0.2753 -0.1463
  903POPC   C3A10831  22.924   4.701  17.480 -0.4604  0.0351 -0.0217
  903POPC   C4A10832  23.185   4.827  17.109 -0.3791 -0.3520 -0.0779
  903POPC   C1B10833  22.658   4.245  17.925 -0.2635  0.0613  0.2303
  903POPC   C2B10834  22.341   4.428  17.565  0.1743  0.0525 -0.3916
  903POPC   C3B10835  21.981   4.374  17.320 -0.1158 -0.1963  0.1999
  903POPC   C4B10836  21.548   4.510  17.466 -0.2439  0.0804 -0.0623
  904POPC   NC310837  25.537   9.578  19.800  0.0980  0.2484  0.1464
  904POPC   PO410838  25.456   9.534  19.374 -0.0935  0.0524  0.0291
  904POPC   GL110839  25.266   9.344  19.065 -0.0719 -0.1100  0.0787
  904POPC   GL210840  25.061   9.412  18.919 -0.1047 -0.1141 -0.1622
  904POPC   C1A10841  25.421   9.060  18.786  0.0126 -0.0090 -0.0944
  904POPC   D2A10842  25.485   9.025  18.286 -0.1374 -0.2911 -0.0772
  904POPC   C3A10843  25.356   9.056  17.875  0.1671 -0.2188  0.2744
  904POPC   C4A10844  25.240   9.228  17.466  0.1068  0.0064  0.0155
  904POPC   C1B10845  25.438   9.547  18.685  0.1962 -0.3548  0.2272
  904POPC   C2B10846  25.569   9.612  18.262 -0.2692  0.1223  0.0525
  904POPC   C3B10847  25.678   9.631  17.851  0.0053 -0.1776 -0.3700
  904POPC   C4B10848  25.766   9.769  17.447 -0.0264  0.0973 -0.2582
  905POPC   NC310849   1.730  30.193  19.072  0.0938 -0.0763  0.3400
  905POPC   PO410850   1.332  30.155  19.008 -0.0932  0.2439 -0.2289
  905POPC   GL110851   1.116  30.204  18.799 -0.1531 -0.2114  0.0543
  905POPC   GL210852   0.786  30.131  18.829 -0.2140 -0.3128  0.0878
  905POPC   C1A10853   1.098  30.448  18.376  0.0166 -0.0919 -0.0920
  905POPC   D2A10854   1.150  30.367  17.979  0.0728  0.3368 -0.2111
  905POPC   C3A10855   1.371  30.554  17.634 -0.1650  0.0058  0.0176
  905POPC   C4A10856   1.524  30.694  17.211  0.0413 -0.0013  0.0697
  905POPC   C1B10857   0.880  29.968  18.459  0.4063  0.1419 -0.0179
  905POPC   C2B10858   0.847  29.960  18.028  0.3100 -0.2514 -0.0655
  905POPC   C3B10859   0.972  30.060  17.504  0.0948 -0.1198 -0.0949
  905POPC   C4B10860   0.702  30.024  17.122 -0.0394  0.1633  0.1102
  906POPC   NC310861  25.673   3.203  18.903 -0.2627  0.2476  0.1219
  906POPC   PO410862  25.303   3.217  19.037  0.0505 -0.2417  0.0100
  906POPC   GL110863  25.033   3.213  18.688  0.1369 -0.3344  0.2688
  906POPC   GL210864  25.231   3.049  18.546 -0.1587  0.3517  0.0507
  906POPC   C1A10865  24.954   3.609  18.472  0.2871  0.1737  0.2947
  906POPC   D2A10866  24.798   3.922  18.162 -0.0223 -0.3649  0.0627
  906POPC   C3A10867  24.929   4.017  17.775 -0.5998 -0.1216  0.2546
  906POPC   C4A10868  25.261   4.377  17.681 -0.1875 -0.2794 -0.0069
  906POPC   C1B10869  24.997   2.858  18.188 -0.0898  0.1045 -0.2118
  906POPC   C2B10870  25.028   2.515  17.891 -0.0499 -0.0227  0.0400
  906POPC   C3B10871  25.252   2.137  17.854 -0.0245  0.0054 -0.0894
  906POPC   C4B10872  25.313   1.905  17.469  0.1008  0.0613  0.0943
  907POPC   NC310873  20.697  21.188  20.186 -0.1835 -0.2174  0.0071
  907POPC   PO410874  20.628  20.965  19.870 -0.1227  0.0922 -0.0145
  907POPC   GL110875  20.808  20.836  19.479  0.4235 -0.2352 -0.3107
  907POPC   GL210876  20.732  20.554  19.281  0.1601 -0.1044 -0.2924
  907POPC   C1A10877  21.245  20.701  19.522  0.1289 -0.0006  0.0788
  907POPC   D2A10878  21.568  20.406  19.608 -0.1618  0.1872 -0.2679
  907POPC   C3A10879  21.580  20.222  19.212  0.3735 -0.3087 -0.0322
  907POPC   C4A10880  21.457  19.865  18.970 -0.1200 -0.0564  0.2202
  907POPC   C1B10881  21.122  20.340  19.124  0.1486  0.0554 -0.2100
  907POPC   C2B10882  21.335  20.306  18.711 -0.0688  0.2379 -0.0149
  907POPC   C3B10883  21.259  20.624  18.430  0.1430 -0.0091  0.2103
  907POPC   C4B10884  20.983  21.042  18.378  0.1489  0.2671  0.0242
  908POPC   NC310885  27.763   7.770  19.433  0.1143  0.2148  0.1735
  908POPC   PO410886  27.567   7.442  19.329 -0.2943  0.4338 -0.2044
  908POPC   GL110887  27.568   7.679  19.027 -0.0356  0.1152 -0.1083
  908POPC   GL210888  27.306   7.716  18.874 -0.1000 -0.0474 -0.1399
  908POPC   C1A10889  27.681   7.607  18.593  0.0295 -0.0546  0.1930
  908POPC   D2A10890  27.729   7.834  18.156  0.1937  0.2304  0.1152
  908POPC   C3A10891  27.423   8.048  17.930  0.5354  0.2319 -0.3532
  908POPC   C4A10892  27.187   8.425  17.638  0.3056  0.0842 -0.0457
  908POPC   C1B10893  27.261   8.110  18.647  0.0629 -0.1110 -0.0860
  908POPC   C2B10894  27.069   8.300  18.283 -0.2436 -0.0950 -0.0214
  908POPC   C3B10895  26.794   8.425  17.984 -0.1206 -0.3006 -0.0211
  908POPC   C4B10896  26.568   8.433  17.581  0.1498  0.4569  0.1809
  909POPC   NC310897  21.653  16.508  19.158  0.1679  0.1755 -0.1719
  909POPC   PO410898  21.644  16.819  19.404  0.1243  0.0549  0.3328
  909POPC   GL110899  21.945  16.947  19.235  0.2810  0.2216 -0.1232
  909POPC   GL210900  22.030  16.800  18.981 -0.1262 -0.0230  0.1756
  909POPC   C1A10901  22.207  17.317  19.244 -0.1476 -0.1774 -0.2196
  909POPC   D2A10902  22.545  17.606  19.151  0.0176  0.0680 -0.2709
  909POPC   C3A10903  22.962  17.455  19.384 -0.2525  0.1284  0.0381
  909POPC   C4A10904  23.416  17.416  19.417 -0.3773 -0.1565  0.0512
  909POPC   C1B10905  22.328  17.154  18.716 -0.0950 -0.0670  0.0898
  909POPC   C2B10906  22.642  17.432  18.684  0.0645 -0.1292  0.0449
  909POPC   C3B10907  23.017  17.602  18.848 -0.1593 -0.1840 -0.0103
  909POPC   C4B10908  23.263  17.848  19.132 -0.0474 -0.0113 -0.0498
  910POPC   NC310909   7.037   9.288  18.733 -0.0187 -0.1746 -0.1430
  910POPC   PO410910   7.326   9.253  19.012  0.1331 -0.1543 -0.1689
  910POPC   GL110911   7.397   9.034  18.717 -0.4261 -0.2279  0.2130
  910POPC   GL210912   7.659   9.210  18.579 -0.2095  0.2554  0.0884
  910POPC   C1A10913   7.318   9.177  18.237 -0.0156  0.2691 -0.1035
  910POPC   D2A10914   7.295   9.226  17.781 -0.1851 -0.0941  0.2076
  910POPC   C3A10915   6.957   9.144  17.438 -0.2629  0.1171 -0.1813
  910POPC   C4A10916   6.572   9.005  17.169  0.1149 -0.0274 -0.2775
  910POPC   C1B10917   7.875   9.187  18.181 -0.0129  0.1071 -0.0707
  910POPC   C2B10918   8.163   9.267  17.889 -0.2412 -0.2097  0.0007
  910POPC   C3B10919   8.536   9.294  17.594  0.0056  0.1524 -0.0608
  910POPC   C4B10920   8.762   9.484  17.282 -0.1010  0.0810  0.0545
  911POPC   NC310921   9.494   3.689  19.090 -0.0112  0.0204  0.0546
  911POPC   PO410922   9.615   3.363  19.309 -0.3772 -0.1093  0.3168
  911POPC   GL110923   9.669   3.290  18.903 -0.0755 -0.0949 -0.0167
  911POPC   GL210924   9.924   3.308  18.805  0.1306 -0.1593 -0.1277
  911POPC   C1A10925   9.596   2.840  18.782 -0.0672  0.2333 -0.1578
  911POPC   D2A10926   9.393   2.398  18.628  0.2190 -0.4187  0.0938
  911POPC   C3A10927   9.342   2.182  18.212  0.1826  0.0227  0.1731
  911POPC   C4A10928   9.134   2.181  17.794 -0.1171  0.0038  0.4065
  911POPC   C1B10929   9.663   3.273  18.399  0.0327 -0.2758 -0.1361
  911POPC   C2B10930   9.315   3.317  18.060 -0.1704 -0.1922 -0.2522
  911POPC   C3B10931   9.116   3.146  17.635 -0.1508  0.2945 -0.1759
  911POPC   C4B10932   8.759   2.906  17.587  0.1523  0.1917  0.2166
  912POPC   NC310933   3.136  10.362  19.404  0.4688 -0.0459 -0.0576
  912POPC   PO410934   3.354  10.657  19.307  0.3389  0.0241  0.2136
  912POPC   GL110935   3.172  10.679  18.949  0.1560 -0.1958 -0.0809
  912POPC   GL210936   3.208  10.453  18.802 -0.0662  0.0986 -0.0987
  912POPC   C1A10937   2.756  10.634  18.769 -0.0037  0.0678  0.1920
  912POPC   D2A10938   2.475  10.817  18.463  0.4504  0.5575 -0.1682
  912POPC   C3A10939   2.479  10.770  18.009  0.3451 -0.0754  0.2020
  912POPC   C4A10940   2.515  11.176  17.720  0.1260  0.0836 -0.3694
  912POPC   C1B10941   3.012  10.406  18.379 -0.0079 -0.0386  0.1809
  912POPC   C2B10942   2.927  10.596  17.992  0.2692 -0.0459 -0.0919
  912POPC   C3B10943   2.906  10.953  17.691 -0.1247 -0.3195  0.1969
  912POPC   C4B10944   2.812  11.198  17.301  0.2139 -0.2380  0.1143
  913POPC   NC310945   6.227   6.322  19.506  0.2211  0.4126  0.1314
  913POPC   PO410946   6.535   6.033  19.483  0.2039 -0.1017  0.1057
  913POPC   GL110947   6.535   6.102  19.097  0.3838  0.2565  0.0860
  913POPC   GL210948   6.713   5.952  18.946 -0.0157  0.2236 -0.0539
  913POPC   C1A10949   6.240   5.875  18.785 -0.0066 -0.1538  0.1902
  913POPC   D2A10950   6.139   5.956  18.320  0.1940  0.1777  0.2952
  913POPC   C3A10951   5.712   5.943  18.125  0.2386  0.2188  0.0934
  913POPC   C4A10952   5.341   5.844  17.897 -0.0177  0.0235 -0.0872
  913POPC   C1B10953   6.661   5.885  18.458  0.2813  0.1546  0.1626
  913POPC   C2B10954   6.653   5.870  18.006  0.0652 -0.0530 -0.1565
  913POPC   C3B10955   6.688   5.662  17.598 -0.2756 -0.1879 -0.0367
  913POPC   C4B10956   6.818   5.722  17.215  0.0472  0.1841  0.1295
  914POPC   NC310957  30.472   9.533  19.121  0.2641 -0.1109 -0.0670
  914POPC   PO410958  30.649   9.272  19.287 -0.1429 -0.0810 -0.0884
  914POPC   GL110959  30.849   9.089  18.980 -0.2016  0.1205 -0.0343
  914POPC   GL210960  30.653   8.949  18.811  0.1087  0.1507  0.3564
  914POPC   C1A10961  31.159   9.207  18.652  0.1882 -0.1125  0.3249
  914POPC   D2A10962  31.183   9.627  18.429 -0.4564 -0.0191 -0.0726
  914POPC   C3A10963  31.289  10.072  18.243  0.1574  0.1416 -0.0665
  914POPC   C4A10964  31.166  10.505  18.221 -0.0778 -0.0074 -0.1894
  914POPC   C1B10965  30.756   9.100  18.398 -0.0029  0.4308  0.0568
  914POPC   C2B10966  30.994   9.256  18.049 -0.0157 -0.0250  0.3266
  914POPC   C3B10967  31.149   9.669  17.852  0.1960 -0.2041  0.1657
  914POPC   C4B10968  31.177  10.132  17.763 -0.2870  0.1096 -0.1714
  915POPC   NC310969  24.514  28.587  19.354 -0.2206  0.0083  0.2307
  915POPC   PO410970  24.499  28.216  19.499 -0.1121 -0.0636 -0.2137
  915POPC   GL110971  24.804  28.246  19.223 -0.0889 -0.3426 -0.1934
  915POPC   GL210972  24.721  28.141  19.062 -0.0505 -0.0941  0.0668
  915POPC   C1A10973  24.810  28.542  18.811 -0.2210  0.2003 -0.1794
  915POPC   D2A10974  24.865  28.373  18.362 -0.0523 -0.2526  0.1593
  915POPC   C3A10975  24.535  28.391  17.920 -0.2097  0.0782  0.1900
  915POPC   C4A10976  24.481  28.215  17.508  0.1793  0.0643  0.0517
  915POPC   C1B10977  24.493  28.150  18.638  0.1039  0.4239  0.1459
  915POPC   C2B10978  24.603  27.976  18.251  0.1293  0.1080 -0.1656
  915POPC   C3B10979  24.664  27.801  17.781 -0.1384 -0.0249 -0.3356
  915POPC   C4B10980  24.800  27.713  17.329  0.2842 -0.2337 -0.0739
  916POPC   NC310981  13.805  18.219  19.084 -0.2167 -0.0023 -0.0264
  916POPC   PO410982  13.612  18.429  18.850  0.1125  0.1844 -0.1631
  916POPC   GL110983  13.408  18.700  18.545  0.0486  0.0760 -0.1257
  916POPC   GL210984  13.130  18.587  18.530 -0.0042 -0.2515 -0.1265
  916POPC   C1A10985  13.213  18.858  18.122  0.1071 -0.4673  0.0781
  916POPC   D2A10986  13.182  19.036  17.694  0.0515  0.1193 -0.1480
  916POPC   C3A10987  13.155  18.772  17.362  0.0796  0.1869  0.0573
  916POPC   C4A10988  13.289  18.668  16.975  0.1655 -0.0754  0.0394
  916POPC   C1B10989  13.100  18.334  18.174 -0.0601 -0.1551  0.1160
  916POPC   C2B10990  13.084  18.216  17.730  0.2524 -0.0694 -0.0215
  916POPC   C3B10991  12.957  18.230  17.268  0.0696  0.0077 -0.1345
  916POPC   C4B10992  13.104  18.247  16.853 -0.0061  0.1789 -0.0545
  917POPC   NC310993   1.410  12.081  19.319 -0.2202 -0.2136  0.1631
  917POPC   PO410994   1.734  11.920  19.441 -0.1180 -0.2809 -0.2764
  917POPC   GL110995   1.885  11.888  19.063 -0.1948  0.0071 -0.0081
  917POPC   GL210996   1.846  12.146  19.012 -0.1331  0.1107  0.0931
  917POPC   C1A10997   1.596  11.674  18.736 -0.0972 -0.2124  0.0168
  917POPC   D2A10998   1.434  11.618  18.359  0.1018 -0.2020 -0.1536
  917POPC   C3A10999   1.688  11.452  17.925 -0.0022 -0.1013  0.0420
  917POPC   C4A11000   2.059  11.539  17.660  0.0688  0.2418 -0.0071
  917POPC   C1B11001   1.810  12.168  18.560 -0.2149 -0.0596 -0.0808
  917POPC   C2B11002   1.754  12.452  18.193 -0.1791 -0.0388 -0.1517
  917POPC   C3B11003   1.836  12.402  17.798  0.0095 -0.1148 -0.0610
  917POPC   C4B11004   2.008  12.479  17.374  0.0673  0.1257  0.0702
  918POPC   NC311005  25.975  13.664  19.141 -0.2600  0.2582  0.0439
  918POPC   PO411006  26.042  14.018  18.992 -0.0343 -0.0219  0.0005
  918POPC   GL111007  26.017  13.747  18.653  0.0015 -0.1176 -0.2455
  918POPC   GL211008  26.283  13.976  18.510  0.1996  0.3663  0.0481
  918POPC   C1A11009  26.044  13.686  18.167  0.0467  0.1250 -0.3004
  918POPC   D2A11010  26.285  13.759  17.806 -0.2166 -0.0472 -0.2249
  918POPC   C3A11011  26.445  14.148  17.611 -0.0007 -0.2354 -0.2271
  918POPC   C4A11012  26.768  14.147  17.221 -0.1387  0.0567  0.1354
  918POPC   C1B11013  26.148  14.172  18.068  0.2890 -0.0202 -0.3505
  918POPC   C2B11014  25.962  14.216  17.616  0.1162  0.0309 -0.2992
  918POPC   C3B11015  26.105  13.906  17.339  0.0989  0.2740 -0.0073
  918POPC   C4B11016  26.284  13.785  16.974 -0.1300  0.0008  0.2633
  919POPC   NC311017  29.686  26.581  19.431  0.0317  0.2760  0.0033
  919POPC   PO411018  29.297  26.664  19.452  0.0800 -0.0459  0.0730
  919POPC   GL111019  29.301  26.932  19.084 -0.2450 -0.1647  0.1609
  919POPC   GL211020  29.149  27.158  19.034 -0.1591 -0.1529 -0.1514
  919POPC   C1A11021  29.436  26.877  18.641  0.0955 -0.1081 -0.2080
  919POPC   D2A11022  29.669  27.160  18.449  0.1800  0.1697 -0.0257
  919POPC   C3A11023  29.704  27.118  17.980 -0.0813  0.2116 -0.4121
  919POPC   C4A11024  29.848  27.089  17.560  0.1558 -0.0409  0.0675
  919POPC   C1B11025  28.849  26.891  18.821 -0.0086  0.2676 -0.2008
  919POPC   C2B11026  28.572  26.764  18.496  0.1534  0.1567  0.1972
  919POPC   C3B11027  28.406  26.711  18.084  0.1592 -0.0005  0.0069
  919POPC   C4B11028  28.558  26.841  17.708 -0.0164 -0.2006 -0.0843
  920POPC   NC311029  20.338  15.674  18.936 -0.0402 -0.1643 -0.1144
  920POPC   PO411030  20.517  16.082  18.978  0.2286 -0.2443 -0.0104
  920POPC   GL111031  20.663  15.918  18.698  0.2553  0.2252  0.2888
  920POPC   GL211032  20.821  15.733  18.676  0.1076  0.2012  0.0060
  920POPC   C1A11033  20.510  15.683  18.326  0.0415 -0.1550  0.0210
  920POPC   D2A11034  20.542  15.726  17.825 -0.0674  0.2517 -0.1389
  920POPC   C3A11035  20.402  15.483  17.439 -0.0364 -0.0926 -0.1210
  920POPC   C4A11036  20.313  15.187  17.106 -0.2135  0.3246  0.0170
  920POPC   C1B11037  21.137  15.878  18.427  0.0807 -0.0359  0.0405
  920POPC   C2B11038  21.401  16.005  18.055 -0.1232 -0.3408 -0.1064
  920POPC   C3B11039  21.830  16.075  17.823 -0.0963 -0.0275  0.1969
  920POPC   C4B11040  22.021  15.875  17.448 -0.3269  0.0285 -0.0365
  921POPC   NC311041  12.978  17.072  18.814  0.1093  0.0740 -0.0645
  921POPC   PO411042  12.636  17.115  19.077 -0.5195  0.3290  0.0906
  921POPC   GL111043  12.508  16.931  18.787  0.3692 -0.4025  0.3605
  921POPC   GL211044  12.240  17.031  18.768  0.1159 -0.2642 -0.2134
  921POPC   C1A11045  12.781  16.950  18.359  0.0143 -0.3233 -0.2178
  921POPC   D2A11046  13.148  17.192  18.156  0.4242 -0.0960 -0.0352
  921POPC   C3A11047  13.146  17.154  17.689  0.1968 -0.0152  0.0495
  921POPC   C4A11048  13.027  16.997  17.267  0.2390  0.0297 -0.1013
  921POPC   C1B11049  12.280  16.691  18.508 -0.2978 -0.0199 -0.3952
  921POPC   C2B11050  11.987  16.426  18.277  0.2173  0.0864  0.0785
  921POPC   C3B11051  11.814  16.443  17.785 -0.0371  0.1597  0.0611
  921POPC   C4B11052  11.709  16.057  17.556 -0.0098  0.4103 -0.1145
  922POPC   NC311053  13.070  13.470  19.294 -0.2174  0.1505  0.1392
  922POPC   PO411054  13.159  13.168  19.545  0.1407 -0.0128  0.0904
  922POPC   GL111055  13.030  13.004  19.198 -0.3795  0.1129 -0.1938
  922POPC   GL211056  12.738  12.948  19.341  0.1029  0.1349  0.2067
  922POPC   C1A11057  13.019  13.142  18.747  0.1383  0.1164 -0.5478
  922POPC   D2A11058  12.967  13.127  18.308  0.0426 -0.0306 -0.1129
  922POPC   C3A11059  12.737  12.859  18.020  0.1418  0.0141  0.1226
  922POPC   C4A11060  12.553  12.478  18.077  0.1172  0.1835  0.0477
  922POPC   C1B11061  12.634  12.867  18.926  0.0401 -0.1217  0.1108
  922POPC   C2B11062  12.767  12.773  18.530  0.1156  0.1789 -0.0070
  922POPC   C3B11063  12.974  12.490  18.286 -0.0723  0.1671 -0.1457
  922POPC   C4B11064  12.955  12.104  18.035 -0.2694 -0.3248 -0.0779
  923POPC   NC311065  16.153  14.371  19.973  0.0193  0.0730  0.0764
  923POPC   PO411066  16.129  14.528  19.617  0.0121  0.0080 -0.1080
  923POPC   GL111067  16.054  14.745  19.349  0.1869 -0.1368  0.1620
  923POPC   GL211068  16.375  14.806  19.284  0.0849  0.0570  0.1500
  923POPC   C1A11069  16.017  14.939  18.962 -0.0127  0.0754  0.1607
  923POPC   D2A11070  16.076  15.176  18.558 -0.1032  0.1864 -0.2664
  923POPC   C3A11071  16.531  15.134  18.500 -0.0795  0.1619 -0.1937
  923POPC   C4A11072  16.804  14.816  18.350  0.0689 -0.1076  0.0298
  923POPC   C1B11073  16.589  14.882  18.931 -0.2047  0.2581 -0.0449
  923POPC   C2B11074  17.019  14.732  18.763  0.1337 -0.0147  0.0931
  923POPC   C3B11075  17.342  14.397  18.643 -0.3981 -0.0011 -0.2782
  923POPC   C4B11076  17.505  13.991  18.792 -0.1170  0.2032  0.4583
  924POPC   NC311077   6.470   7.152  19.335  0.0310 -0.0196 -0.2560
  924POPC   PO411078   6.210   7.113  19.050  0.0379 -0.1046 -0.0980
  924POPC   GL111079   6.198   7.027  18.703 -0.3234 -0.0942  0.2753
  924POPC   GL211080   6.109   6.774  18.701  0.1923 -0.1759  0.0789
  924POPC   C1A11081   6.244   6.925  18.276  0.2129 -0.1026  0.5948
  924POPC   D2A11082   6.549   6.776  17.949 -0.4527 -0.0185  0.1199
  924POPC   C3A11083   6.378   6.834  17.514 -0.0803  0.0072  0.0308
  924POPC   C4A11084   6.573   6.635  17.127  0.0818 -0.0215  0.1534
  924POPC   C1B11085   5.957   6.510  18.344  0.0384 -0.1732  0.3190
  924POPC   C2B11086   5.811   6.554  17.834 -0.3408  0.1202  0.1947
  924POPC   C3B11087   5.660   6.650  17.397 -0.2579  0.1033  0.0455
  924POPC   C4B11088   5.656   6.668  16.895 -0.0995 -0.0063 -0.0125
  925POPC   NC311089  21.299  31.274  19.461  0.1222 -0.2165  0.1361
  925POPC   PO411090  21.618  31.495  19.398 -0.0210 -0.0241  0.1064
  925POPC   GL111091  21.552  31.451  18.996 -0.0236 -0.1320 -0.0214
  925POPC   GL211092  21.241  31.466  18.977 -0.0576  0.1790  0.3076
  925POPC   C1A11093  21.496  31.116  18.722 -0.2851  0.0251  0.1106
  925POPC   D2A11094  21.740  30.768  18.551 -0.0973 -0.0159  0.2258
  925POPC   C3A11095  21.732  30.411  18.309  0.3271  0.2806  0.3605
  925POPC   C4A11096  21.670  30.000  18.035 -0.0250 -0.0752 -0.1918
  925POPC   C1B11097  21.202  31.457  18.546  0.3263 -0.0150 -0.4857
  925POPC   C2B11098  21.165  31.452  18.092 -0.0039  0.1282  0.2292
  925POPC   C3B11099  21.207  31.676  17.713 -0.0708 -0.0277  0.2948
  925POPC   C4B11100  21.116  31.907  17.314  0.0245 -0.1510  0.0824
  926POPC   NC311101   1.500  18.698  19.016 -0.0257  0.0387 -0.1129
  926POPC   PO411102   1.246  18.643  19.294 -0.0209 -0.3866 -0.0323
  926POPC   GL111103   0.952  18.830  19.043 -0.4975  0.1252 -0.1784
  926POPC   GL211104   1.075  18.822  18.824  0.3080 -0.1019  0.0991
  926POPC   C1A11105   0.679  19.172  18.885  0.0696  0.0764  0.2125
  926POPC   D2A11106   0.412  19.506  18.770  0.3062  0.0237  0.0555
  926POPC   C3A11107   0.324  19.344  18.319 -0.3215 -0.0952 -0.2521
  926POPC   C4A11108   0.409  19.234  17.893  0.1387  0.4072 -0.3297
  926POPC   C1B11109   1.155  18.688  18.448 -0.0879 -0.0695  0.1227
  926POPC   C2B11110   1.071  18.634  17.969  0.0420  0.0788 -0.1409
  926POPC   C3B11111   1.143  18.411  17.568  0.1537 -0.2416 -0.3367
  926POPC   C4B11112   1.474  18.256  17.221 -0.0292  0.1073 -0.1137
  927POPC   NC311113  24.059  19.995  19.388 -0.2544  0.0654  0.2038
  927POPC   PO411114  23.837  20.282  19.492 -0.1627 -0.0408 -0.0047
  927POPC   GL111115  23.791  20.270  19.108 -0.2207  0.1739  0.0907
  927POPC   GL211116  23.629  20.505  19.041  0.0780  0.0872  0.3459
  927POPC   C1A11117  23.427  20.006  18.921  0.1047 -0.0310 -0.0431
  927POPC   D2A11118  23.102  19.837  18.670  0.1289  0.2064 -0.1054
  927POPC   C3A11119  23.080  19.516  18.294 -0.0748  0.3426  0.5195
  927POPC   C4A11120  22.791  19.182  18.098 -0.0758 -0.1024 -0.2762
  927POPC   C1B11121  23.733  20.173  18.614  0.2186  0.2345  0.0964
  927POPC   C2B11122  23.560  19.871  18.258 -0.1506  0.0587 -0.0147
  927POPC   C3B11123  23.348  19.720  17.945  0.1120  0.1679  0.2435
  927POPC   C4B11124  22.860  19.746  17.925  0.2368  0.0888  0.2765
  928POPC   NC311125  17.559   2.288  19.284  0.2584  0.2524  0.0910
  928POPC   PO411126  17.196   2.429  19.214  0.1035  0.1043 -0.0564
  928POPC   GL111127  17.066   2.527  18.808 -0.0666  0.5055  0.0835
  928POPC   GL211128  16.812   2.556  18.779  0.0796 -0.1326 -0.0933
  928POPC   C1A11129  16.998   2.240  18.387  0.4740  0.1646  0.3025
  928POPC   D2A11130  16.861   1.806  18.220  0.0048  0.0169  0.3900
  928POPC   C3A11131  16.997   1.821  17.751 -0.2000 -0.2752  0.4308
  928POPC   C4A11132  17.088   1.801  17.278  0.3428  0.0396 -0.0190
  928POPC   C1B11133  16.941   2.789  18.390  0.3212  0.3156 -0.3361
  928POPC   C2B11134  16.877   2.937  17.962 -0.0577 -0.0822  0.0164
  928POPC   C3B11135  17.005   2.834  17.484 -0.3003 -0.0326 -0.2226
  928POPC   C4B11136  17.082   2.749  17.032 -0.0556 -0.0937  0.1254
  929POPC   NC311137  23.288  22.378  18.954  0.1929 -0.4816  0.0817
  929POPC   PO411138  23.419  22.655  19.201  0.0083 -0.0073  0.0383
  929POPC   GL111139  23.573  22.759  18.785  0.1358 -0.2675 -0.2780
  929POPC   GL211140  23.793  22.945  18.735  0.0276 -0.0817 -0.2000
  929POPC   C1A11141  23.491  22.709  18.310  0.1623 -0.0571 -0.2365
  929POPC   D2A11142  23.488  22.875  17.871 -0.0150  0.1193 -0.2440
  929POPC   C3A11143  23.713  22.873  17.433  0.1982  0.0438 -0.0595
  929POPC   C4A11144  23.690  23.231  17.090  0.0525 -0.1413  0.1547
  929POPC   C1B11145  23.849  23.059  18.299 -0.0307  0.2501  0.1701
  929POPC   C2B11146  23.988  23.158  17.894  0.2100  0.1422 -0.1916
  929POPC   C3B11147  24.025  23.352  17.417  0.1673 -0.1235 -0.0088
  929POPC   C4B11148  24.091  23.500  17.003 -0.2752 -0.1622 -0.0102
  930POPC   NC311149  28.591  11.670  19.542 -0.0731 -0.1435  0.5657
  930POPC   PO411150  28.621  11.294  19.352 -0.0217 -0.0585  0.1733
  930POPC   GL111151  29.020  11.169  19.169  0.0284 -0.2708 -0.1994
  930POPC   GL211152  29.016  11.423  18.997 -0.3260 -0.2580 -0.3973
  930POPC   C1A11153  29.264  11.095  18.808 -0.2318  0.3277 -0.0748
  930POPC   D2A11154  29.315  10.871  18.425 -0.1571  0.2781  0.0768
  930POPC   C3A11155  29.296  11.127  18.004 -0.1228 -0.0453 -0.2510
  930POPC   C4A11156  29.125  11.208  17.568  0.0320  0.3802  0.0325
  930POPC   C1B11157  28.678  11.435  18.627 -0.1462 -0.0883 -0.3018
  930POPC   C2B11158  28.705  11.398  18.225 -0.0516 -0.2447 -0.0143
  930POPC   C3B11159  28.566  11.368  17.770  0.0749  0.3791  0.1835
  930POPC   C4B11160  28.739  11.361  17.293 -0.0353 -0.2617 -0.1727
  931POPC   NC311161  21.066  15.257  18.953 -0.1821  0.1942  0.2139
  931POPC   PO411162  21.296  15.575  18.914 -0.1674 -0.0699  0.2874
  931POPC   GL111163  21.445  15.319  18.595 -0.1747 -0.3711  0.1407
  931POPC   GL211164  21.620  15.209  18.758 -0.1952 -0.0626 -0.0331
  931POPC   C1A11165  21.532  15.528  18.216  0.0792 -0.0064 -0.1615
  931POPC   D2A11166  21.708  15.577  17.788 -0.0844 -0.1358  0.0218
  931POPC   C3A11167  21.384  15.806  17.523  0.2299  0.1632 -0.1882
  931POPC   C4A11168  21.165  15.768  17.090  0.1143  0.0143 -0.3176
  931POPC   C1B11169  22.019  15.457  18.711 -0.5134 -0.2465  0.0246
  931POPC   C2B11170  22.359  15.433  18.331 -0.0579  0.1320 -0.1210
  931POPC   C3B11171  22.671  15.641  18.076  0.0008  0.0483  0.1702
  931POPC   C4B11172  23.147  15.604  18.098  0.1509  0.1251  0.1042
  932POPC   NC311173  20.248  23.431  19.282 -0.0793  0.0651  0.1780
  932POPC   PO411174  20.615  23.326  19.070  0.2270 -0.1712  0.2904
  932POPC   GL111175  20.761  23.188  18.691 -0.1403 -0.0911  0.0358
  932POPC   GL211176  21.046  23.329  18.652  0.1622 -0.2436 -0.4343
  932POPC   C1A11177  20.767  23.168  18.186 -0.1423  0.0088 -0.1931
  932POPC   D2A11178  21.150  23.392  17.942  0.1382  0.0844  0.2280
  932POPC   C3A11179  21.056  23.294  17.459  0.0440 -0.0951 -0.2566
  932POPC   C4A11180  21.109  23.594  17.091 -0.0669 -0.0161  0.0615
  932POPC   C1B11181  21.081  23.676  18.346 -0.1234  0.1748  0.0060
  932POPC   C2B11182  20.967  23.882  17.965 -0.0281  0.2443  0.0012
  932POPC   C3B11183  20.757  23.872  17.581 -0.0174 -0.0643  0.1260
  932POPC   C4B11184  20.749  23.902  17.145  0.0980  0.1872 -0.1942
  933POPC   NC311185  22.721   1.168  19.328  0.0178 -0.0120  0.0679
  933POPC   PO411186  23.085   1.019  19.227 -0.0184  0.0393 -0.2187
  933POPC   GL111187  22.913   0.736  18.929  0.2107  0.0322  0.0268
  933POPC   GL211188  22.729   0.503  19.120 -0.0580 -0.0989 -0.0435
  933POPC   C1A11189  22.960   0.605  18.534  0.0162  0.0037  0.2108
  933POPC   D2A11190  23.083   0.610  18.107  0.2377 -0.0415 -0.1695
  933POPC   C3A11191  23.137   0.568  17.633  0.0622 -0.0294  0.0230
  933POPC   C4A11192  23.214   0.369  17.166  0.0216  0.0365 -0.1219
  933POPC   C1B11193  22.772   0.180  18.757 -0.3793  0.3059 -0.3296
  933POPC   C2B11194  22.644   0.175  18.335  0.1191  0.3329  0.0606
  933POPC   C3B11195  22.787   0.223  17.885  0.2273  0.2670 -0.1277
  933POPC   C4B11196  22.624   0.409  17.458  0.0317 -0.0001  0.0648
  934POPC   NC311197  25.657   8.046  19.149 -0.2118 -0.0458  0.3300
  934POPC   PO411198  25.243   8.169  19.224  0.1270 -0.1341 -0.1338
  934POPC   GL111199  25.268   8.009  18.933  0.3590 -0.2301  0.1826
  934POPC   GL211200  24.975   8.018  18.765  0.0254  0.1206  0.0416
  934POPC   C1A11201  25.433   8.037  18.509 -0.0454 -0.1058 -0.0328
  934POPC   D2A11202  25.582   8.166  18.077  0.2627 -0.2181 -0.0405
  934POPC   C3A11203  25.911   7.877  17.871 -0.4608 -0.0895  0.0588
  934POPC   C4A11204  26.094   7.539  17.610  0.1087 -0.2247  0.0621
  934POPC   C1B11205  25.026   8.306  18.380 -0.2248  0.1980 -0.0568
  934POPC   C2B11206  25.058   8.138  17.926 -0.1587 -0.3806 -0.0618
  934POPC   C3B11207  25.072   7.845  17.561  0.0475 -0.4133  0.0540
  934POPC   C4B11208  24.893   7.605  17.284 -0.0890  0.0176  0.0176
  935POPC   NC311209   0.853   8.343  19.491  0.4405 -0.1318  0.1992
  935POPC   PO411210   1.208   8.305  19.356  0.3687 -0.2987 -0.0602
  935POPC   GL111211   1.133   8.289  18.949  0.3781 -0.0655  0.2069
  935POPC   GL211212   1.198   8.580  18.884 -0.0377  0.2288 -0.0568
  935POPC   C1A11213   1.126   7.880  18.684 -0.1653 -0.1035  0.0107
  935POPC   D2A11214   0.991   7.487  18.383 -0.2892  0.1184 -0.1796
  935POPC   C3A11215   1.256   7.129  18.253  0.2890 -0.0177  0.2372
  935POPC   C4A11216   1.666   7.007  18.352  0.1653  0.3761 -0.0384
  935POPC   C1B11217   1.075   8.726  18.416 -0.0401  0.0194  0.2895
  935POPC   C2B11218   0.965   8.828  17.988 -0.1411 -0.1322  0.1000
  935POPC   C3B11219   0.694   9.162  17.847 -0.1256  0.2622 -0.1923
  935POPC   C4B11220   0.712   9.472  17.529 -0.0508 -0.0496  0.0018
  936POPC   NC311221  12.646  20.759  19.735  0.0549  0.1879  0.0073
  936POPC   PO411222  12.851  20.854  19.446  0.0044 -0.2136  0.4594
  936POPC   GL111223  13.006  20.794  19.048  0.1956  0.1738  0.1079
  936POPC   GL211224  13.273  20.571  18.953  0.0315 -0.1961  0.1840
  936POPC   C1A11225  13.131  21.036  18.680 -0.1169 -0.4532  0.0461
  936POPC   D2A11226  13.454  21.059  18.349 -0.0126  0.0168 -0.1335
  936POPC   C3A11227  13.441  20.871  17.911  0.0714  0.2299 -0.0827
  936POPC   C4A11228  13.321  20.584  17.535  0.2153  0.0880 -0.3749
  936POPC   C1B11229  13.318  20.605  18.472  0.2720  0.2931 -0.0616
  936POPC   C2B11230  13.364  20.442  18.053  0.0151  0.0246  0.2359
  936POPC   C3B11231  13.716  20.250  17.870  0.0990 -0.3147 -0.1885
  936POPC   C4B11232  14.011  19.986  18.133  0.1959  0.3093  0.1318
  937POPC   NC311233   7.436  31.169  19.666  0.0928  0.2040  0.2671
  937POPC   PO411234   7.746  30.884  19.568  0.0140 -0.0296  0.0720
  937POPC   GL111235   7.697  30.822  19.164 -0.2118 -0.1467  0.0431
  937POPC   GL211236   7.510  30.755  19.015  0.4523  0.3586  0.0550
  937POPC   C1A11237   7.774  31.166  18.886  0.4628  0.0968  0.0095
  937POPC   D2A11238   7.893  31.159  18.421  0.2173 -0.1312 -0.1660
  937POPC   C3A11239   7.630  31.165  18.038  0.0856 -0.0466  0.1480
  937POPC   C4A11240   7.540  30.898  17.717  0.0408  0.0935  0.0584
  937POPC   C1B11241   7.434  30.397  18.691 -0.0381  0.1151 -0.1356
  937POPC   C2B11242   7.293  30.077  18.359 -0.0150  0.0990 -0.4400
  937POPC   C3B11243   7.188  29.882  17.942  0.1387  0.1224 -0.0976
  937POPC   C4B11244   7.180  29.797  17.515 -0.0292 -0.1156  0.2016
  938POPC   NC311245  20.969  17.150  18.899  0.1257 -0.2076 -0.1060
  938POPC   PO411246  21.098  17.167  18.523  0.2086  0.1619  0.3090
  938POPC   GL111247  21.230  17.383  18.139  0.4193 -0.1668 -0.2684
  938POPC   GL211248  21.266  17.049  18.055 -0.1203  0.0559  0.1084
  938POPC   C1A11249  21.680  17.533  17.991  0.0910  0.2372  0.0962
  938POPC   D2A11250  21.865  17.987  17.907  0.0926 -0.1017 -0.3262
  938POPC   C3A11251  22.291  18.179  17.815 -0.0678  0.2599 -0.0836
  938POPC   C4A11252  22.462  18.371  17.477  0.0749 -0.1741 -0.0175
  938POPC   C1B11253  21.727  16.993  17.985 -0.1323  0.0455 -0.1704
  938POPC   C2B11254  22.046  17.179  17.760  0.1191 -0.0690  0.2350
  938POPC   C3B11255  22.157  17.625  17.667  0.2187  0.0753  0.1613
  938POPC   C4B11256  22.492  17.816  17.361  0.0534 -0.0654 -0.0996
  939POPC   NC311257   2.553   9.546  19.532 -0.2986 -0.1561 -0.1487
  939POPC   PO411258   2.952   9.566  19.484 -0.2306 -0.1493  0.0384
  939POPC   GL111259   2.818   9.781  19.123 -0.0864  0.3392 -0.0994
  939POPC   GL211260   2.814  10.123  19.105 -0.0118 -0.1787  0.2752
  939POPC   C1A11261   2.908   9.664  18.713 -0.0963 -0.0759  0.1765
  939POPC   D2A11262   3.076   9.577  18.301 -0.1727  0.1729  0.2407
  939POPC   C3A11263   3.045   9.333  17.921 -0.1621  0.0053  0.1875
  939POPC   C4A11264   3.028   9.156  17.476  0.3388 -0.1120  0.0388
  939POPC   C1B11265   2.664  10.138  18.663 -0.0106 -0.0939 -0.1079
  939POPC   C2B11266   2.733   9.982  18.192 -0.3012 -0.3079  0.2149
  939POPC   C3B11267   2.877   9.804  17.808  0.0794  0.1763  0.4069
  939POPC   C4B11268   3.194   9.616  17.539 -0.1964 -0.1436  0.0351
  940POPC   NC311269  13.416   7.503  19.554  0.3175  0.3040 -0.2446
  940POPC   PO411270  13.117   7.442  19.291 -0.1055  0.0377 -0.0974
  940POPC   GL111271  13.100   7.379  18.877 -0.0869  0.4795  0.1015
  940POPC   GL211272  13.268   7.126  18.810  0.1792 -0.2688 -0.2416
  940POPC   C1A11273  13.293   7.480  18.463  0.0717 -0.4383  0.0032
  940POPC   D2A11274  13.201   7.241  18.068 -0.1173  0.0041 -0.0293
  940POPC   C3A11275  13.111   6.968  17.681  0.3894  0.0168 -0.0260
  940POPC   C4A11276  13.316   6.561  17.534 -0.1518  0.4716 -0.0670
  940POPC   C1B11277  13.390   6.759  18.515 -0.1369  0.0570 -0.0774
  940POPC   C2B11278  13.470   6.484  18.153  0.2728 -0.2812  0.1698
  940POPC   C3B11279  13.816   6.434  17.805  0.0084  0.1436  0.0385
  940POPC   C4B11280  14.141   6.195  17.604 -0.4672 -0.2260 -0.0493
  941POPC   NC311281   3.702  18.663  19.426 -0.1126 -0.1251 -0.2738
  941POPC   PO411282   3.465  18.851  19.175 -0.2765 -0.3601 -0.1458
  941POPC   GL111283   3.410  18.986  18.905 -0.1786  0.0964  0.0971
  941POPC   GL211284   3.131  18.966  18.800  0.0183  0.0596 -0.0541
  941POPC   C1A11285   3.687  19.185  18.563 -0.0325  0.1776  0.1462
  941POPC   D2A11286   3.568  19.422  18.163 -0.1080 -0.2465 -0.0509
  941POPC   C3A11287   3.584  19.300  17.688 -0.0784 -0.1797 -0.2887
  941POPC   C4A11288   3.688  19.409  17.265 -0.0020  0.1360  0.3452
  941POPC   C1B11289   3.276  18.865  18.419 -0.2608  0.2298  0.3132
  941POPC   C2B11290   3.424  18.922  17.963 -0.2220  0.0126 -0.1432
  941POPC   C3B11291   3.423  18.863  17.505  0.1658 -0.1952  0.0753
  941POPC   C4B11292   3.386  18.588  17.137 -0.1738 -0.1287  0.0311
  942POPC   NC311293  17.711  21.471  19.209  0.0055 -0.1483 -0.2027
  942POPC   PO411294  18.092  21.704  19.103  0.1486 -0.0009 -0.1536
  942POPC   GL111295  18.232  21.503  18.835 -0.1039  0.2299  0.1056
  942POPC   GL211296  18.257  21.787  18.636  0.2548  0.0424  0.2277
  942POPC   C1A11297  18.288  21.236  18.447 -0.0238 -0.1835 -0.1090
  942POPC   D2A11298  18.288  21.158  18.004  0.0584 -0.2738 -0.1658
  942POPC   C3A11299  18.275  21.363  17.627 -0.1745 -0.1624 -0.1037
  942POPC   C4A11300  18.410  21.549  17.181 -0.2457  0.1277  0.1390
  942POPC   C1B11301  18.242  21.774  18.221  0.0087 -0.2046 -0.0509
  942POPC   C2B11302  18.356  21.860  17.768  0.1634  0.2322  0.1942
  942POPC   C3B11303  18.451  21.965  17.384  0.0091  0.0511 -0.2029
  942POPC   C4B11304  18.127  22.012  17.082  0.0280  0.2342  0.1268
  943POPC   NC311305  19.650  29.696  19.488  0.1975  0.4147 -0.1210
  943POPC   PO411306  19.376  29.413  19.456 -0.2489 -0.0520 -0.0070
  943POPC   GL111307  19.317  29.537  19.123 -0.2655  0.1380  0.1274
  943POPC   GL211308  19.517  29.419  18.977 -0.0191  0.2988 -0.0640
  943POPC   C1A11309  19.299  29.881  18.789 -0.1073  0.1135  0.2070
  943POPC   D2A11310  19.588  30.254  18.743  0.0264 -0.2997 -0.0716
  943POPC   C3A11311  19.695  30.116  18.323  0.0461 -0.0016 -0.0430
  943POPC   C4A11312  19.639  30.287  17.881 -0.3434 -0.0836 -0.0086
  943POPC   C1B11313  19.429  29.292  18.523 -0.1900 -0.0728  0.3771
  943POPC   C2B11314  19.426  28.906  18.323 -0.1173  0.2412 -0.0313
  943POPC   C3B11315  19.705  28.815  17.950 -0.1559 -0.2043  0.1499
  943POPC   C4B11316  20.034  28.916  17.632  0.0875  0.0298  0.2780
  944POPC   NC311317  18.307  24.751  19.705 -0.2765  0.0092  0.0565
  944POPC   PO411318  17.980  24.793  19.543  0.1568 -0.0531 -0.3389
  944POPC   GL111319  17.750  24.836  19.317  0.1427 -0.0006 -0.1127
  944POPC   GL211320  17.842  25.063  19.106  0.3294  0.0229 -0.1711
  944POPC   C1A11321  17.657  24.695  18.874  0.0247  0.1140  0.0518
  944POPC   D2A11322  17.563  24.792  18.376 -0.0142  0.1095 -0.2468
  944POPC   C3A11323  17.373  24.967  17.972 -0.2146 -0.0602 -0.1899
  944POPC   C4A11324  17.319  25.426  17.839  0.1156  0.1737 -0.0520
  944POPC   C1B11325  17.664  25.197  18.678 -0.2042  0.0696 -0.3189
  944POPC   C2B11326  17.655  25.551  18.365 -0.0795  0.0212 -0.3634
  944POPC   C3B11327  17.575  25.815  18.000 -0.1172 -0.1643  0.0625
  944POPC   C4B11328  17.475  25.784  17.559  0.0648  0.1039  0.0794
  945POPC   NC311329  30.949  11.332  19.173  0.1581  0.0462 -0.2022
  945POPC   PO411330  30.955  10.930  19.189  0.0775  0.0526  0.0833
  945POPC   GL111331  31.142  10.873  18.832 -0.0932 -0.2235 -0.0415
  945POPC   GL211332  31.194  10.620  18.727  0.1668  0.0134 -0.0516
  945POPC   C1A11333  31.200  10.999  18.409  0.0917  0.1561 -0.1280
  945POPC   D2A11334  31.058  11.250  18.004 -0.2082  0.0988  0.2976
  945POPC   C3A11335  31.102  11.112  17.550  0.0691  0.1137  0.1369
  945POPC   C4A11336  31.191  10.841  17.201 -0.0230 -0.3298 -0.0007
  945POPC   C1B11337  31.601  10.600  18.456 -0.0782 -0.0545 -0.0905
  945POPC   C2B11338  31.877  10.610  18.084 -0.1474 -0.1667  0.3565
  945POPC   C3B11339  32.137  10.608  17.677  0.0439 -0.1755  0.0564
  945POPC   C4B11340  32.447  10.918  17.522  0.1282 -0.1733  0.2148
  946POPC   NC311341   3.998  29.840  18.717  0.4064  0.1918 -0.0220
  946POPC   PO411342   4.216  29.626  18.949 -0.1171 -0.1228  0.2583
  946POPC   GL111343   4.420  29.497  18.586 -0.0045 -0.2028 -0.1339
  946POPC   GL211344   4.661  29.541  18.703 -0.0716 -0.0859  0.0355
  946POPC   C1A11345   4.707  29.422  18.247 -0.0127 -0.1689  0.1574
  946POPC   D2A11346   4.740  29.321  17.769  0.1049  0.1452  0.0041
  946POPC   C3A11347   4.480  29.089  17.481 -0.0537  0.2010 -0.0333
  946POPC   C4A11348   4.178  29.168  17.197 -0.1515 -0.1560  0.1994
  946POPC   C1B11349   4.892  29.829  18.486 -0.1059 -0.4499  0.0662
  946POPC   C2B11350   5.116  29.982  18.027  0.2361 -0.1563 -0.0895
  946POPC   C3B11351   5.507  29.854  17.773 -0.2427  0.0925 -0.3088
  946POPC   C4B11352   5.439  29.920  17.338  0.0772 -0.0377 -0.1309
  947POPC   NC311353  24.417   0.929  18.987 -0.2269  0.0271  0.2710
  947POPC   PO411354  24.095   1.024  19.159  0.1492  0.0150 -0.0126
  947POPC   GL111355  23.902   1.042  18.752  0.0461  0.2446  0.1360
  947POPC   GL211356  24.143   0.916  18.579 -0.1786 -0.3019 -0.1540
  947POPC   C1A11357  23.697   1.296  18.447 -0.1552 -0.1757  0.2003
  947POPC   D2A11358  23.587   1.475  18.029 -0.0582  0.0713  0.0552
  947POPC   C3A11359  23.463   1.526  17.610  0.1774 -0.2704  0.0626
  947POPC   C4A11360  23.462   1.607  17.132  0.1426 -0.0721 -0.1746
  947POPC   C1B11361  23.784   0.825  18.293 -0.0825 -0.0105  0.0919
  947POPC   C2B11362  23.427   0.995  17.998 -0.1574 -0.1788 -0.0443
  947POPC   C3B11363  23.082   1.143  17.710 -0.1983  0.0444 -0.1725
  947POPC   C4B11364  23.143   1.165  17.185  0.1215 -0.0365 -0.1215
  948POPC   NC311365   0.923  31.372  19.519  0.1174  0.3570 -0.1049
  948POPC   PO411366   0.615  31.530  19.345 -0.1464 -0.3237 -0.0028
  948POPC   GL111367   0.598  31.780  19.040  0.1126 -0.0048 -0.1920
  948POPC   GL211368   0.440  31.750  18.837 -0.0186 -0.2044 -0.0689
  948POPC   C1A11369   0.845  31.909  18.630 -0.0343  0.1679  0.2755
  948POPC   D2A11370   0.737  31.851  18.139  0.1855 -0.0699  0.2572
  948POPC   C3A11371   1.132  31.851  17.816 -0.1050  0.3057 -0.1163
  948POPC   C4A11372   1.172  32.027  17.377 -0.3187 -0.3788  0.1275
  948POPC   C1B11373   0.403  32.053  18.445  0.0345  0.0911 -0.1405
  948POPC   C2B11374   0.580  32.374  18.140  0.0442  0.1240  0.0567
  948POPC   C3B11375   0.542  32.664  17.778 -0.0228 -0.2130  0.0736
  948POPC   C4B11376   0.205  32.923  17.598  0.1480 -0.1617  0.2115
  949POPC   NC311377   1.596  28.321  19.159  0.2220  0.0928  0.0568
  949POPC   PO411378   1.755  28.017  19.392  0.1560  0.1480 -0.3630
  949POPC   GL111379   1.619  27.752  19.173  0.3217 -0.3753 -0.0341
  949POPC   GL211380   1.613  27.844  18.911 -0.0449 -0.0271  0.0480
  949POPC   C1A11381   1.348  27.443  19.069 -0.1808 -0.2943  0.1086
  949POPC   D2A11382   1.048  27.397  18.692  0.4595 -0.0968 -0.0508
  949POPC   C3A11383   0.840  27.627  18.359  0.2101  0.2155  0.3844
  949POPC   C4A11384   0.467  27.688  18.056 -0.0848  0.0017  0.1893
  949POPC   C1B11385   1.696  27.929  18.467  0.0321  0.1617  0.0180
  949POPC   C2B11386   1.549  28.014  18.038 -0.1314 -0.0975  0.1333
  949POPC   C3B11387   1.325  28.232  17.743 -0.0435 -0.1863  0.0857
  949POPC   C4B11388   1.429  28.443  17.379  0.0071 -0.1516 -0.0489
  950POPC   NC311389   9.265  25.193  19.366  0.2928 -0.3817  0.0727
  950POPC   PO411390   9.023  25.143  19.074  0.0069 -0.0340 -0.0725
  950POPC   GL111391   9.241  24.954  18.783 -0.3099  0.1676  0.3167
  950POPC   GL211392   9.022  24.907  18.580  0.4620  0.0904  0.0167
  950POPC   C1A11393   9.437  25.136  18.382  0.1983  0.0777  0.1062
  950POPC   D2A11394   9.491  25.092  17.873 -0.2820  0.0526  0.0379
  950POPC   C3A11395   9.467  24.647  17.677 -0.1486  0.1474  0.2073
  950POPC   C4A11396   9.305  24.306  17.349  0.1849  0.0184  0.1432
  950POPC   C1B11397   8.961  24.682  18.247  0.0029 -0.3137 -0.0228
  950POPC   C2B11398   8.953  24.744  17.768 -0.1268 -0.0938 -0.1342
  950POPC   C3B11399   9.183  24.799  17.338 -0.0184  0.0719 -0.1483
  950POPC   C4B11400   9.319  24.757  16.899  0.1097 -0.0475 -0.0592
  951POPC   NC311401  10.729  24.236  19.374 -0.0615 -0.0176  0.2334
  951POPC   PO411402  10.991  24.156  19.088  0.0899 -0.0555 -0.0051
  951POPC   GL111403  10.981  24.154  18.742 -0.1588  0.1818 -0.2044
  951POPC   GL211404  11.115  24.398  18.658 -0.0505 -0.1317 -0.2692
  951POPC   C1A11405  10.848  23.880  18.420 -0.2337  0.2942  0.0945
  951POPC   D2A11406  10.555  23.925  18.101  0.1681  0.2072  0.0598
  951POPC   C3A11407  10.260  23.579  18.013 -0.1195 -0.0823  0.0493
  951POPC   C4A11408  10.169  23.109  18.060 -0.2667  0.0869 -0.1230
  951POPC   C1B11409  11.040  24.689  18.345  0.1806  0.0528  0.0475
  951POPC   C2B11410  10.946  24.743  17.903  0.0972 -0.0205 -0.0797
  951POPC   C3B11411  10.703  24.844  17.506 -0.2485  0.0298 -0.2945
  951POPC   C4B11412  10.917  24.854  17.065  0.1954  0.2105  0.0672
  952POPC   NC311413  11.571  26.482  19.221 -0.1426  0.1048  0.1797
  952POPC   PO411414  11.189  26.517  19.095 -0.2295 -0.0777  0.0280
  952POPC   GL111415  11.347  26.635  18.795 -0.1024  0.1070  0.0193
  952POPC   GL211416  11.534  26.873  18.983 -0.0050  0.0844  0.1771
  952POPC   C1A11417  11.263  26.487  18.369 -0.0038 -0.1988 -0.0725
  952POPC   D2A11418  11.463  26.253  17.967 -0.0954  0.1028  0.4226
  952POPC   C3A11419  11.198  26.106  17.599 -0.1734 -0.1692  0.0139
  952POPC   C4A11420  11.025  25.786  17.296 -0.2954 -0.0158  0.1138
  952POPC   C1B11421  11.586  26.984  18.515 -0.4039  0.0234 -0.2639
  952POPC   C2B11422  11.423  26.906  18.072  0.0420 -0.0117  0.3055
  952POPC   C3B11423  11.462  27.101  17.685 -0.0082  0.1623  0.1027
  952POPC   C4B11424  11.492  27.301  17.243  0.1241  0.1034  0.1916
  953POPC   NC311425  31.374   7.989  18.996 -0.0598 -0.2057 -0.4278
  953POPC   PO411426  31.656   7.754  19.001 -0.2494 -0.0469 -0.1316
  953POPC   GL111427  31.838   7.871  18.753  0.0618 -0.0777 -0.1028
  953POPC   GL211428  31.697   8.098  18.598 -0.3383  0.2641  0.1179
  953POPC   C1A11429  31.930   7.665  18.360  0.0448 -0.0978  0.3155
  953POPC   D2A11430  31.831   7.780  17.917 -0.2993 -0.3370 -0.3290
  953POPC   C3A11431  31.950   7.686  17.508  0.0310 -0.1324  0.0965
  953POPC   C4A11432  32.234   7.409  17.271 -0.0174 -0.1781  0.0010
  953POPC   C1B11433  31.641   8.141  18.195 -0.1458 -0.3639  0.0361
  953POPC   C2B11434  31.379   8.423  17.950 -0.0263  0.0656  0.0385
  953POPC   C3B11435  31.225   8.528  17.543 -0.0547 -0.1595 -0.1261
  953POPC   C4B11436  31.303   8.835  17.154  0.1798 -0.0195 -0.0562
  954POPC   NC311437  15.638  11.047  19.464 -0.1056 -0.1792  0.1237
  954POPC   PO411438  15.538  10.972  19.118  0.0944 -0.1592  0.1813
  954POPC   GL111439  15.665  11.132  18.724  0.0014 -0.0972 -0.2103
  954POPC   GL211440  15.397  11.146  18.683 -0.0444 -0.0197 -0.1984
  954POPC   C1A11441  16.083  11.091  18.459 -0.3062  0.0057 -0.2082
  954POPC   D2A11442  16.262  11.278  18.068  0.1951  0.2539  0.0849
  954POPC   C3A11443  16.277  11.058  17.704  0.3747  0.0264 -0.1793
  954POPC   C4A11444  16.205  10.955  17.276 -0.1463 -0.0902  0.1881
  954POPC   C1B11445  15.641  11.299  18.273  0.4088  0.1144 -0.4026
  954POPC   C2B11446  15.816  11.296  17.889  0.3322 -0.0092  0.0204
  954POPC   C3B11447  15.963  11.350  17.449  0.0429 -0.3065  0.1611
  954POPC   C4B11448  16.090  11.403  16.984 -0.0840 -0.1032 -0.0710
  955POPC   NC311449  30.740   6.203  19.842 -0.0239 -0.0647 -0.1733
  955POPC   PO411450  30.966   6.088  19.519  0.2167 -0.0217 -0.3160
  955POPC   GL111451  31.244   5.914  19.227  0.3712 -0.1347 -0.1416
  955POPC   GL211452  31.300   6.049  18.976 -0.1063 -0.1695  0.5079
  955POPC   C1A11453  31.242   5.505  18.944  0.2560  0.2580  0.1353
  955POPC   D2A11454  31.345   5.198  18.624 -0.2807  0.0702  0.4213
  955POPC   C3A11455  31.593   5.206  18.291  0.2237 -0.0675  0.0453
  955POPC   C4A11456  31.832   5.563  18.074 -0.3328 -0.0404  0.0602
  955POPC   C1B11457  31.300   5.838  18.551  0.1555 -0.0856  0.1659
  955POPC   C2B11458  31.189   5.545  18.165 -0.0171  0.0318 -0.0038
  955POPC   C3B11459  31.164   5.561  17.674  0.0632 -0.3973 -0.1749
  955POPC   C4B11460  31.545   5.737  17.464  0.0120 -0.0284 -0.1348
  956POPC   NC311461  10.906   3.534  19.119 -0.2680  0.1604  0.2804
  956POPC   PO411462  10.565   3.414  19.034 -0.1336 -0.1307 -0.3218
  956POPC   GL111463  10.390   3.230  18.723 -0.0446  0.1096 -0.2494
  956POPC   GL211464  10.516   3.002  18.647 -0.1420 -0.1367  0.0331
  956POPC   C1A11465  10.073   2.975  18.483  0.2592 -0.0946 -0.0173
  956POPC   D2A11466   9.955   2.874  18.074 -0.1722 -0.0504 -0.1143
  956POPC   C3A11467   9.581   2.934  17.778 -0.0091  0.2521 -0.2027
  956POPC   C4A11468   9.568   3.026  17.301 -0.1817 -0.1056  0.0736
  956POPC   C1B11469  10.484   2.829  18.231 -0.0139  0.1006 -0.0116
  956POPC   C2B11470  10.419   2.868  17.724 -0.0112  0.0814  0.2039
  956POPC   C3B11471  10.449   3.087  17.292 -0.1584  0.0250 -0.1309
  956POPC   C4B11472  10.802   2.963  16.965  0.2431 -0.2211 -0.2429
  957POPC   NC311473  27.744  29.544  19.005  0.1341  0.1002 -0.0444
  957POPC   PO411474  27.495  29.236  19.044 -0.1581  0.1490  0.1321
  957POPC   GL111475  27.528  29.126  18.686  0.3998  0.4064 -0.5669
  957POPC   GL211476  27.818  29.267  18.609 -0.1860  0.2713 -0.0799
  957POPC   C1A11477  27.799  28.807  18.456 -0.4206 -0.3762 -0.0776
  957POPC   D2A11478  27.882  28.685  17.986  0.0765  0.1634 -0.2762
  957POPC   C3A11479  28.135  28.259  17.951  0.1302 -0.2410  0.0120
  957POPC   C4A11480  28.296  28.106  17.559 -0.2185 -0.1215 -0.1422
  957POPC   C1B11481  27.718  29.258  18.179  0.0827 -0.0573 -0.2367
  957POPC   C2B11482  27.640  29.329  17.711 -0.2910 -0.0113 -0.2627
  957POPC   C3B11483  27.264  29.159  17.443  0.1817  0.0581 -0.3583
  957POPC   C4B11484  26.938  29.203  17.206  0.2813  0.2299 -0.0564
  958POPC   NC311485  21.160   6.215  19.597 -0.0135 -0.3123  0.0411
  958POPC   PO411486  20.908   6.455  19.859 -0.1791 -0.0510 -0.1688
  958POPC   GL111487  20.734   6.482  19.500  0.0014 -0.1324  0.0185
  958POPC   GL211488  20.891   6.409  19.233  0.2796  0.1579 -0.1607
  958POPC   C1A11489  20.413   6.246  19.228 -0.1117 -0.0686 -0.1889
  958POPC   D2A11490  20.039   6.036  19.154 -0.1014  0.0943 -0.1197
  958POPC   C3A11491  19.721   6.274  19.292  0.2299  0.0459 -0.1132
  958POPC   C4A11492  19.539   6.547  18.954 -0.2448 -0.2236 -0.1094
  958POPC   C1B11493  20.886   6.215  18.828  0.0211  0.1995 -0.0674
  958POPC   C2B11494  20.676   5.940  18.412 -0.4165  0.1535 -0.1419
  958POPC   C3B11495  20.717   5.756  17.963 -0.1697 -0.0383 -0.1326
  958POPC   C4B11496  20.908   5.800  17.548  0.2661  0.0718 -0.0714
  959POPC   NC311497   2.359  18.839  19.104 -0.0496  0.1830  0.0935
  959POPC   PO411498   2.751  18.883  19.227  0.1229  0.0159  0.2133
  959POPC   GL111499   2.761  18.601  18.890  0.1748  0.0843  0.0776
  959POPC   GL211500   2.585  18.738  18.689 -0.2228  0.2044 -0.1317
  959POPC   C1A11501   3.105  18.493  18.629 -0.4242  0.3866 -0.1763
  959POPC   D2A11502   3.392  18.209  18.402  0.2246 -0.2441  0.1766
  959POPC   C3A11503   3.443  18.256  18.004  0.2348  0.0470  0.1768
  959POPC   C4A11504   3.381  18.281  17.555 -0.1212  0.1173  0.0884
  959POPC   C1B11505   2.759  18.723  18.251  0.4842  0.1001 -0.1407
  959POPC   C2B11506   2.977  18.699  17.788  0.1113 -0.0070 -0.2376
  959POPC   C3B11507   2.889  18.702  17.326 -0.1487  0.2535 -0.1056
  959POPC   C4B11508   2.524  18.487  17.173 -0.1838  0.0917  0.0429
  960POPC   NC311509  28.706  21.475  19.184 -0.1149  0.3500 -0.0208
  960POPC   PO411510  28.522  21.786  19.275  0.2199 -0.2422 -0.1487
  960POPC   GL111511  28.371  21.758  18.906  0.3783 -0.0246 -0.1073
  960POPC   GL211512  28.549  21.743  18.750  0.0836 -0.1432 -0.2057
  960POPC   C1A11513  28.143  21.982  18.562  0.0618 -0.3630 -0.1148
  960POPC   D2A11514  28.133  22.016  18.107  0.1188  0.1079  0.0358
  960POPC   C3A11515  28.043  21.777  17.714  0.0049 -0.1719  0.0908
  960POPC   C4A11516  27.900  21.414  17.466  0.1478 -0.0123  0.2922
  960POPC   C1B11517  28.463  21.689  18.336 -0.1023  0.2647  0.2133
  960POPC   C2B11518  28.463  21.569  17.898 -0.0143  0.0109 -0.0125
  960POPC   C3B11519  28.491  21.528  17.420  0.0496  0.1143 -0.3255
  960POPC   C4B11520  28.572  21.654  17.009 -0.2153  0.0738 -0.0469
  961POPC   NC311521   1.778   3.435  19.328 -0.1115 -0.0634  0.1419
  961POPC   PO411522   1.998   3.795  19.401  0.2085  0.0075  0.1659
  961POPC   GL111523   1.982   4.108  19.085 -0.3276 -0.2922  0.3638
  961POPC   GL211524   2.195   4.288  19.000 -0.0265  0.3774 -0.1405
  961POPC   C1A11525   1.701   4.408  18.959  0.2761  0.3388  0.3208
  961POPC   D2A11526   1.757   4.859  18.830  0.0481  0.1082 -0.2974
  961POPC   C3A11527   2.120   5.082  18.979  0.0571 -0.0309 -0.0251
  961POPC   C4A11528   2.411   5.106  19.339  0.0853  0.0853 -0.0056
  961POPC   C1B11529   2.237   4.625  18.700 -0.0351 -0.0713  0.1342
  961POPC   C2B11530   2.089   4.980  18.389 -0.0083 -0.0731 -0.1130
  961POPC   C3B11531   2.049   5.015  17.905  0.0015  0.0948  0.2252
  961POPC   C4B11532   1.864   5.229  17.593 -0.2069 -0.0554 -0.1376
  962POPC   NC311533  17.850  31.614  19.423 -0.1397  0.2267  0.0617
  962POPC   PO411534  17.533  31.837  19.433 -0.0240 -0.2263 -0.0784
  962POPC   GL111535  17.584  31.781  19.038  0.2236  0.0067  0.0473
  962POPC   GL211536  17.762  31.673  18.920  0.1243 -0.1102 -0.0732
  962POPC   C1A11537  17.300  31.549  18.690 -0.3030 -0.2543 -0.0858
  962POPC   D2A11538  17.406  31.575  18.228 -0.2894 -0.1197  0.1687
  962POPC   C3A11539  17.099  31.732  17.949  0.1104  0.0136  0.1087
  962POPC   C4A11540  16.853  32.046  17.762 -0.0303  0.0336 -0.1426
  962POPC   C1B11541  17.772  31.824  18.500  0.1540  0.1621  0.4151
  962POPC   C2B11542  17.978  31.757  18.124  0.0954  0.2227  0.0846
  962POPC   C3B11543  17.924  31.690  17.622 -0.1871 -0.2206 -0.2630
  962POPC   C4B11544  17.851  31.389  17.301  0.0707  0.0152 -0.0936
  963POPC   NC311545  16.343   7.033  19.552 -0.0705 -0.3571  0.1761
  963POPC   PO411546  16.619   7.257  19.693  0.2760 -0.1799 -0.1353
  963POPC   GL111547  16.653   7.238  19.269 -0.3534  0.1739  0.1428
  963POPC   GL211548  16.468   7.366  19.144 -0.3244  0.1076 -0.0174
  963POPC   C1A11549  16.926   7.273  18.878  0.1402  0.1423 -0.2105
  963POPC   D2A11550  16.751   7.475  18.470 -0.0322  0.1637  0.0781
  963POPC   C3A11551  16.639   7.194  18.128  0.0206 -0.0089 -0.3643
  963POPC   C4A11552  16.390   7.053  17.737 -0.0147 -0.0658  0.1566
  963POPC   C1B11553  16.352   7.129  18.797  0.1420  0.1129  0.0784
  963POPC   C2B11554  16.242   6.940  18.341  0.1363  0.1488 -0.3012
  963POPC   C3B11555  16.138   6.673  17.986 -0.0713  0.1917  0.1743
  963POPC   C4B11556  16.071   6.482  17.568  0.1119  0.1003 -0.1788
  964POPC   NC311557  18.158  27.288  19.763  0.3796 -0.0257 -0.3993
  964POPC   PO411558  18.340  27.503  19.464  0.1343 -0.2477  0.2539
  964POPC   GL111559  18.185  27.216  19.223 -0.1046 -0.0401  0.0312
  964POPC   GL211560  18.213  26.894  19.369 -0.3390  0.0584  0.1664
  964POPC   C1A11561  18.112  27.350  18.751  0.0448  0.1932  0.1047
  964POPC   D2A11562  18.164  27.636  18.373  0.3161  0.3218 -0.1000
  964POPC   C3A11563  18.538  27.745  18.322 -0.0342  0.0651 -0.1014
  964POPC   C4A11564  19.011  27.544  18.382  0.1507  0.0559 -0.1175
  964POPC   C1B11565  18.012  26.656  19.064 -0.0144 -0.0639  0.5002
  964POPC   C2B11566  17.943  26.471  18.691  0.0802 -0.0133  0.0301
  964POPC   C3B11567  17.819  26.553  18.256 -0.0633  0.3069 -0.0958
  964POPC   C4B11568  17.861  26.809  17.846 -0.1693 -0.2299  0.1443
  965POPC   NC311569  13.897   6.407  19.463  0.2084 -0.1892  0.0698
  965POPC   PO411570  13.629   6.703  19.564 -0.0774  0.1337 -0.1502
  965POPC   GL111571  13.808   6.730  19.157  0.1311 -0.0722 -0.1566
  965POPC   GL211572  13.583   6.599  18.987  0.1171 -0.0825  0.0846
  965POPC   C1A11573  13.786   6.990  18.780  0.3434 -0.4867  0.3222
  965POPC   D2A11574  13.745   7.224  18.373 -0.1808 -0.0863 -0.0423
  965POPC   C3A11575  13.776   7.407  17.933 -0.2288  0.2207 -0.1995
  965POPC   C4A11576  13.801   7.505  17.473 -0.1658 -0.0547 -0.0214
  965POPC   C1B11577  13.828   6.510  18.598  0.3436 -0.0377 -0.1735
  965POPC   C2B11578  13.807   6.200  18.329 -0.2281 -0.2919  0.0170
  965POPC   C3B11579  13.858   5.909  18.013 -0.0964 -0.0616  0.1010
  965POPC   C4B11580  13.742   5.653  17.612 -0.2018  0.1525  0.0791
  966POPC   NC311581  24.053   6.905  19.340 -0.0465 -0.0213 -0.0036
  966POPC   PO411582  24.223   6.587  19.161  0.3525  0.0181  0.2160
  966POPC   GL111583  24.211   6.832  18.791 -0.1320 -0.1555 -0.1303
  966POPC   GL211584  24.478   6.917  18.826 -0.1879  0.2714  0.4717
  966POPC   C1A11585  24.300   6.739  18.348 -0.0589 -0.1168  0.0718
  966POPC   D2A11586  24.230   6.260  18.332  0.3944  0.1045  0.2927
  966POPC   C3A11587  23.903   5.981  18.491 -0.4047  0.1270 -0.1911
  966POPC   C4A11588  23.709   5.584  18.360 -0.1719 -0.0012  0.1926
  966POPC   C1B11589  24.806   6.849  18.453 -0.1125 -0.0183 -0.1851
  966POPC   C2B11590  25.054   6.745  18.020 -0.1652  0.0006 -0.3358
  966POPC   C3B11591  25.419   6.653  17.727 -0.1229 -0.1406 -0.0005
  966POPC   C4B11592  25.533   6.238  17.598 -0.0000  0.0438 -0.2043
  967POPC   NC311593  16.864  28.426  19.490  0.2489 -0.3074  0.1308
  967POPC   PO411594  16.934  28.065  19.367 -0.0187 -0.1780  0.0929
  967POPC   GL111595  16.898  28.197  19.050  0.1702  0.2002 -0.4986
  967POPC   GL211596  17.123  28.236  18.891  0.0718  0.1291  0.3763
  967POPC   C1A11597  16.586  28.470  18.722 -0.0499 -0.2541  0.2070
  967POPC   D2A11598  16.455  28.548  18.257 -0.0915  0.1256  0.1341
  967POPC   C3A11599  16.387  28.967  18.066 -0.0500  0.3584 -0.1510
  967POPC   C4A11600  16.214  29.324  18.350 -0.0107 -0.1016  0.1339
  967POPC   C1B11601  17.066  28.384  18.429 -0.2739  0.1529  0.0938
  967POPC   C2B11602  17.140  28.308  17.939 -0.1823 -0.0070  0.0365
  967POPC   C3B11603  17.233  28.171  17.513  0.0095 -0.2061  0.0217
  967POPC   C4B11604  17.323  28.225  17.031  0.2770 -0.0001  0.2051
  968POPC   NC311605  12.283  31.404  19.440 -0.2291  0.2199  0.0706
  968POPC   PO411606  11.952  31.495  19.248 -0.1502 -0.0056 -0.1253
  968POPC   GL111607  11.637  31.465  18.914 -0.4463  0.1126 -0.0704
  968POPC   GL211608  11.672  31.746  18.777  0.0517 -0.1769 -0.1791
  968POPC   C1A11609  11.392  31.315  18.562  0.0479 -0.3826 -0.0730
  968POPC   D2A11610  11.137  31.440  18.237 -0.0807 -0.0766  0.0426
  968POPC   C3A11611  11.343  31.605  17.928  0.0758  0.0263  0.1957
  968POPC   C4A11612  11.349  31.634  17.465 -0.2818  0.0849 -0.0602
  968POPC   C1B11613  11.873  31.460  18.475 -0.0371 -0.1926  0.1243
  968POPC   C2B11614  11.814  31.429  18.027  0.5738 -0.0674  0.2124
  968POPC   C3B11615  11.866  31.442  17.574  0.0022 -0.1520 -0.0940
  968POPC   C4B11616  11.752  31.533  17.144 -0.1752  0.0874 -0.0141
  969POPC   NC311617  30.440  17.475  19.531 -0.4192 -0.0813  0.1789
  969POPC   PO411618  30.173  17.285  19.324  0.1442 -0.1293  0.2314
  969POPC   GL111619  29.960  17.111  19.011 -0.2323 -0.3112 -0.0160
  969POPC   GL211620  30.200  16.971  18.751  0.0325  0.0234 -0.0535
  969POPC   C1A11621  29.889  17.390  18.629  0.5435 -0.3411 -0.1319
  969POPC   D2A11622  29.837  17.632  18.245 -0.1057 -0.0721  0.0693
  969POPC   C3A11623  29.850  17.604  17.773 -0.1473 -0.2532 -0.1608
  969POPC   C4A11624  29.844  17.548  17.273 -0.1473  0.0519 -0.1233
  969POPC   C1B11625  30.051  17.043  18.298 -0.4653 -0.0289 -0.1210
  969POPC   C2B11626  30.081  17.020  17.839 -0.0647 -0.1289  0.1900
  969POPC   C3B11627  30.082  16.963  17.390  0.1522  0.3515 -0.0816
  969POPC   C4B11628  30.340  16.740  17.155  0.1682  0.1401  0.3113
  970POPC   NC311629  24.152  28.258  19.109 -0.1146 -0.0949 -0.0755
  970POPC   PO411630  24.008  28.520  19.357  0.1124 -0.2964 -0.0077
  970POPC   GL111631  23.840  28.535  19.013  0.1767 -0.0620 -0.1970
  970POPC   GL211632  23.905  28.807  18.972  0.0349  0.3434 -0.1011
  970POPC   C1A11633  24.010  28.318  18.637  0.0225 -0.0471 -0.0455
  970POPC   D2A11634  24.141  28.206  18.209  0.0026 -0.0423 -0.0139
  970POPC   C3A11635  23.959  28.168  17.780 -0.0761 -0.0580  0.0191
  970POPC   C4A11636  23.768  28.326  17.349  0.0797 -0.1637 -0.2268
  970POPC   C1B11637  23.868  28.787  18.499  0.2019  0.0616 -0.3455
  970POPC   C2B11638  23.949  28.675  18.063 -0.0651 -0.3772  0.2128
  970POPC   C3B11639  24.121  28.687  17.628  0.3413  0.3984 -0.2477
  970POPC   C4B11640  24.155  28.839  17.187  0.1323 -0.1733 -0.0684
  971POPC   NC311641  24.568  15.414  19.115 -0.1331 -0.1804  0.1219
  971POPC   PO411642  24.616  15.748  19.297 -0.0265 -0.2775 -0.2180
  971POPC   GL111643  24.359  15.904  19.015 -0.1821  0.2956 -0.2314
  971POPC   GL211644  24.458  15.758  18.776  0.3542 -0.1191  0.2060
  971POPC   C1A11645  23.921  15.887  18.853 -0.2161  0.0525  0.0235
  971POPC   D2A11646  23.589  15.950  18.622 -0.0229 -0.0101  0.0142
  971POPC   C3A11647  23.359  16.062  18.169 -0.0669  0.1690  0.0157
  971POPC   C4A11648  23.062  15.969  17.798 -0.2278  0.0160  0.0184
  971POPC   C1B11649  24.245  16.065  18.553 -0.0434  0.0519 -0.0575
  971POPC   C2B11650  23.887  16.124  18.226  0.0144  0.0380  0.0451
  971POPC   C3B11651  23.863  15.902  17.817  0.2387 -0.0444 -0.0232
  971POPC   C4B11652  23.511  15.668  17.565 -0.1775  0.1858 -0.1005
  972POPC   NC311653   6.394   5.574  19.180  0.0799  0.1924 -0.0318
  972POPC   PO411654   6.788   5.526  19.297 -0.1932 -0.1000  0.1642
  972POPC   GL111655   6.771   5.487  18.976  0.1754 -0.1264  0.1579
  972POPC   GL211656   6.808   5.207  18.821  0.2757 -0.0776  0.0437
  972POPC   C1A11657   6.428   5.409  18.685 -0.0398 -0.0970  0.2062
  972POPC   D2A11658   6.388   5.395  18.230  0.0309  0.0356  0.1544
  972POPC   C3A11659   6.264   5.661  17.857 -0.2221  0.3490  0.2283
  972POPC   C4A11660   6.188   5.866  17.420  0.1975 -0.2434 -0.0570
  972POPC   C1B11661   6.645   4.942  18.482 -0.0462  0.0246  0.0749
  972POPC   C2B11662   6.632   4.780  18.155  0.1250  0.1954  0.2423
  972POPC   C3B11663   6.389   4.702  17.779 -0.1307  0.2184 -0.0081
  972POPC   C4B11664   6.303   4.726  17.346  0.2615  0.0932  0.1167
  973POPC   NC311665   1.713  26.311  19.358 -0.2745  0.0908 -0.1605
  973POPC   PO411666   1.449  26.561  19.497  0.1406  0.3418 -0.1550
  973POPC   GL111667   1.468  26.641  19.105 -0.1006  0.0208 -0.3309
  973POPC   GL211668   1.644  26.882  19.086  0.1709 -0.1863 -0.1757
  973POPC   C1A11669   1.624  26.339  18.812 -0.1960  0.2252 -0.0469
  973POPC   D2A11670   1.546  26.290  18.373  0.2242  0.2934 -0.0653
  973POPC   C3A11671   1.531  26.188  17.888  0.2033 -0.0841  0.4865
  973POPC   C4A11672   1.619  26.322  17.465 -0.2204  0.3653  0.2054
  973POPC   C1B11673   1.623  26.952  18.650 -0.0644  0.0674 -0.0479
  973POPC   C2B11674   1.464  26.947  18.206  0.0972  0.1519  0.1271
  973POPC   C3B11675   1.117  27.090  17.894  0.0076  0.2168  0.1773
  973POPC   C4B11676   0.863  27.497  17.869 -0.0296  0.2038  0.0728
  974POPC   NC311677  26.477   1.061  19.763 -0.0471 -0.1237 -0.2924
  974POPC   PO411678  26.693   1.038  19.442 -0.0111  0.0179 -0.0120
  974POPC   GL111679  26.556   1.195  18.995 -0.2938  0.0442 -0.0899
  974POPC   GL211680  26.409   1.445  18.889 -0.0512 -0.1058  0.0698
  974POPC   C1A11681  26.892   1.247  18.700  0.0814  0.1354  0.2737
  974POPC   D2A11682  27.000   1.251  18.232  0.0831  0.1544  0.2480
  974POPC   C3A11683  26.641   1.013  18.013 -0.0903 -0.2745 -0.1382
  974POPC   C4A11684  26.225   0.994  17.851  0.0674 -0.1464 -0.1422
  974POPC   C1B11685  26.576   1.803  18.560  0.1864  0.0050  0.0685
  974POPC   C2B11686  26.678   2.107  18.257  0.2949 -0.2178 -0.3059
  974POPC   C3B11687  26.780   2.147  17.842 -0.0226 -0.0578  0.3529
  974POPC   C4B11688  26.934   2.424  17.517  0.3489  0.1122  0.0210
  975POPC   NC311689   2.063  12.580  19.495 -0.0325  0.3166  0.1068
  975POPC   PO411690   1.675  12.468  19.530  0.0495  0.2338 -0.4119
  975POPC   GL111691   1.719  12.542  19.165 -0.1428 -0.2289  0.0507
  975POPC   GL211692   1.640  12.815  19.137  0.2770  0.0670  0.1219
  975POPC   C1A11693   1.579  12.564  18.736 -0.1061 -0.0391  0.0965
  975POPC   D2A11694   1.293  12.584  18.411  0.0176 -0.0819  0.0739
  975POPC   C3A11695   1.224  12.970  18.153 -0.2194 -0.1789  0.2723
  975POPC   C4A11696   1.266  13.232  17.790 -0.0574  0.0655 -0.1855
  975POPC   C1B11697   2.058  12.739  18.921  0.1345  0.2629  0.1210
  975POPC   C2B11698   2.064  12.673  18.496 -0.1099 -0.1422  0.1171
  975POPC   C3B11699   2.214  12.659  18.049 -0.0705  0.2409  0.0118
  975POPC   C4B11700   2.084  12.907  17.633 -0.2432  0.0047 -0.3386
  976POPC   NC311701  21.404  16.632  19.761 -0.0389 -0.0587  0.1125
  976POPC   PO411702  21.640  16.301  19.674 -0.2499 -0.2142 -0.2160
  976POPC   GL111703  21.944  16.542  19.540  0.2288  0.0164 -0.0722
  976POPC   GL211704  21.966  16.652  19.766 -0.1055  0.0783  0.2233
  976POPC   C1A11705  22.310  16.807  19.390 -0.0802  0.3884 -0.0650
  976POPC   D2A11706  22.530  16.943  19.066 -0.0556 -0.0879 -0.0241
  976POPC   C3A11707  22.747  16.891  18.618  0.0035  0.2814 -0.3338
  976POPC   C4A11708  23.017  16.567  18.433  0.0919 -0.3806  0.1629
  976POPC   C1B11709  22.446  16.647  19.882  0.2069  0.1497  0.1616
  976POPC   C2B11710  22.610  16.934  20.175  0.1190 -0.0269 -0.0266
  976POPC   C3B11711  22.886  17.095  20.474 -0.4462  0.2863  0.1364
  976POPC   C4B11712  23.105  17.345  20.835 -0.0477 -0.1239  0.4267
  977POPC   NC311713  12.308  14.256  19.348 -0.0141 -0.0171  0.1408
  977POPC   PO411714  12.010  14.054  19.506  0.1242 -0.1455  0.3619
  977POPC   GL111715  11.950  13.727  19.144 -0.1067  0.0338  0.0868
  977POPC   GL211716  12.170  13.679  19.041 -0.1708 -0.1248  0.0334
  977POPC   C1A11717  11.821  13.751  18.682 -0.2200 -0.1654 -0.1137
  977POPC   D2A11718  12.130  13.654  18.417  0.0747 -0.0796 -0.1385
  977POPC   C3A11719  12.406  14.007  18.291  0.2019 -0.1063  0.2790
  977POPC   C4A11720  12.383  14.421  18.186  0.0082 -0.0406 -0.1263
  977POPC   C1B11721  12.475  13.976  18.821 -0.0965  0.2862  0.2706
  977POPC   C2B11722  12.840  14.073  18.500  0.0414 -0.2606 -0.0990
  977POPC   C3B11723  12.810  13.773  18.179 -0.0363  0.0830  0.1999
  977POPC   C4B11724  13.104  13.497  18.006 -0.0162  0.0920  0.1405
  978POPC   NC311725  12.926   4.218  19.349 -0.2358 -0.2097 -0.3654
  978POPC   PO411726  12.724   3.896  19.458 -0.0202  0.0089  0.4955
  978POPC   GL111727  12.608   3.906  19.141 -0.1959 -0.3649 -0.1197
  978POPC   GL211728  12.384   4.130  19.083  0.1889 -0.0383 -0.2341
  978POPC   C1A11729  12.618   3.643  18.775 -0.0225 -0.2742  0.0683
  978POPC   D2A11730  12.533   3.593  18.340 -0.1256 -0.0379  0.1526
  978POPC   C3A11731  12.438   3.152  18.275 -0.1953  0.1701 -0.0363
  978POPC   C4A11732  12.405   2.740  18.467  0.1970 -0.1105 -0.1750
  978POPC   C1B11733  12.432   4.236  18.668 -0.1199  0.1563 -0.0609
  978POPC   C2B11734  12.481   4.229  18.213 -0.0154  0.3685  0.1362
  978POPC   C3B11735  12.531   4.358  17.805 -0.0931 -0.1794  0.1661
  978POPC   C4B11736  12.425   4.521  17.407  0.3903  0.1827 -0.2387
  979POPC   NC311737  30.513  15.707  19.520  0.1026  0.1046  0.1691
  979POPC   PO411738  30.388  16.062  19.329  0.0294 -0.2191  0.2029
  979POPC   GL111739  30.466  16.349  19.099 -0.1404 -0.0043  0.1908
  979POPC   GL211740  30.559  16.655  19.009  0.3428  0.1370  0.2021
  979POPC   C1A11741  30.315  16.424  18.664  0.2235 -0.1085  0.3589
  979POPC   D2A11742  29.916  16.509  18.419  0.0500 -0.1633  0.0216
  979POPC   C3A11743  30.100  16.506  18.014 -0.0443 -0.3310 -0.0449
  979POPC   C4A11744  30.417  16.644  17.702  0.0754 -0.0911  0.0388
  979POPC   C1B11745  30.807  16.358  18.751 -0.0974 -0.2534  0.0113
  979POPC   C2B11746  31.013  16.352  18.347 -0.3854  0.1249  0.0240
  979POPC   C3B11747  30.899  16.358  17.913  0.0407  0.0639  0.1454
  979POPC   C4B11748  31.089  16.390  17.506 -0.3348  0.1111  0.0544
  980POPC   NC311749  10.844  12.850  19.076 -0.4558  0.0369  0.3243
  980POPC   PO411750  10.987  12.504  19.133 -0.0738  0.1878  0.0460
  980POPC   GL111751  11.094  12.404  18.761  0.0330 -0.1401 -0.4224
  980POPC   GL211752  10.964  12.545  18.608 -0.1515  0.0738 -0.0679
  980POPC   C1A11753  11.338  12.356  18.377 -0.0191 -0.0035  0.3046
  980POPC   D2A11754  11.406  12.251  17.884  0.1917 -0.2050 -0.0773
  980POPC   C3A11755  11.693  12.367  17.561  0.2233  0.3597  0.0992
  980POPC   C4A11756  11.938  12.290  17.184  0.0495 -0.0032 -0.0878
  980POPC   C1B11757  10.821  12.521  18.181 -0.3178 -0.1032 -0.1670
  980POPC   C2B11758  10.775  12.607  17.720  0.2742  0.1509  0.0039
  980POPC   C3B11759  10.852  12.953  17.486  0.2564  0.6390 -0.1373
  980POPC   C4B11760  11.142  12.981  17.159  0.6416  0.1502  0.2111
  981POPC   NC311761  31.529  23.173  18.921 -0.1791  0.0219  0.0348
  981POPC   PO411762  31.749  22.844  18.968  0.0671 -0.2275  0.0229
  981POPC   GL111763  32.072  22.893  18.780 -0.1196 -0.1435  0.5565
  981POPC   GL211764  31.975  22.638  18.582 -0.2259  0.0869  0.5392
  981POPC   C1A11765  32.131  23.028  18.342  0.2902  0.1189 -0.1288
  981POPC   D2A11766  32.208  22.944  17.882 -0.0233 -0.1689  0.0800
  981POPC   C3A11767  32.091  22.565  17.650 -0.0329  0.2668  0.0880
  981POPC   C4A11768  31.909  22.222  17.363  0.0340  0.1983  0.0711
  981POPC   C1B11769  31.799  22.598  18.085 -0.3606 -0.1343 -0.0715
  981POPC   C2B11770  31.689  22.254  17.826  0.0642  0.2425 -0.0622
  981POPC   C3B11771  31.467  22.060  17.537  0.1225 -0.1404 -0.2869
  981POPC   C4B11772  31.153  21.788  17.287 -0.0573 -0.0610  0.0782
  982POPC   NC311773  17.800  18.689  18.792  0.1074  0.1032 -0.0552
  982POPC   PO411774  18.034  18.603  19.130  0.0964  0.2251  0.0494
  982POPC   GL111775  18.062  18.272  18.862  0.3487  0.3396 -0.2875
  982POPC   GL211776  18.037  17.967  18.855  0.3636  0.2162 -0.0042
  982POPC   C1A11777  17.726  18.287  18.530  0.1090 -0.1944  0.0161
  982POPC   D2A11778  17.667  18.616  18.235  0.1432 -0.1302 -0.1563
  982POPC   C3A11779  17.823  18.601  17.750 -0.1290 -0.1409  0.0583
  982POPC   C4A11780  17.766  18.730  17.273  0.1274 -0.4709  0.1082
  982POPC   C1B11781  18.040  17.892  18.392  0.0199 -0.0314  0.0687
  982POPC   C2B11782  17.771  18.006  18.058 -0.5958 -0.0304 -0.0495
  982POPC   C3B11783  17.778  17.965  17.618  0.1106 -0.0651 -0.1160
  982POPC   C4B11784  17.935  18.271  17.323  0.2013  0.0276  0.0235
  983POPC   NC311785  11.601  24.776  19.410  0.1333 -0.0972  0.1825
  983POPC   PO411786  11.980  24.833  19.392 -0.0214  0.0969  0.1640
  983POPC   GL111787  11.965  24.858  18.966 -0.0982 -0.3141  0.3944
  983POPC   GL211788  11.685  24.774  18.880 -0.2832  0.1964 -0.1634
  983POPC   C1A11789  11.923  24.918  18.479 -0.3214  0.2563  0.2861
  983POPC   D2A11790  11.860  24.830  18.049 -0.3142  0.2463  0.2438
  983POPC   C3A11791  11.620  24.928  17.681  0.1990 -0.0807 -0.0007
  983POPC   C4A11792  11.227  24.798  17.489 -0.2075  0.0118  0.0795
  983POPC   C1B11793  11.545  24.606  18.435 -0.0109 -0.0441 -0.2048
  983POPC   C2B11794  11.431  24.519  17.994  0.1579 -0.2599 -0.0778
  983POPC   C3B11795  11.367  24.111  17.768  0.0528  0.1167 -0.0143
  983POPC   C4B11796  11.550  23.818  17.456 -0.0698 -0.2967 -0.4794
  984POPC   NC311797   9.990  17.711  19.074  0.2367 -0.0509  0.1529
  984POPC   PO411798  10.348  17.747  19.186  0.0320 -0.0779 -0.2456
  984POPC   GL111799  10.457  17.669  18.845 -0.6980  0.3722 -0.2431
  984POPC   GL211800  10.782  17.749  18.838 -0.0975 -0.0842  0.1934
  984POPC   C1A11801  10.321  17.790  18.418  0.0193 -0.1333 -0.1461
  984POPC   D2A11802  10.157  17.900  18.001 -0.1865  0.2316  0.0638
  984POPC   C3A11803  10.019  18.067  17.628 -0.2983 -0.1066  0.2726
  984POPC   C4A11804   9.791  17.994  17.213  0.1751  0.4685  0.1796
  984POPC   C1B11805  10.906  17.495  18.469 -0.4750 -0.0391  0.1598
  984POPC   C2B11806  10.997  17.401  17.993  0.2917 -0.1666  0.1207
  984POPC   C3B11807  10.746  17.342  17.630  0.0244 -0.2011 -0.1571
  984POPC   C4B11808  10.442  17.275  17.329  0.0990 -0.0860 -0.1652
  985POPC   NC311809  16.372   9.549  19.184 -0.2013 -0.0439  0.0027
  985POPC   PO411810  16.187   9.780  18.927  0.0809  0.2471 -0.1936
  985POPC   GL111811  16.304   9.592  18.555 -0.1186  0.0358  0.1222
  985POPC   GL211812  16.258   9.898  18.403 -0.0254  0.0348 -0.1836
  985POPC   C1A11813  16.512   9.523  18.151  0.0187 -0.1482 -0.0601
  985POPC   D2A11814  16.671   9.642  17.705  0.1924 -0.0853  0.0957
  985POPC   C3A11815  17.074   9.718  17.622  0.0922 -0.0728 -0.0190
  985POPC   C4A11816  17.497   9.573  17.502 -0.2063 -0.2139 -0.1341
  985POPC   C1B11817  16.226  10.133  18.022  0.1071 -0.2164 -0.2658
  985POPC   C2B11818  16.246  10.127  17.526  0.1128 -0.1138 -0.1614
  985POPC   C3B11819  16.320  10.080  17.079  0.1449 -0.1510 -0.0546
  985POPC   C4B11820  16.491   9.863  16.699  0.1256  0.3412  0.0642
  986POPC   NC311821  13.088  24.887  19.652 -0.1449 -0.1502 -0.0956
  986POPC   PO411822  13.427  24.924  19.400  0.1508  0.2956 -0.1261
  986POPC   GL111823  13.727  25.019  19.062  0.0414 -0.1120  0.0972
  986POPC   GL211824  13.569  24.885  18.885  0.0650  0.0657 -0.0967
  986POPC   C1A11825  13.769  25.459  18.977  0.0442 -0.2562  0.0130
  986POPC   D2A11826  14.035  25.683  18.659  0.0160 -0.2197  0.0778
  986POPC   C3A11827  14.065  26.010  18.252  0.1882  0.3831 -0.3602
  986POPC   C4A11828  14.266  26.153  17.816  0.2302 -0.2055 -0.2067
  986POPC   C1B11829  13.375  24.808  18.495  0.1520  0.1768  0.0782
  986POPC   C2B11830  13.302  24.858  18.042 -0.2479 -0.1186 -0.1798
  986POPC   C3B11831  13.139  24.980  17.613 -0.2228  0.1702  0.1125
  986POPC   C4B11832  12.658  25.029  17.605 -0.0885  0.0172  0.2020
  987POPC   NC311833   7.950  10.666  19.127 -0.2113 -0.1519 -0.1302
  987POPC   PO411834   7.583  10.754  18.981  0.2716  0.1190 -0.0245
  987POPC   GL111835   7.801  10.940  18.717  0.0574 -0.0299 -0.2197
  987POPC   GL211836   7.645  11.166  18.612  0.2084  0.3491  0.2024
  987POPC   C1A11837   7.887  10.843  18.274 -0.0812 -0.0789 -0.0896
  987POPC   D2A11838   7.745  10.926  17.804 -0.0204  0.1281  0.0220
  987POPC   C3A11839   7.979  10.833  17.462 -0.0711 -0.1602 -0.0623
  987POPC   C4A11840   8.337  10.648  17.256  0.1270 -0.1883  0.0038
  987POPC   C1B11841   7.647  11.387  18.177 -0.0458  0.0838 -0.0343
  987POPC   C2B11842   7.515  11.368  17.726  0.2308 -0.5240  0.0678
  987POPC   C3B11843   7.272  11.472  17.362 -0.0970  0.2104 -0.1588
  987POPC   C4B11844   7.240  11.774  17.035  0.1178 -0.0924 -0.0671
  988POPC   NC311845  21.406  11.389  19.522  0.1230  0.2841 -0.2230
  988POPC   PO411846  21.324  11.794  19.562  0.1099  0.1954 -0.0275
  988POPC   GL111847  21.413  11.794  19.160  0.3646 -0.4889 -0.0984
  988POPC   GL211848  21.343  11.515  19.058  0.0268  0.3664  0.2289
  988POPC   C1A11849  21.835  11.715  19.065  0.2329  0.1477  0.0225
  988POPC   D2A11850  22.066  11.785  18.645 -0.4257 -0.3112  0.0931
  988POPC   C3A11851  22.537  11.756  18.668 -0.2118 -0.2640 -0.2795
  988POPC   C4A11852  22.870  11.768  18.941 -0.2269  0.0558 -0.3229
  988POPC   C1B11853  21.016  11.627  18.724  0.1032  0.2342 -0.1448
  988POPC   C2B11854  21.147  11.655  18.301 -0.5325 -0.0325 -0.3095
  988POPC   C3B11855  21.231  11.797  17.867 -0.1149  0.2750  0.2125
  988POPC   C4B11856  21.003  11.868  17.488 -0.0585 -0.2151 -0.0063
  989POPC   NC311857  18.364  17.675  19.220  0.0473 -0.0692 -0.2323
  989POPC   PO411858  18.526  17.864  18.943 -0.0302 -0.0001 -0.0517
  989POPC   GL111859  18.463  17.943  18.573 -0.4726  0.2497 -0.1416
  989POPC   GL211860  18.764  17.761  18.487  0.3196  0.0373  0.0830
  989POPC   C1A11861  18.604  18.150  18.240  0.4902 -0.1343  0.0702
  989POPC   D2A11862  18.561  18.457  17.928  0.2914 -0.2902  0.1959
  989POPC   C3A11863  18.895  18.448  17.548  0.1216 -0.0950 -0.1219
  989POPC   C4A11864  19.234  18.450  17.242 -0.3383 -0.3155 -0.1932
  989POPC   C1B11865  18.791  17.686  18.065  0.1141 -0.0918  0.0444
  989POPC   C2B11866  18.794  17.351  17.771  0.2773 -0.1084  0.2889
  989POPC   C3B11867  18.689  16.881  17.896 -0.0280  0.0903 -0.1593
  989POPC   C4B11868  18.596  16.621  18.257  0.0810 -0.2354  0.1178
  990POPC   NC311869  31.074  24.492  18.593  0.2072 -0.5655  0.0618
  990POPC   PO411870  31.359  24.299  18.789  0.2433 -0.0318  0.1706
  990POPC   GL111871  31.652  24.413  18.467 -0.2026 -0.0966  0.5396
  990POPC   GL211872  31.490  24.186  18.362 -0.2856 -0.3866  0.2558
  990POPC   C1A11873  31.889  24.412  18.076  0.1118  0.4356 -0.1045
  990POPC   D2A11874  31.973  24.592  17.640  0.1057  0.0285  0.1225
  990POPC   C3A11875  32.133  24.171  17.589 -0.1132  0.3216  0.1621
  990POPC   C4A11876  32.161  23.778  17.359  0.2776  0.2143  0.1586
  990POPC   C1B11877  31.381  24.222  17.940 -0.1868 -0.1138 -0.0925
  990POPC   C2B11878  31.557  24.339  17.484 -0.0055  0.0444  0.1452
  990POPC   C3B11879  31.779  24.217  17.104  0.1436  0.1572 -0.0686
  990POPC   C4B11880  32.001  23.905  16.871 -0.1805  0.2644  0.0910
  991POPC   NC311881   9.043   6.649  19.466  0.1793 -0.0336  0.0197
  991POPC   PO411882   9.048   7.048  19.427 -0.1974 -0.1019  0.0409
  991POPC   GL111883   8.894   7.074  19.042  0.0847  0.1458 -0.0461
  991POPC   GL211884   8.987   6.816  18.936 -0.0503 -0.0614  0.2675
  991POPC   C1A11885   9.059   7.263  18.654 -0.0267  0.1429  0.1557
  991POPC   D2A11886   9.188   7.109  18.238  0.0434 -0.0939 -0.3014
  991POPC   C3A11887   9.227   7.072  17.818  0.2190  0.2463  0.1178
  991POPC   C4A11888   9.225   7.109  17.373  0.1402 -0.0270 -0.3423
  991POPC   C1B11889   9.064   6.716  18.480  0.3561 -0.1913 -0.1542
  991POPC   C2B11890   9.380   6.648  18.160 -0.0732  0.0767  0.0267
  991POPC   C3B11891   9.433   6.388  17.735 -0.1785 -0.0891 -0.0604
  991POPC   C4B11892   9.696   6.040  17.857  0.2873  0.1636  0.0403
  992POPC   NC311893  21.414   4.002  18.940  0.2431 -0.2477  0.2873
  992POPC   PO411894  21.633   3.707  19.033 -0.0465  0.2997 -0.0140
  992POPC   GL111895  21.478   3.610  18.633 -0.2021  0.0946  0.0657
  992POPC   GL211896  21.239   3.689  18.546  0.0657  0.0632 -0.0485
  992POPC   C1A11897  21.750   3.261  18.387  0.0568  0.0819  0.0322
  992POPC   D2A11898  21.609   3.081  17.977 -0.2119  0.1790  0.1020
  992POPC   C3A11899  21.396   3.096  17.585  0.0354 -0.1627  0.3313
  992POPC   C4A11900  21.311   3.333  17.189  0.0223 -0.0415  0.0344
  992POPC   C1B11901  21.373   3.608  18.140 -0.1365  0.0603  0.0463
  992POPC   C2B11902  21.350   3.586  17.692 -0.1947  0.1610 -0.1158
  992POPC   C3B11903  21.126   3.755  17.356 -0.3063  0.0961  0.0035
  992POPC   C4B11904  20.939   3.653  16.985  0.1572  0.2184 -0.2554
  993POPC   NC311905  28.283  15.417  18.993 -0.1872  0.3058 -0.1333
  993POPC   PO411906  28.221  15.069  19.209 -0.1088  0.0877 -0.0932
  993POPC   GL111907  28.261  14.908  18.840 -0.3504  0.0246 -0.1852
  993POPC   GL211908  28.314  14.598  18.802  0.0150  0.0634 -0.0785
  993POPC   C1A11909  28.293  14.856  18.371 -0.0988  0.1215 -0.0615
  993POPC   D2A11910  28.519  14.750  17.962  0.2518  0.1142 -0.0107
  993POPC   C3A11911  28.342  14.550  17.605  0.0430 -0.1479  0.3313
  993POPC   C4A11912  28.460  14.754  17.233 -0.1236  0.0169 -0.5160
  993POPC   C1B11913  27.913  14.655  18.540  0.0924 -0.2363 -0.1912
  993POPC   C2B11914  27.964  14.607  18.086  0.0187  0.2643 -0.0336
  993POPC   C3B11915  27.918  14.728  17.638 -0.1693  0.0824  0.3562
  993POPC   C4B11916  27.938  14.640  17.193 -0.4457  0.2570  0.1000
  994POPC   NC311917  17.318   9.764  18.992 -0.0934 -0.2413  0.1424
  994POPC   PO411918  17.329  10.187  18.996  0.0885  0.3397 -0.0228
  994POPC   GL111919  17.115  10.231  18.728  0.0167 -0.0736  0.0654
  994POPC   GL211920  17.059  10.483  18.694  0.0498 -0.1547  0.3535
  994POPC   C1A11921  17.219  10.136  18.304 -0.0002 -0.0117  0.1865
  994POPC   D2A11922  16.988   9.765  18.091 -0.0661  0.0886  0.1138
  994POPC   C3A11923  17.069   9.320  18.038  0.0601  0.0189  0.2067
  994POPC   C4A11924  16.760   8.959  18.088 -0.2278  0.0880  0.2187
  994POPC   C1B11925  17.408  10.688  18.513 -0.2262 -0.2456  0.1933
  994POPC   C2B11926  17.545  11.125  18.377 -0.3286  0.2842 -0.0891
  994POPC   C3B11927  17.678  11.351  17.949  0.1960  0.4261 -0.0603
  994POPC   C4B11928  17.742  11.582  17.588 -0.0328 -0.1529 -0.2555
  995POPC   NC311929   2.258  24.622  19.150 -0.1156  0.0929  0.1032
  995POPC   PO411930   2.118  24.235  19.297  0.2282  0.1877  0.0860
  995POPC   GL111931   2.179  24.188  18.959  0.0179 -0.0035  0.0553
  995POPC   GL211932   1.933  24.261  18.855 -0.1823  0.0264  0.0235
  995POPC   C1A11933   2.536  24.283  18.651  0.1530  0.0841 -0.0056
  995POPC   D2A11934   2.791  23.993  18.432 -0.1572  0.1182 -0.0507
  995POPC   C3A11935   3.017  24.102  18.006 -0.1050  0.1779 -0.3721
  995POPC   C4A11936   3.031  24.228  17.543 -0.0237  0.1010 -0.0817
  995POPC   C1B11937   2.059  24.078  18.460  0.0435  0.2142  0.1346
  995POPC   C2B11938   2.404  24.107  18.100  0.4563  0.0235 -0.0574
  995POPC   C3B11939   2.596  24.248  17.728  0.2418  0.1236  0.0046
  995POPC   C4B11940   2.497  24.254  17.326  0.0266  0.0394  0.0339
  996POPC   NC311941  26.454  23.508  19.207  0.2020 -0.2903 -0.1678
  996POPC   PO411942  26.187  23.667  19.479  0.1947  0.0307 -0.1475
  996POPC   GL111943  26.006  23.816  19.069 -0.0695  0.1181  0.0998
  996POPC   GL211944  25.680  23.966  19.057 -0.1309  0.2557  0.4348
  996POPC   C1A11945  26.211  24.194  18.870  0.3355 -0.0501  0.0487
  996POPC   D2A11946  25.983  24.533  18.712  0.0455  0.1479  0.1524
  996POPC   C3A11947  26.005  24.653  18.255 -0.1833 -0.1534  0.3341
  996POPC   C4A11948  25.829  24.981  18.092  0.2754 -0.0151 -0.0550
  996POPC   C1B11949  25.847  23.817  18.623 -0.0748  0.1463  0.1304
  996POPC   C2B11950  25.943  23.681  18.235  0.2210  0.1058  0.0667
  996POPC   C3B11951  26.098  23.813  17.807 -0.2250 -0.0946 -0.1016
  996POPC   C4B11952  26.155  23.541  17.443  0.3022  0.2033 -0.0205
  997POPC   NC311953  25.439  21.574  19.600 -0.1788 -0.0483 -0.1133
  997POPC   PO411954  25.576  21.395  19.266 -0.0288 -0.1752 -0.2137
  997POPC   GL111955  25.419  21.522  18.941  0.1028  0.1121 -0.0958
  997POPC   GL211956  25.130  21.621  19.089  0.0861 -0.0137 -0.2287
  997POPC   C1A11957  25.282  21.402  18.534  0.1330 -0.1615 -0.0372
  997POPC   D2A11958  25.353  21.362  18.063 -0.2565  0.0098 -0.4492
  997POPC   C3A11959  25.369  21.373  17.610  0.1378  0.2183 -0.3364
  997POPC   C4A11960  25.172  21.368  17.227  0.1022 -0.0603  0.1114
  997POPC   C1B11961  25.230  21.971  18.757 -0.2055 -0.0477  0.2930
  997POPC   C2B11962  25.229  21.914  18.316  0.0546  0.2135  0.2907
  997POPC   C3B11963  25.227  21.880  17.806  0.2524 -0.3491 -0.1014
  997POPC   C4B11964  25.327  21.813  17.383 -0.1428  0.1824 -0.2459
  998POPC   NC311965  26.599   5.482  19.568  0.1748 -0.2494 -0.0026
  998POPC   PO411966  26.640   5.686  19.233 -0.1357 -0.3466 -0.0968
  998POPC   GL111967  26.710   5.870  18.813  0.1942 -0.0578  0.2313
  998POPC   GL211968  26.478   5.937  18.680  0.0959  0.0292  0.0690
  998POPC   C1A11969  26.790   5.649  18.407 -0.0006 -0.0343 -0.1112
  998POPC   D2A11970  26.746   5.723  17.966  0.0330 -0.2421  0.3592
  998POPC   C3A11971  26.724   5.339  17.699  0.1748  0.0559 -0.1174
  998POPC   C4A11972  26.856   5.011  17.375  0.3696  0.0460  0.1781
  998POPC   C1B11973  26.289   6.014  18.220 -0.3216  0.0050  0.0791
  998POPC   C2B11974  26.327   6.104  17.779  0.0603 -0.2726  0.1171
  998POPC   C3B11975  26.130   6.228  17.422 -0.0972 -0.1838  0.0866
  998POPC   C4B11976  26.160   6.427  16.999 -0.2495 -0.2230 -0.1107
  999POPC   NC311977  16.110   0.528  19.320 -0.1277 -0.3977  0.0946
  999POPC   PO411978  15.924   0.592  18.951  0.2509 -0.0874  0.1274
  999POPC   GL111979  16.081   0.623  18.609 -0.0009  0.1046  0.0506
  999POPC   GL211980  16.127   1.000  18.449 -0.0796 -0.0004  0.2866
  999POPC   C1A11981  16.267   0.491  18.222  0.0203 -0.0750 -0.0124
  999POPC   D2A11982  16.340   0.219  17.882  0.0495  0.0296  0.0841
  999POPC   C3A11983  16.576  -0.129  17.929 -0.2161 -0.1495  0.0729
  999POPC   C4A11984  16.882  -0.470  17.955  0.2408  0.1889  0.0097
  999POPC   C1B11985  16.268   1.118  18.042  0.1573 -0.0789 -0.2202
  999POPC   C2B11986  16.131   1.335  17.658  0.0117  0.0648  0.0467
  999POPC   C3B11987  16.084   1.746  17.389  0.1153 -0.1032  0.2318
  999POPC   C4B11988  15.997   2.135  17.280  0.1516 -0.2702 -0.0603
 1000POPC   NC311989   3.719  29.679  19.180 -0.1736 -0.0686  0.2303
 1000POPC   PO411990   3.591  29.458  18.890 -0.3308  0.0872 -0.2103
 1000POPC   GL111991   3.844  29.349  18.556 -0.1338 -0.2038  0.0395
 1000POPC   GL211992   3.644  29.519  18.421  0.1026 -0.3136 -0.2025
 1000POPC   C1A11993   4.178  29.382  18.204 -0.0966 -0.1280  0.1027
 1000POPC   D2A11994   4.248  29.473  17.719 -0.3899  0.0500 -0.0870
 1000POPC   C3A11995   4.497  29.602  17.353  0.5857 -0.0389 -0.2854
 1000POPC   C4A11996   4.920  29.630  17.110  0.1796 -0.1838 -0.0646
 1000POPC   C1B11997   3.509  29.423  17.994  0.0773 -0.1632 -0.1239
 1000POPC   C2B11998   3.685  29.425  17.598 -0.0495 -0.4012 -0.3707
 1000POPC   C3B11999   3.641  29.383  17.143  0.0349  0.0880  0.0562
 1000POPC   C4B12000   3.684  29.269  16.623 -0.0792  0.0404  0.0122
 1001POPC   NC312001  17.734  30.619  19.472  0.0299  0.0581 -0.0064
 1001POPC   PO412002  18.055  30.442  19.304  0.0998  0.0397  0.0157
 1001POPC   GL112003  18.024  30.254  18.978 -0.1187  0.0177 -0.0032
 1001POPC   GL212004  18.279  30.078  18.821 -0.1004 -0.2860  0.0613
 1001POPC   C1A12005  17.824  29.904  18.824  0.1781  0.0168 -0.2335
 1001POPC   D2A12006  17.607  29.649  18.545 -0.0261  0.2013 -0.0289
 1001POPC   C3A12007  17.602  29.640  18.120  0.2161 -0.5110  0.0015
 1001POPC   C4A12008  17.615  29.713  17.694 -0.1047  0.1436  0.0223
 1001POPC   C1B12009  18.244  30.288  18.404  0.1199  0.2041  0.0281
 1001POPC   C2B12010  18.109  30.296  17.958  0.0249  0.0700 -0.2768
 1001POPC   C3B12011  18.174  30.581  17.585 -0.0869  0.0196  0.0630
 1001POPC   C4B12012  18.167  30.933  17.240  0.2575  0.0308 -0.0225
 1002POPC   NC312013  28.276  23.844  19.632  0.1502  0.3204  0.1502
 1002POPC   PO412014  28.173  24.012  19.335  0.0613 -0.1871 -0.0635
 1002POPC   GL112015  28.278  23.723  19.037 -0.1618 -0.0451 -0.3729
 1002POPC   GL212016  28.109  23.845  18.833 -0.0487  0.0650  0.1345
 1002POPC   C1A12017  28.680  23.648  18.798 -0.1357  0.2905 -0.4376
 1002POPC   D2A12018  28.674  23.728  18.327 -0.0461 -0.2606 -0.1444
 1002POPC   C3A12019  28.772  24.138  18.050 -0.0208  0.3072  0.2910
 1002POPC   C4A12020  28.767  24.166  17.628 -0.0916  0.0375 -0.3468
 1002POPC   C1B12021  28.243  23.527  18.499  0.0498 -0.1722  0.1510
 1002POPC   C2B12022  28.446  23.398  18.077  0.3312  0.0091 -0.3249
 1002POPC   C3B12023  28.783  23.343  17.775  0.1698  0.0673 -0.1586
 1002POPC   C4B12024  28.629  23.250  17.323  0.2947 -0.0728 -0.0744
 1003POPC   NC312025   2.569   1.915  19.100 -0.0888  0.1452  0.0167
 1003POPC   PO412026   2.410   2.137  18.857  0.0979  0.3690 -0.1167
 1003POPC   GL112027   2.572   1.988  18.531 -0.3858  0.2607 -0.3933
 1003POPC   GL212028   2.325   2.160  18.364 -0.0722  0.0322  0.1592
 1003POPC   C1A12029   2.802   2.120  18.150 -0.0124  0.0150  0.2046
 1003POPC   D2A12030   3.009   2.015  17.750 -0.1765  0.1925 -0.1124
 1003POPC   C3A12031   3.008   2.376  17.417 -0.3738 -0.0140 -0.0363
 1003POPC   C4A12032   3.160   2.680  17.088  0.1048 -0.1003  0.2290
 1003POPC   C1B12033   2.277   1.744  18.208 -0.1578 -0.1609  0.2000
 1003POPC   C2B12034   2.377   1.637  17.768  0.1491  0.1061  0.3049
 1003POPC   C3B12035   2.416   1.420  17.329  0.0214  0.1375 -0.3033
 1003POPC   C4B12036   2.429   1.292  16.869 -0.0461 -0.0808  0.3145
 1004POPC   NC312037  12.987  26.958  19.251  0.0893  0.0290 -0.0159
 1004POPC   PO412038  12.855  26.622  19.363  0.0785  0.2022  0.0833
 1004POPC   GL112039  13.168  26.570  18.984  0.2073 -0.2593 -0.0501
 1004POPC   GL212040  12.900  26.641  18.852 -0.0589  0.0265  0.1757
 1004POPC   C1A12041  13.319  26.309  18.617 -0.0823 -0.0155 -0.0068
 1004POPC   D2A12042  13.203  26.170  18.183  0.0234  0.0616  0.0653
 1004POPC   C3A12043  12.945  26.184  17.798  0.0760 -0.2905  0.1018
 1004POPC   C4A12044  12.625  26.331  17.519  0.3524 -0.0537 -0.0260
 1004POPC   C1B12045  12.846  26.787  18.422  0.0034 -0.1923  0.0380
 1004POPC   C2B12046  12.908  26.808  18.001 -0.0857 -0.2786  0.1647
 1004POPC   C3B12047  13.067  26.629  17.640  0.1619  0.1631 -0.4531
 1004POPC   C4B12048  13.207  26.731  17.204 -0.0483  0.1413  0.1945
 1005POPC   NC312049  13.217   7.781  18.867  0.1341 -0.1255  0.1704
 1005POPC   PO412050  13.104   7.960  19.210  0.1245 -0.4408  0.1878
 1005POPC   GL112051  12.817   8.028  18.865 -0.1450 -0.0238 -0.2380
 1005POPC   GL212052  12.858   8.146  18.527  0.0328  0.0704 -0.4406
 1005POPC   C1A12053  12.342   7.867  18.934 -0.4153 -0.1369 -0.1557
 1005POPC   D2A12054  11.903   7.897  18.795  0.0474 -0.1872  0.3706
 1005POPC   C3A12055  11.598   8.037  18.450 -0.0473 -0.0993  0.0506
 1005POPC   C4A12056  11.349   8.010  18.076  0.2341 -0.0148 -0.1528
 1005POPC   C1B12057  12.698   8.207  18.084  0.0814  0.0245  0.1802
 1005POPC   C2B12058  12.504   8.275  17.658  0.1131  0.0247  0.0543
 1005POPC   C3B12059  12.202   8.269  17.340 -0.3531  0.2039  0.2114
 1005POPC   C4B12060  11.826   8.183  17.053 -0.3323 -0.0948 -0.0762
 1006POPC   NC312061  12.684   3.032  19.797 -0.0416  0.1693  0.0065
 1006POPC   PO412062  12.714   3.086  19.418  0.2615  0.3262 -0.0168
 1006POPC   GL112063  12.818   3.284  19.070 -0.1762  0.0184 -0.0652
 1006POPC   GL212064  13.068   3.080  18.933 -0.1198 -0.0216  0.1548
 1006POPC   C1A12065  12.467   3.163  18.810 -0.0430  0.0925  0.0008
 1006POPC   D2A12066  12.147   3.397  18.601  0.3434 -0.1092 -0.1053
 1006POPC   C3A12067  12.043   3.376  18.138  0.2593  0.0722  0.1558
 1006POPC   C4A12068  11.762   3.115  17.900  0.2833  0.1446  0.1354
 1006POPC   C1B12069  13.414   3.181  18.695 -0.0041 -0.1357  0.1155
 1006POPC   C2B12070  13.436   3.511  18.362  0.1253  0.1656 -0.0132
 1006POPC   C3B12071  13.326   3.839  18.057 -0.1424  0.3807 -0.1452
 1006POPC   C4B12072  13.366   4.251  17.978  0.2857 -0.0605 -0.1734
 1007POPC   NC312073   8.260   6.941  19.477  0.0056  0.1278  0.3943
 1007POPC   PO412074   8.552   6.726  19.253  0.0422 -0.0134  0.2843
 1007POPC   GL112075   8.480   6.926  18.863 -0.0962 -0.2806 -0.1749
 1007POPC   GL212076   8.193   7.036  18.938 -0.0860  0.0515 -0.0333
 1007POPC   C1A12077   8.651   6.993  18.425 -0.2547 -0.2482 -0.1108
 1007POPC   D2A12078   8.738   7.013  17.966  0.0242 -0.2526 -0.3779
 1007POPC   C3A12079   8.671   7.222  17.630 -0.1901 -0.1252 -0.0481
 1007POPC   C4A12080   8.509   6.939  17.297 -0.1317 -0.1551  0.2469
 1007POPC   C1B12081   8.092   6.813  18.506 -0.2946  0.2482  0.5042
 1007POPC   C2B12082   8.330   6.678  18.159 -0.1900  0.0786 -0.0838
 1007POPC   C3B12083   8.452   6.670  17.703 -0.1062 -0.1589  0.3218
 1007POPC   C4B12084   8.495   6.407  17.288  0.0037  0.0198  0.0560
 1008POPC   NC312085  11.535   6.648  19.991 -0.2272  0.0607 -0.2179
 1008POPC   PO412086  11.532   6.451  19.634  0.0663 -0.1272 -0.0049
 1008POPC   GL112087  11.538   6.563  19.229 -0.0008  0.0586 -0.0660
 1008POPC   GL212088  11.429   6.789  19.126 -0.0312 -0.1634 -0.1592
 1008POPC   C1A12089  11.882   6.831  19.061 -0.2157  0.0365 -0.3254
 1008POPC   D2A12090  12.015   7.284  19.021 -0.3327  0.0138  0.1590
 1008POPC   C3A12091  11.778   7.477  18.609 -0.0728 -0.2010 -0.3893
 1008POPC   C4A12092  11.404   7.482  18.292 -0.2510  0.0268 -0.2692
 1008POPC   C1B12093  11.354   6.646  18.642 -0.5092 -0.1940  0.0012
 1008POPC   C2B12094  11.413   6.655  18.174  0.0335  0.3264  0.1307
 1008POPC   C3B12095  11.145   6.454  17.843 -0.1971  0.2283 -0.2695
 1008POPC   C4B12096  11.038   6.511  17.396 -0.2749  0.0444  0.0512
 1009POPC   NC312097   6.615  23.429  19.451  0.0715  0.0707 -0.0430
 1009POPC   PO412098   6.278  23.572  19.304 -0.0157  0.2595 -0.0218
 1009POPC   GL112099   6.324  23.311  19.059  0.1330 -0.2035  0.0785
 1009POPC   GL212100   6.144  23.408  18.825  0.1229 -0.1860 -0.2485
 1009POPC   C1A12101   6.689  23.027  18.880  0.2521  0.3313 -0.0176
 1009POPC   D2A12102   6.931  22.744  18.660 -0.1678 -0.1381  0.2058
 1009POPC   C3A12103   7.242  22.749  18.272  0.1176 -0.2418 -0.0046
 1009POPC   C4A12104   7.424  22.549  17.886 -0.1647  0.0379  0.0173
 1009POPC   C1B12105   6.145  23.169  18.421  0.2056 -0.0585  0.3342
 1009POPC   C2B12106   6.114  22.768  18.153  0.0425  0.0979 -0.2240
 1009POPC   C3B12107   6.021  22.497  17.760  0.0153  0.0561 -0.2004
 1009POPC   C4B12108   6.137  22.031  17.777  0.1895  0.1525  0.1034
 1010POPC   NC312109   7.857   5.364  19.428 -0.1836 -0.2089  0.0549
 1010POPC   PO412110   8.019   5.032  19.346 -0.0450  0.0065 -0.1784
 1010POPC   GL112111   8.019   5.058  19.005 -0.1906 -0.0533 -0.1407
 1010POPC   GL212112   8.076   5.333  18.909 -0.0177 -0.0560 -0.2887
 1010POPC   C1A12113   7.818   5.001  18.578 -0.0553  0.1685 -0.0225
 1010POPC   D2A12114   7.632   4.948  18.181  0.1908  0.0326  0.0007
 1010POPC   C3A12115   7.644   4.793  17.673  0.1512 -0.2217 -0.2653
 1010POPC   C4A12116   7.451   4.552  17.348 -0.2192  0.1164  0.1409
 1010POPC   C1B12117   8.275   5.311  18.507  0.0511 -0.0082  0.0863
 1010POPC   C2B12118   8.350   5.423  18.067  0.2103  0.2516  0.0497
 1010POPC   C3B12119   8.165   5.647  17.639 -0.1635  0.0897  0.0474
 1010POPC   C4B12120   7.983   5.598  17.188 -0.0099  0.0674 -0.1623
 1011POPC   NC312121  24.869  19.290  19.508 -0.2617  0.1046 -0.0140
 1011POPC   PO412122  25.245  19.279  19.430 -0.0071  0.0800 -0.0200
 1011POPC   GL112123  25.068  19.184  19.053  0.1153  0.2956  0.1731
 1011POPC   GL212124  25.154  18.952  18.926  0.2271 -0.1227  0.2504
 1011POPC   C1A12125  24.878  19.266  18.612  0.3224  0.3899  0.0153
 1011POPC   D2A12126  24.885  19.241  18.158  0.4119  0.1057 -0.1140
 1011POPC   C3A12127  24.635  18.830  18.162  0.3478  0.1628  0.0105
 1011POPC   C4A12128  24.559  18.432  18.383 -0.3151 -0.2692  0.3996
 1011POPC   C1B12129  25.029  18.747  18.455  0.3761  0.1889 -0.1828
 1011POPC   C2B12130  25.278  18.654  18.060 -0.0894 -0.0311 -0.3957
 1011POPC   C3B12131  25.327  18.438  17.617 -0.0904  0.0799 -0.0602
 1011POPC   C4B12132  25.561  18.239  17.244  0.0080  0.3255 -0.0524
 1012POPC   NC312133  28.400   5.646  18.935 -0.1013  0.1138  0.1649
 1012POPC   PO412134  28.711   5.866  19.001 -0.2579  0.0146  0.1338
 1012POPC   GL112135  28.654   5.938  18.664 -0.1378  0.3023  0.0925
 1012POPC   GL212136  28.878   6.013  18.441  0.1034 -0.0698  0.0956
 1012POPC   C1A12137  28.572   5.739  18.189  0.0786  0.2995 -0.0584
 1012POPC   D2A12138  28.476   5.596  17.749 -0.1156 -0.0019 -0.4161
 1012POPC   C3A12139  28.720   5.379  17.457 -0.0354  0.0465 -0.0978
 1012POPC   C4A12140  28.941   5.287  17.089  0.1574 -0.0155  0.0203
 1012POPC   C1B12141  28.948   6.064  17.972  0.0918 -0.1149 -0.0200
 1012POPC   C2B12142  28.864   5.880  17.569  0.0823 -0.0200  0.1874
 1012POPC   C3B12143  28.720   5.811  17.149  0.1685  0.0402  0.1307
 1012POPC   C4B12144  28.357   5.669  16.826 -0.0336 -0.0400 -0.0194
 1013POPC   NC312145   4.869  27.583  19.763  0.0511  0.0004 -0.1519
 1013POPC   PO412146   5.035  27.518  19.410  0.1423  0.0383  0.0866
 1013POPC   GL112147   5.332  27.491  19.067  0.0019  0.0527 -0.1302
 1013POPC   GL212148   5.517  27.693  18.952 -0.0090  0.0266  0.2136
 1013POPC   C1A12149   5.349  27.158  18.732 -0.1845 -0.0639 -0.1947
 1013POPC   D2A12150   5.179  26.789  18.523 -0.1245 -0.5730 -0.0641
 1013POPC   C3A12151   5.233  26.789  18.051 -0.2439  0.2679  0.2003
 1013POPC   C4A12152   5.319  26.499  17.657 -0.0877 -0.0361 -0.0449
 1013POPC   C1B12153   5.310  27.722  18.565 -0.5001  0.2653  0.1536
 1013POPC   C2B12154   5.282  27.867  18.087  0.1386  0.1597  0.1063
 1013POPC   C3B12155   5.409  28.042  17.678  0.0283 -0.4169 -0.1351
 1013POPC   C4B12156   5.560  27.904  17.238 -0.2990  0.2995 -0.0616
 1014POPC   NC312157  20.363  18.233  19.511  0.0605  0.1797  0.1116
 1014POPC   PO412158  20.538  18.253  19.166 -0.1752  0.2232  0.0645
 1014POPC   GL112159  20.610  18.626  19.042 -0.0034 -0.2212  0.0704
 1014POPC   GL212160  20.409  18.582  18.817 -0.3959 -0.0459  0.0172
 1014POPC   C1A12161  21.027  18.814  18.909  0.0319 -0.3517 -0.1339
 1014POPC   D2A12162  21.256  18.764  18.544 -0.1238  0.1608 -0.0359
 1014POPC   C3A12163  21.557  19.012  18.310  0.2844 -0.2910  0.0782
 1014POPC   C4A12164  21.965  19.056  18.131 -0.2409 -0.1035  0.1161
 1014POPC   C1B12165  20.749  18.741  18.516  0.2111 -0.3618 -0.2189
 1014POPC   C2B12166  20.998  19.066  18.308 -0.0887 -0.0923 -0.1690
 1014POPC   C3B12167  21.294  19.258  18.004 -0.1837  0.0990 -0.1174
 1014POPC   C4B12168  21.631  19.205  17.783  0.1957  0.3059  0.1721
 1015POPC   NC312169  22.314  27.344  19.652 -0.0005  0.1572 -0.0472
 1015POPC   PO412170  22.455  27.035  19.378  0.0951 -0.2316 -0.1205
 1015POPC   GL112171  22.518  26.972  18.977  0.0900 -0.3331  0.0378
 1015POPC   GL212172  22.798  26.878  18.984  0.0398 -0.0885  0.0204
 1015POPC   C1A12173  22.496  27.075  18.559  0.1889  0.1036  0.3397
 1015POPC   D2A12174  22.714  27.230  18.160 -0.0868  0.1882 -0.3141
 1015POPC   C3A12175  23.103  27.374  18.222 -0.0988  0.3452  0.1380
 1015POPC   C4A12176  23.439  27.570  18.346 -0.3720 -0.1332 -0.0708
 1015POPC   C1B12177  22.971  26.938  18.577  0.1009 -0.1449  0.1517
 1015POPC   C2B12178  23.038  26.839  18.143  0.1140 -0.2651 -0.1703
 1015POPC   C3B12179  23.342  26.914  17.740  0.0499 -0.1738  0.2762
 1015POPC   C4B12180  23.391  26.739  17.293 -0.0124 -0.0349  0.2996
 1016POPC   NC312181  30.630  21.355  19.171 -0.3006 -0.2863 -0.0585
 1016POPC   PO412182  30.815  21.047  19.367  0.1688  0.1155 -0.0552
 1016POPC   GL112183  30.762  20.869  19.058  0.3949 -0.0460  0.0423
 1016POPC   GL212184  30.724  20.570  19.026 -0.1234 -0.1627 -0.0270
 1016POPC   C1A12185  30.648  21.121  18.681 -0.0709 -0.1012 -0.0869
 1016POPC   D2A12186  30.699  21.095  18.206  0.0188  0.0479 -0.2284
 1016POPC   C3A12187  31.040  20.883  18.201 -0.2136 -0.0545 -0.0153
 1016POPC   C4A12188  31.465  20.752  18.081  0.0546 -0.0535  0.0810
 1016POPC   C1B12189  30.629  20.558  18.550  0.2053  0.4296  0.0363
 1016POPC   C2B12190  30.610  20.561  18.098  0.0252  0.0444 -0.1117
 1016POPC   C3B12191  30.698  20.516  17.622 -0.0751 -0.3319  0.2018
 1016POPC   C4B12192  30.910  20.418  17.269  0.0162  0.1133 -0.0425
 1017POPC   NC312193   7.366   7.638  19.455 -0.2541 -0.1165  0.1940
 1017POPC   PO412194   7.639   7.848  19.269 -0.2967  0.0577 -0.0699
 1017POPC   GL112195   7.560   7.727  18.888  0.1547 -0.4341  0.0591
 1017POPC   GL212196   7.884   7.686  18.903 -0.0148 -0.1925  0.1141
 1017POPC   C1A12197   7.428   7.595  18.485  0.1314  0.0755  0.2617
 1017POPC   D2A12198   7.398   7.415  18.107 -0.1801 -0.3562  0.1728
 1017POPC   C3A12199   7.779   7.357  17.882  0.1230 -0.0529 -0.1767
 1017POPC   C4A12200   8.207   7.529  17.785  0.1939 -0.1526  0.1394
 1017POPC   C1B12201   7.902   7.693  18.461 -0.0056  0.1445 -0.0607
 1017POPC   C2B12202   7.877   7.791  18.057 -0.1133 -0.0597  0.1039
 1017POPC   C3B12203   7.904   7.968  17.658  0.3320  0.0356  0.0060
 1017POPC   C4B12204   8.027   7.731  17.272  0.1270 -0.1301  0.0279
 1018POPC   NC312205   5.089  14.650  19.184 -0.1332 -0.2509  0.1353
 1018POPC   PO412206   5.129  14.284  19.298 -0.2213  0.0666  0.1587
 1018POPC   GL112207   5.171  14.324  18.858  0.0466  0.0776  0.3964
 1018POPC   GL212208   5.174  14.031  18.858 -0.1845  0.3758 -0.0193
 1018POPC   C1A12209   5.529  14.262  18.473  0.0155  0.3843  0.0114
 1018POPC   D2A12210   5.809  14.191  18.134  0.1591  0.1068  0.2215
 1018POPC   C3A12211   6.151  14.295  17.828 -0.1185 -0.1383  0.1579
 1018POPC   C4A12212   5.995  14.327  17.383  0.0889  0.1808  0.1731
 1018POPC   C1B12213   5.208  13.729  18.477 -0.0268 -0.2808 -0.3697
 1018POPC   C2B12214   5.212  13.656  18.010 -0.2138 -0.2261 -0.0405
 1018POPC   C3B12215   5.392  13.506  17.617 -0.2186 -0.3233 -0.3639
 1018POPC   C4B12216   5.669  13.689  17.289  0.2754 -0.0190 -0.1465
 1019POPC   NC312217  27.364   5.349  18.978 -0.0351  0.2250 -0.1690
 1019POPC   PO412218  26.950   5.415  18.937 -0.0525 -0.0503  0.1003
 1019POPC   GL112219  27.117   5.690  18.687 -0.0317  0.3768 -0.0540
 1019POPC   GL212220  27.439   5.780  18.694 -0.3444 -0.1898  0.0045
 1019POPC   C1A12221  27.213   5.861  18.287 -0.0723 -0.0141 -0.0033
 1019POPC   D2A12222  27.347   6.030  17.904 -0.0912 -0.0360  0.1063
 1019POPC   C3A12223  27.178   5.772  17.578  0.2988  0.0973  0.0622
 1019POPC   C4A12224  26.968   5.496  17.309 -0.0275  0.3112  0.0074
 1019POPC   C1B12225  27.794   5.946  18.490  0.0621 -0.2764  0.1053
 1019POPC   C2B12226  28.031   5.943  18.056 -0.0471  0.1266  0.1771
 1019POPC   C3B12227  27.933   5.799  17.626  0.2455 -0.2473 -0.2297
 1019POPC   C4B12228  28.286   5.798  17.377 -0.0235 -0.3695  0.0976
 1020POPC   NC312229   0.183  12.995  19.529 -0.1142 -0.2765  0.2156
 1020POPC   PO412230   0.277  12.674  19.417 -0.2766  0.0250  0.1484
 1020POPC   GL112231   0.149  12.822  19.116  0.1328 -0.0952  0.1409
 1020POPC   GL212232  -0.133  12.932  19.118 -0.0880 -0.0110 -0.1805
 1020POPC   C1A12233   0.461  12.967  18.751  0.1490 -0.1758 -0.1729
 1020POPC   D2A12234   0.669  13.089  18.389  0.2269 -0.1599 -0.0831
 1020POPC   C3A12235   0.736  13.025  17.973  0.2160  0.0829 -0.0323
 1020POPC   C4A12236   1.022  12.797  17.640  0.0336  0.1291 -0.0047
 1020POPC   C1B12237  -0.077  13.044  18.659  0.0176  0.1213 -0.1282
 1020POPC   C2B12238   0.192  13.108  18.263  0.2750 -0.2954  0.2032
 1020POPC   C3B12239   0.436  13.404  18.001 -0.0285  0.0342 -0.2170
 1020POPC   C4B12240   0.655  13.476  17.632 -0.0765 -0.3797  0.0320
 1021POPC   NC312241  29.313   1.628  20.061  0.0538  0.0721  0.4397
 1021POPC   PO412242  29.250   1.412  19.713  0.1827  0.0456  0.0839
 1021POPC   GL112243  29.435   1.540  19.387 -0.1359  0.2626 -0.0476
 1021POPC   GL212244  29.214   1.603  19.233 -0.1371 -0.3231 -0.1607
 1021POPC   C1A12245  29.566   1.312  18.984  0.1469  0.1772  0.0147
 1021POPC   D2A12246  29.553   1.344  18.556 -0.2641  0.1702 -0.1121
 1021POPC   C3A12247  29.538   1.501  18.140  0.1310  0.0246 -0.1384
 1021POPC   C4A12248  29.565   1.658  17.702  0.2575  0.3280  0.1423
 1021POPC   C1B12249  29.265   1.666  18.767  0.3254  0.0077 -0.0829
 1021POPC   C2B12250  29.515   1.874  18.466  0.1082  0.0897 -0.0218
 1021POPC   C3B12251  29.775   2.012  18.093 -0.0247 -0.3538 -0.3053
 1021POPC   C4B12252  29.789   2.054  17.673  0.1502 -0.0185  0.0240
 1022POPC   NC312253  20.997  22.947  19.342  0.0343 -0.1143 -0.0719
 1022POPC   PO412254  21.268  23.081  19.106  0.1481  0.1736  0.0679
 1022POPC   GL112255  21.451  23.113  18.837 -0.1675 -0.1601  0.1900
 1022POPC   GL212256  21.640  22.880  18.772 -0.0449  0.4127  0.2372
 1022POPC   C1A12257  21.537  23.272  18.377 -0.0737 -0.0972 -0.0629
 1022POPC   D2A12258  21.707  23.208  17.954  0.0081  0.0506 -0.0829
 1022POPC   C3A12259  21.445  23.022  17.608  0.1987  0.0612 -0.0352
 1022POPC   C4A12260  21.290  22.736  17.262  0.0857  0.0362  0.0483
 1022POPC   C1B12261  21.769  22.695  18.410  0.0248  0.0011  0.0937
 1022POPC   C2B12262  21.640  22.616  17.953  0.1636 -0.1590 -0.1656
 1022POPC   C3B12263  21.743  22.652  17.540  0.1448 -0.0939  0.1729
 1022POPC   C4B12264  21.675  22.523  17.078  0.0163 -0.1113  0.0773
 1023POPC   NC312265   1.349   7.458  19.811 -0.1160 -0.1026  0.0198
 1023POPC   PO412266   1.208   7.123  19.877 -0.0439  0.1389 -0.2362
 1023POPC   GL112267   1.385   6.836  19.769  0.1852  0.4322  0.2308
 1023POPC   GL212268   1.539   6.723  19.544  0.0134 -0.0154  0.2164
 1023POPC   C1A12269   1.435   6.409  19.949  0.2826  0.0249 -0.0140
 1023POPC   D2A12270   1.303   6.026  19.967 -0.1189  0.0596  0.1468
 1023POPC   C3A12271   1.497   5.767  19.608  0.4214 -0.0097  0.3852
 1023POPC   C4A12272   1.914   5.772  19.416 -0.0194 -0.1135  0.3452
 1023POPC   C1B12273   1.658   6.592  19.111 -0.0264 -0.3688  0.1977
 1023POPC   C2B12274   1.856   6.317  18.824 -0.1957  0.1241 -0.2048
 1023POPC   C3B12275   1.782   6.027  18.476 -0.0138  0.0465  0.1557
 1023POPC   C4B12276   1.581   6.084  18.067  0.1370  0.2928 -0.2677
 1024POPC   NC312277   4.596   2.855  19.479 -0.0696 -0.1547 -0.2846
 1024POPC   PO412278   4.575   2.492  19.374 -0.1328 -0.1766 -0.1941
 1024POPC   GL112279   4.687   2.620  19.046  0.0347  0.0244  0.2011
 1024POPC   GL212280   4.616   2.924  18.934  0.0478 -0.3440  0.1202
 1024POPC   C1A12281   4.988   2.500  18.674  0.0464  0.1180 -0.1285
 1024POPC   D2A12282   4.953   2.460  18.208  0.3414 -0.2008 -0.1404
 1024POPC   C3A12283   4.761   1.994  18.082  0.0474 -0.1781  0.2383
 1024POPC   C4A12284   4.662   1.542  17.946  0.2656 -0.2359 -0.0539
 1024POPC   C1B12285   4.654   2.834  18.491 -0.2526 -0.5391  0.2404
 1024POPC   C2B12286   4.813   2.970  18.118  0.0664 -0.2924  0.2135
 1024POPC   C3B12287   5.025   3.187  17.793 -0.2929  0.2713  0.1838
 1024POPC   C4B12288   5.187   3.409  17.434 -0.1185  0.2461 -0.1250
 1025POPC   NC312289   2.240   3.442  19.151  0.1700 -0.1229  0.0569
 1025POPC   PO412290   2.360   3.768  18.945 -0.2956  0.0984 -0.2644
 1025POPC   GL112291   2.406   3.491  18.631 -0.1954  0.1336 -0.1030
 1025POPC   GL212292   2.361   3.190  18.733  0.3235 -0.0386  0.1020
 1025POPC   C1A12293   2.146   3.336  18.282 -0.0004  0.0829 -0.0373
 1025POPC   D2A12294   1.869   3.042  18.049  0.0208 -0.0432  0.2707
 1025POPC   C3A12295   1.461   3.203  17.977  0.0360 -0.1323  0.0854
 1025POPC   C4A12296   1.112   3.294  17.727 -0.0147 -0.0010 -0.0472
 1025POPC   C1B12297   2.655   3.231  18.410 -0.1048  0.1262  0.3097
 1025POPC   C2B12298   2.998   3.331  18.065 -0.0263  0.0194  0.0011
 1025POPC   C3B12299   3.324   3.351  17.716  0.1685 -0.0642 -0.2166
 1025POPC   C4B12300   3.698   3.414  17.461 -0.1968  0.4791  0.2989
 1026POPC   NC312301   2.260  28.223  19.415  0.2523  0.0679  0.0743
 1026POPC   PO412302   1.986  28.516  19.342 -0.0333  0.0832  0.0693
 1026POPC   GL112303   2.023  28.340  18.954 -0.1668  0.5222  0.0710
 1026POPC   GL212304   2.052  28.089  19.001  0.0321  0.2249  0.2241
 1026POPC   C1A12305   1.734  28.432  18.584  0.2200  0.0043 -0.0584
 1026POPC   D2A12306   1.425  28.579  18.241  0.0396 -0.1710  0.0738
 1026POPC   C3A12307   1.622  28.862  17.940  0.1792  0.0678  0.1103
 1026POPC   C4A12308   1.909  29.088  17.664  0.1514  0.1072  0.1927
 1026POPC   C1B12309   2.195  27.637  18.910  0.0476 -0.0131  0.3893
 1026POPC   C2B12310   2.095  27.434  18.497 -0.0907  0.1711  0.2450
 1026POPC   C3B12311   1.805  27.538  18.114 -0.2079  0.1239 -0.2793
 1026POPC   C4B12312   1.848  27.750  17.732 -0.2261 -0.3808  0.0502
 1027POPC   NC312313   4.257  14.678  19.686  0.2015 -0.0991  0.1166
 1027POPC   PO412314   4.038  14.518  19.445 -0.2042 -0.0348  0.3230
 1027POPC   GL112315   3.905  14.664  19.083  0.1278 -0.0083  0.2540
 1027POPC   GL212316   3.698  14.468  19.030  0.2557 -0.2443 -0.1008
 1027POPC   C1A12317   3.880  14.727  18.612  0.1710 -0.0583 -0.3337
 1027POPC   D2A12318   3.729  14.577  18.181 -0.2432  0.1655 -0.1426
 1027POPC   C3A12319   3.326  14.405  18.089  0.0708 -0.3696 -0.0511
 1027POPC   C4A12320   3.134  14.211  17.778  0.2635 -0.0954  0.3214
 1027POPC   C1B12321   3.860  14.172  18.755 -0.1636  0.0650  0.5846
 1027POPC   C2B12322   3.853  14.042  18.288 -0.0209 -0.0150  0.1427
 1027POPC   C3B12323   3.802  13.920  17.825 -0.0029 -0.1695 -0.1854
 1027POPC   C4B12324   4.132  13.951  17.499  0.0960 -0.0930  0.1812
 1028POPC   NC312325  23.113  23.449  19.333 -0.0792  0.0666  0.4261
 1028POPC   PO412326  23.535  23.415  19.407 -0.2553 -0.2371 -0.2590
 1028POPC   GL112327  23.481  23.377  19.027  0.0237  0.2089 -0.2195
 1028POPC   GL212328  23.332  23.117  18.971 -0.1654 -0.0756  0.3098
 1028POPC   C1A12329  23.746  23.555  18.687  0.2502 -0.1479  0.0327
 1028POPC   D2A12330  23.865  23.654  18.252  0.0441 -0.1376 -0.3111
 1028POPC   C3A12331  23.860  23.696  17.833 -0.1782  0.0292 -0.0457
 1028POPC   C4A12332  24.100  23.831  17.495  0.3652  0.0219  0.0385
 1028POPC   C1B12333  23.331  23.143  18.488 -0.1083 -0.0680  0.0485
 1028POPC   C2B12334  23.518  23.346  18.119 -0.2209 -0.1669 -0.0172
 1028POPC   C3B12335  23.517  23.294  17.620 -0.1360 -0.1776 -0.2487
 1028POPC   C4B12336  23.237  23.457  17.264  0.0299  0.2208  0.2398
 1029POPC   NC312337   2.137  30.533  18.749 -0.0507  0.1472 -0.0359
 1029POPC   PO412338   2.109  30.149  18.779  0.1922 -0.0106 -0.0421
 1029POPC   GL112339   2.050  30.272  18.348 -0.5195  0.0604 -0.5419
 1029POPC   GL212340   2.020  29.999  18.256  0.0144  0.0922  0.0984
 1029POPC   C1A12341   1.691  30.331  18.044  0.0591  0.3618  0.2721
 1029POPC   D2A12342   1.542  30.113  17.651  0.0468  0.0296  0.0949
 1029POPC   C3A12343   1.691  29.774  17.379 -0.0586  0.1397 -0.0656
 1029POPC   C4A12344   1.891  29.403  17.149 -0.2639 -0.3803  0.1105
 1029POPC   C1B12345   2.023  29.845  17.781 -0.0887  0.0265  0.1150
 1029POPC   C2B12346   2.235  29.600  17.483 -0.0846 -0.2946 -0.0908
 1029POPC   C3B12347   2.683  29.567  17.402 -0.3306 -0.1116 -0.0233
 1029POPC   C4B12348   2.975  29.929  17.392 -0.1254 -0.1988  0.0780
 1030POPC   NC312349  11.834  16.055  19.073  0.4184  0.0452  0.0237
 1030POPC   PO412350  11.705  15.801  19.327  0.1424  0.0172  0.1037
 1030POPC   GL112351  11.761  15.552  18.900 -0.1022  0.0766 -0.3779
 1030POPC   GL212352  11.558  15.512  18.681 -0.3080  0.1795 -0.0822
 1030POPC   C1A12353  11.924  15.705  18.489  0.0825 -0.0451  0.1727
 1030POPC   D2A12354  11.818  15.987  18.132 -0.0715 -0.1398 -0.2549
 1030POPC   C3A12355  12.131  15.856  17.825  0.0943 -0.0727  0.1013
 1030POPC   C4A12356  12.467  15.812  17.456  0.0587 -0.1303  0.1318
 1030POPC   C1B12357  11.370  15.732  18.283 -0.2394 -0.1596  0.2779
 1030POPC   C2B12358  11.287  15.892  17.839 -0.1946 -0.0220  0.1146
 1030POPC   C3B12359  11.225  16.009  17.397  0.3939  0.0764 -0.0175
 1030POPC   C4B12360  11.053  16.166  17.030 -0.1322  0.2045  0.2518
 1031POPC   NC312361   5.274  25.346  19.238  0.2742  0.0573  0.1039
 1031POPC   PO412362   5.301  25.728  19.214 -0.2502 -0.0760 -0.0936
 1031POPC   GL112363   5.128  25.750  18.892 -0.4430  0.1086  0.0872
 1031POPC   GL212364   4.836  25.738  19.024 -0.0467 -0.1850  0.0398
 1031POPC   C1A12365   5.314  25.930  18.540  0.3850  0.0059  0.2153
 1031POPC   D2A12366   5.237  25.965  18.095 -0.0146  0.2682  0.1461
 1031POPC   C3A12367   5.189  25.913  17.629  0.0586  0.1791 -0.0790
 1031POPC   C4A12368   5.180  26.038  17.221  0.1736 -0.0349 -0.5281
 1031POPC   C1B12369   4.786  25.991  18.632 -0.2418  0.2118 -0.3427
 1031POPC   C2B12370   4.729  25.999  18.140 -0.0580  0.2096 -0.2790
 1031POPC   C3B12371   4.586  25.718  17.793  0.0791 -0.1403 -0.1529
 1031POPC   C4B12372   4.574  25.324  17.604 -0.0997  0.0754  0.2690
 1032POPC   NC312373  27.835  21.768  19.220 -0.4024 -0.0749  0.2462
 1032POPC   PO412374  27.615  22.060  19.214 -0.1354 -0.2245  0.2184
 1032POPC   GL112375  27.641  21.947  18.824  0.1689 -0.0314  0.1361
 1032POPC   GL212376  27.728  22.196  18.707  0.1671 -0.1309 -0.1444
 1032POPC   C1A12377  27.667  21.871  18.357 -0.0386  0.1167 -0.0311
 1032POPC   D2A12378  27.691  22.149  17.910 -0.1337 -0.0423  0.3828
 1032POPC   C3A12379  27.940  22.274  17.558 -0.0665  0.0259  0.0798
 1032POPC   C4A12380  28.235  22.409  17.221  0.1771 -0.0236 -0.0686
 1032POPC   C1B12381  27.812  22.344  18.343  0.1780  0.0251 -0.3889
 1032POPC   C2B12382  27.849  22.631  17.907  0.3161 -0.0777 -0.3114
 1032POPC   C3B12383  27.620  22.864  17.585 -0.2351 -0.1324 -0.0352
 1032POPC   C4B12384  27.230  22.848  17.291 -0.0665  0.0702  0.0218
 1033POPC   NC312385   4.470  30.726  18.809  0.0071 -0.0519  0.2027
 1033POPC   PO412386   4.199  30.448  18.925 -0.0103 -0.0638  0.3163
 1033POPC   GL112387   4.288  30.307  18.629  0.0657  0.0010  0.3027
 1033POPC   GL212388   3.999  30.260  18.454 -0.2886 -0.3798  0.0566
 1033POPC   C1A12389   4.376  30.583  18.284 -0.0964  0.1168  0.0051
 1033POPC   D2A12390   4.610  30.858  18.014 -0.1398 -0.2778  0.0726
 1033POPC   C3A12391   4.790  30.924  17.599 -0.2072  0.1074  0.0998
 1033POPC   C4A12392   4.681  30.741  17.239 -0.1933  0.4842 -0.1932
 1033POPC   C1B12393   3.956  30.377  17.978  0.0277 -0.1143 -0.0036
 1033POPC   C2B12394   3.875  30.353  17.513  0.1175 -0.0796 -0.3165
 1033POPC   C3B12395   3.943  30.327  17.043 -0.0810 -0.2332 -0.1307
 1033POPC   C4B12396   3.842  30.249  16.603 -0.0201 -0.1153 -0.0420
 1034POPC   NC312397  16.419  11.478  19.632 -0.0815  0.0264 -0.2990
 1034POPC   PO412398  16.427  11.319  19.277 -0.4174  0.0490 -0.1368
 1034POPC   GL112399  16.602  11.577  18.956  0.3343  0.2784 -0.1285
 1034POPC   GL212400  16.593  11.393  18.658  0.3175 -0.3036 -0.2396
 1034POPC   C1A12401  16.921  11.742  18.621  0.2236 -0.1806 -0.2624
 1034POPC   D2A12402  17.173  11.880  18.273 -0.1205 -0.2156 -0.0601
 1034POPC   C3A12403  17.111  12.124  17.914  0.1412  0.0828 -0.3111
 1034POPC   C4A12404  17.126  12.447  17.622 -0.1987  0.0587  0.0745
 1034POPC   C1B12405  16.601  11.583  18.209 -0.1683  0.2137  0.3372
 1034POPC   C2B12406  16.829  11.635  17.791 -0.3237 -0.0405  0.0100
 1034POPC   C3B12407  16.923  11.960  17.434  0.3794 -0.1467  0.0608
 1034POPC   C4B12408  16.692  12.322  17.253 -0.0538  0.2633  0.0909
 1035POPC   NC312409  23.242  26.788  19.155  0.1596  0.0863  0.0852
 1035POPC   PO412410  23.368  27.145  19.213  0.3242  0.1587 -0.0250
 1035POPC   GL112411  23.568  26.983  18.824  0.2537  0.3069 -0.1278
 1035POPC   GL212412  23.419  27.164  18.688 -0.0126  0.0562  0.2334
 1035POPC   C1A12413  23.407  26.681  18.463 -0.0166 -0.1802 -0.2519
 1035POPC   D2A12414  23.362  26.313  18.163 -0.1378  0.0536 -0.0881
 1035POPC   C3A12415  23.392  26.446  17.777  0.0235 -0.0949  0.2759
 1035POPC   C4A12416  23.644  26.318  17.434  0.0542  0.2007  0.0447
 1035POPC   C1B12417  23.506  27.116  18.220  0.0767 -0.0264 -0.2499
 1035POPC   C2B12418  23.726  26.754  17.970  0.1269 -0.2793 -0.3224
 1035POPC   C3B12419  23.837  26.794  17.505  0.0277  0.0557 -0.3113
 1035POPC   C4B12420  23.927  26.992  17.126 -0.0781  0.0118 -0.3378
 1036POPC   NC312421  21.373  22.645  19.496  0.0399  0.2344 -0.0723
 1036POPC   PO412422  21.647  22.480  19.253  0.1645 -0.1485  0.0441
 1036POPC   GL112423  21.575  22.284  18.865  0.2174  0.0041  0.1117
 1036POPC   GL212424  21.869  22.253  18.752 -0.0689 -0.0897 -0.0629
 1036POPC   C1A12425  21.219  22.333  18.540 -0.5140 -0.0492  0.0691
 1036POPC   D2A12426  21.242  22.226  18.067 -0.0246 -0.1043 -0.0240
 1036POPC   C3A12427  20.898  22.132  17.727  0.4115  0.2460 -0.0245
 1036POPC   C4A12428  20.696  21.933  17.362 -0.1856 -0.1540  0.0563
 1036POPC   C1B12429  21.609  21.905  18.544  0.0880  0.1082  0.1939
 1036POPC   C2B12430  21.567  21.792  18.104 -0.1344 -0.0288 -0.0241
 1036POPC   C3B12431  21.560  21.578  17.696  0.0052  0.2413  0.0534
 1036POPC   C4B12432  21.369  21.270  17.494  0.0522 -0.0301  0.0773
 1037POPC   NC312433   6.025  16.834  19.154 -0.2133 -0.1028  0.0469
 1037POPC   PO412434   6.014  16.462  19.304 -0.0239 -0.3095 -0.1260
 1037POPC   GL112435   6.078  16.218  18.999  0.0384 -0.2660  0.1688
 1037POPC   GL212436   6.171  15.952  19.075  0.0051  0.3132 -0.3163
 1037POPC   C1A12437   5.922  15.827  18.696  0.0127  0.0437  0.0826
 1037POPC   D2A12438   5.577  15.788  18.400 -0.1327 -0.0751 -0.2682
 1037POPC   C3A12439   5.588  15.663  17.986  0.2621 -0.0548 -0.2783
 1037POPC   C4A12440   5.608  15.578  17.526  0.1520  0.1381 -0.4395
 1037POPC   C1B12441   6.281  16.108  18.628  0.0656  0.0313 -0.1923
 1037POPC   C2B12442   6.199  16.344  18.245 -0.0866  0.1219 -0.1728
 1037POPC   C3B12443   6.130  16.516  17.837  0.0206  0.0678  0.0184
 1037POPC   C4B12444   6.202  16.728  17.451 -0.2069 -0.1724  0.1673
 1038POPC   NC312445   8.780  13.731  19.574  0.1539 -0.1417 -0.2752
 1038POPC   PO412446   9.020  13.521  19.363 -0.2765  0.0111 -0.2564
 1038POPC   GL112447   8.899  13.721  18.991  0.1134  0.1522  0.3582
 1038POPC   GL212448   9.097  13.606  18.819 -0.0083 -0.0879  0.0460
 1038POPC   C1A12449   8.621  13.632  18.600  0.1777 -0.6147  0.2203
 1038POPC   D2A12450   8.543  13.769  18.118 -0.0621  0.0338  0.1212
 1038POPC   C3A12451   8.088  13.822  17.966 -0.0122  0.1472 -0.0191
 1038POPC   C4A12452   8.030  14.022  17.535 -0.0280  0.0081  0.1093
 1038POPC   C1B12453   9.213  14.038  18.888  0.0516  0.0811 -0.0839
 1038POPC   C2B12454   9.095  14.466  19.045  0.4427 -0.0327  0.1279
 1038POPC   C3B12455   8.683  14.738  19.105  0.1175  0.0928 -0.2909
 1038POPC   C4B12456   8.273  14.750  19.415 -0.2328  0.4522 -0.1259
 1039POPC   NC312457  13.581  24.431  19.132 -0.3376  0.0259  0.3073
 1039POPC   PO412458  13.969  24.522  19.171  0.0020  0.0336 -0.1526
 1039POPC   GL112459  13.975  24.563  18.713 -0.0703 -0.1029  0.1479
 1039POPC   GL212460  13.784  24.456  18.669 -0.1121  0.1844 -0.1024
 1039POPC   C1A12461  14.276  24.762  18.425  0.1661 -0.0250  0.2973
 1039POPC   D2A12462  14.357  25.132  18.256 -0.3195 -0.3357 -0.1718
 1039POPC   C3A12463  14.544  25.130  17.831  0.0243 -0.0919 -0.1364
 1039POPC   C4A12464  14.756  24.813  17.592  0.3763 -0.0360 -0.3137
 1039POPC   C1B12465  13.804  24.500  18.227 -0.0798 -0.2021 -0.1598
 1039POPC   C2B12466  13.730  24.684  17.836  0.0518 -0.0435  0.0837
 1039POPC   C3B12467  13.733  24.815  17.379  0.1221 -0.1875  0.0720
 1039POPC   C4B12468  13.830  24.653  16.994  0.4275 -0.0141  0.0227
 1040POPC   NC312469  11.680  23.458  19.570  0.0717  0.1800  0.2987
 1040POPC   PO412470  11.631  23.486  19.191  0.5422 -0.0795 -0.0158
 1040POPC   GL112471  11.644  23.457  18.807  0.1317  0.2730 -0.2097
 1040POPC   GL212472  11.947  23.349  18.680  0.2453 -0.3340  0.0530
 1040POPC   C1A12473  11.445  23.508  18.364 -0.1294  0.1942  0.0354
 1040POPC   D2A12474  11.474  23.581  17.878  0.0079  0.1512  0.0264
 1040POPC   C3A12475  11.804  23.340  17.624  0.1431  0.2387  0.2866
 1040POPC   C4A12476  12.060  23.024  17.557  0.1700 -0.0512 -0.3198
 1040POPC   C1B12477  12.013  22.907  18.651 -0.3093 -0.1623  0.1514
 1040POPC   C2B12478  12.330  22.596  18.500 -0.1937 -0.2390 -0.1604
 1040POPC   C3B12479  12.756  22.592  18.288 -0.0184  0.1999 -0.4140
 1040POPC   C4B12480  12.810  22.725  17.885  0.1701  0.0333 -0.1056
 1041POPC   NC312481  22.768   7.611  19.254  0.2047  0.1491 -0.0591
 1041POPC   PO412482  22.459   7.397  19.385  0.1417 -0.0617 -0.0799
 1041POPC   GL112483  22.566   7.205  19.009 -0.5137  0.0198  0.1140
 1041POPC   GL212484  22.314   7.043  19.047  0.1158  0.2824  0.2534
 1041POPC   C1A12485  22.650   7.174  18.515 -0.0576 -0.1771  0.0754
 1041POPC   D2A12486  22.617   7.252  18.071  0.1143 -0.2202 -0.0807
 1041POPC   C3A12487  22.613   7.060  17.638  0.0379  0.1780 -0.0055
 1041POPC   C4A12488  22.269   7.239  17.357  0.0402 -0.0728  0.0474
 1041POPC   C1B12489  22.157   6.946  18.655  0.1329 -0.0550 -0.1766
 1041POPC   C2B12490  22.100   7.079  18.233  0.1402 -0.1069  0.5346
 1041POPC   C3B12491  22.196   6.866  17.818  0.4494  0.1872 -0.6493
 1041POPC   C4B12492  22.219   6.757  17.370  0.2029  0.1652 -0.0357
 1042POPC   NC312493  25.641  27.123  19.078 -0.0212 -0.0847  0.0835
 1042POPC   PO412494  25.439  27.432  19.192  0.0706 -0.3183  0.1403
 1042POPC   GL112495  25.592  27.502  18.746 -0.0309  0.0007 -0.0438
 1042POPC   GL212496  25.471  27.754  18.753  0.0460  0.0341 -0.1019
 1042POPC   C1A12497  25.771  27.078  18.585 -0.1392 -0.0284  0.3403
 1042POPC   D2A12498  25.773  26.810  18.251  0.6103  0.0004  0.0925
 1042POPC   C3A12499  26.108  26.487  18.208 -0.1415 -0.2254 -0.2310
 1042POPC   C4A12500  26.408  26.213  18.327  0.2530 -0.1143  0.3389
 1042POPC   C1B12501  25.707  27.695  18.295 -0.0316  0.2529  0.1416
 1042POPC   C2B12502  25.759  27.764  17.861  0.0973 -0.1326  0.1146
 1042POPC   C3B12503  25.500  27.966  17.434  0.3109  0.0450 -0.0929
 1042POPC   C4B12504  25.225  28.098  17.028  0.3511 -0.1566 -0.1268
 1043POPC   NC312505   3.814   9.411  18.834 -0.0078 -0.0037  0.0278
 1043POPC   PO412506   3.714   9.716  19.068  0.0969  0.3102 -0.0841
 1043POPC   GL112507   3.589   9.987  18.782  0.1083  0.0708 -0.2025
 1043POPC   GL212508   3.771  10.196  18.722  0.0715 -0.2521  0.1519
 1043POPC   C1A12509   3.229  10.001  18.489  0.0479  0.0487  0.1157
 1043POPC   D2A12510   3.300  10.022  18.071 -0.0044 -0.2681  0.1312
 1043POPC   C3A12511   3.506   9.631  17.890 -0.0949 -0.2619  0.0960
 1043POPC   C4A12512   3.466   9.203  17.707  0.1244 -0.1234  0.1787
 1043POPC   C1B12513   3.516  10.433  18.417 -0.1186 -0.0484 -0.1313
 1043POPC   C2B12514   3.434  10.674  18.053 -0.1157  0.1552  0.1446
 1043POPC   C3B12515   3.297  11.129  17.948  0.1859 -0.2571  0.1132
 1043POPC   C4B12516   3.040  11.426  17.706  0.1372  0.0598  0.0311
 1044POPC   NC312517  12.743   8.296  19.229 -0.1227  0.4318 -0.0991
 1044POPC   PO412518  12.568   8.397  19.548  0.0077 -0.2954  0.0005
 1044POPC   GL112519  12.309   8.567  19.306 -0.1391  0.2570 -0.1745
 1044POPC   GL212520  12.048   8.560  19.413 -0.0347  0.0032 -0.0138
 1044POPC   C1A12521  12.312   8.833  18.876 -0.1494 -0.0641  0.2266
 1044POPC   D2A12522  12.020   8.984  18.518 -0.4445  0.0763 -0.1627
 1044POPC   C3A12523  12.253   8.952  18.118 -0.2103  0.0315  0.0627
 1044POPC   C4A12524  12.557   8.711  17.908  0.1769 -0.0705  0.1190
 1044POPC   C1B12525  11.988   8.450  18.976 -0.0854  0.1718 -0.0210
 1044POPC   C2B12526  11.928   8.488  18.505 -0.1641 -0.2329 -0.2950
 1044POPC   C3B12527  11.684   8.379  18.102  0.1110  0.0895 -0.0312
 1044POPC   C4B12528  11.366   8.572  17.919  0.1218 -0.2251  0.1843
 1045POPC   NC312529  20.675  30.434  19.714  0.2913  0.1685  0.2061
 1045POPC   PO412530  20.351  30.548  19.521  0.0661 -0.1866  0.3065
 1045POPC   GL112531  20.592  30.561  19.209  0.1927 -0.2796 -0.3650
 1045POPC   GL212532  20.490  30.317  19.061 -0.3903 -0.0119 -0.2082
 1045POPC   C1A12533  20.544  30.772  18.801  0.1663 -0.2546  0.0919
 1045POPC   D2A12534  20.588  30.710  18.346  0.1962 -0.0216  0.0732
 1045POPC   C3A12535  20.529  30.402  18.026 -0.0105  0.3027 -0.1431
 1045POPC   C4A12536  20.912  30.144  17.864  0.0577  0.0104 -0.2247
 1045POPC   C1B12537  20.848  30.389  18.793  0.1974 -0.1352  0.3677
 1045POPC   C2B12538  21.024  30.745  18.575 -0.0235 -0.3431  0.1851
 1045POPC   C3B12539  21.216  30.940  18.200 -0.0876 -0.1258  0.1595
 1045POPC   C4B12540  21.555  31.195  18.216  0.1615  0.1360  0.0959
 1046POPC   NC312541   3.218  11.607  19.210 -0.1739 -0.1607 -0.2747
 1046POPC   PO412542   3.202  11.908  19.470 -0.2041  0.1873  0.0760
 1046POPC   GL112543   3.072  12.097  19.147 -0.3882 -0.3249 -0.1419
 1046POPC   GL212544   2.815  11.985  19.095 -0.2907 -0.3499 -0.3529
 1046POPC   C1A12545   2.879  12.452  18.949  0.3156 -0.2562  0.0221
 1046POPC   D2A12546   2.583  12.580  18.631  0.0308 -0.0658  0.0332
 1046POPC   C3A12547   2.880  12.567  18.302  0.1605 -0.1264 -0.0029
 1046POPC   C4A12548   3.248  12.414  18.033  0.2382 -0.2119  0.1145
 1046POPC   C1B12549   2.715  11.972  18.689 -0.0209  0.0071  0.0489
 1046POPC   C2B12550   2.621  11.803  18.260  0.1680 -0.0341 -0.1903
 1046POPC   C3B12551   2.447  11.723  17.888  0.2328  0.2476 -0.0481
 1046POPC   C4B12552   2.613  11.647  17.479  0.2329 -0.0463  0.0536
 1047POPC   NC312553  10.834  31.234  19.306  0.1384 -0.1286 -0.2776
 1047POPC   PO412554  11.033  31.583  19.442  0.1777 -0.1024  0.1157
 1047POPC   GL112555  10.969  31.602  19.122 -0.1447 -0.2980  0.1166
 1047POPC   GL212556  11.195  31.520  18.915  0.0919 -0.0299 -0.2957
 1047POPC   C1A12557  10.526  31.811  19.032 -0.1686 -0.0586  0.1446
 1047POPC   D2A12558  10.266  32.150  19.057  0.3688  0.2658  0.4325
 1047POPC   C3A12559   9.847  32.293  19.246  0.1896  0.1151 -0.0030
 1047POPC   C4A12560   9.694  32.717  19.369 -0.0038 -0.1136  0.0688
 1047POPC   C1B12561  10.879  31.739  18.623 -0.0932  0.0259  0.0840
 1047POPC   C2B12562  10.798  31.937  18.179  0.2815 -0.3785  0.0073
 1047POPC   C3B12563  10.495  32.125  17.847  0.1341  0.2466  0.0265
 1047POPC   C4B12564  10.375  32.269  17.446 -0.0033  0.1238 -0.0191
 1048POPC   NC312565  17.048   4.711  19.341 -0.2054  0.2296  0.0268
 1048POPC   PO412566  17.130   5.087  19.352  0.1677  0.0065  0.2224
 1048POPC   GL112567  17.166   5.241  19.048  0.3159 -0.0278 -0.0479
 1048POPC   GL212568  17.498   5.270  18.985 -0.1255  0.0661  0.0613
 1048POPC   C1A12569  17.180   5.603  18.770 -0.2486 -0.2633  0.0183
 1048POPC   D2A12570  17.133   6.035  18.463 -0.1313  0.3319 -0.0388
 1048POPC   C3A12571  17.173   6.141  18.005 -0.3337  0.1168 -0.0770
 1048POPC   C4A12572  17.117   6.152  17.569  0.1248  0.2725 -0.1146
 1048POPC   C1B12573  17.734   5.354  18.599  0.0123 -0.0957  0.1500
 1048POPC   C2B12574  17.862   5.492  18.180  0.0299 -0.1516  0.0757
 1048POPC   C3B12575  17.673   5.739  17.826 -0.0458 -0.1232  0.0578
 1048POPC   C4B12576  17.840   5.943  17.476  0.0171 -0.1619  0.0968
 1049POPC   NC312577  29.700  22.072  19.040 -0.0836  0.0773  0.1174
 1049POPC   PO412578  29.587  21.694  19.144 -0.1561  0.0607  0.1307
 1049POPC   GL112579  29.511  21.343  19.059 -0.1875  0.1196 -0.3196
 1049POPC   GL212580  29.237  21.363  18.938  0.1144  0.2090  0.0789
 1049POPC   C1A12581  29.675  21.115  18.738 -0.1423 -0.0644  0.2396
 1049POPC   D2A12582  30.110  21.035  18.532  0.0052  0.0222 -0.0313
 1049POPC   C3A12583  30.199  20.989  18.059 -0.0070  0.0601  0.0050
 1049POPC   C4A12584  30.278  20.784  17.659 -0.0583 -0.1516  0.0639
 1049POPC   C1B12585  29.345  21.324  18.463 -0.2159 -0.0229  0.0459
 1049POPC   C2B12586  29.287  21.310  18.036 -0.1690  0.0299 -0.0776
 1049POPC   C3B12587  29.359  21.108  17.663  0.3239  0.0161 -0.0352
 1049POPC   C4B12588  29.500  20.975  17.240  0.2957 -0.0558 -0.1016
 1050POPC   NC312589   8.710   8.301  19.583 -0.0372  0.0937  0.1445
 1050POPC   PO412590   8.523   8.248  19.183  0.3961  0.1706  0.1253
 1050POPC   GL112591   8.605   8.128  18.791  0.0220 -0.3236  0.3329
 1050POPC   GL212592   8.369   7.911  18.681  0.0439  0.0837 -0.0283
 1050POPC   C1A12593   8.796   8.068  18.378  0.0307  0.0209 -0.0930
 1050POPC   D2A12594   9.051   8.048  17.947  0.0278  0.0979 -0.2012
 1050POPC   C3A12595   9.307   8.471  17.966 -0.0994 -0.1165 -0.2847
 1050POPC   C4A12596   9.467   8.547  17.554  0.1383 -0.3645 -0.1642
 1050POPC   C1B12597   8.408   7.807  18.201  0.0283  0.2031 -0.2301
 1050POPC   C2B12598   8.598   7.865  17.758  0.0576  0.0262 -0.3185
 1050POPC   C3B12599   8.700   7.666  17.334  0.2491  0.1984 -0.2107
 1050POPC   C4B12600   8.820   7.661  16.917  0.3074 -0.0480 -0.2414
 1051POPC   NC312601  21.575   1.352  18.811  0.2257 -0.0647 -0.0354
 1051POPC   PO412602  21.876   1.375  19.072 -0.1626  0.1220  0.1552
 1051POPC   GL112603  21.993   1.354  18.691 -0.2664 -0.0650  0.2738
 1051POPC   GL212604  21.887   1.214  18.486 -0.1439 -0.1290 -0.1790
 1051POPC   C1A12605  22.381   1.172  18.451 -0.3246 -0.0853  0.0077
 1051POPC   D2A12606  22.809   1.050  18.297 -0.2112 -0.2708  0.3644
 1051POPC   C3A12607  23.265   1.009  18.462 -0.1926 -0.0584 -0.2058
 1051POPC   C4A12608  23.538   0.806  18.784 -0.2532  0.0376  0.2158
 1051POPC   C1B12609  21.973   1.330  18.059 -0.1067  0.0222 -0.0052
 1051POPC   C2B12610  22.018   1.307  17.582  0.0980 -0.0026 -0.0051
 1051POPC   C3B12611  21.913   1.140  17.144 -0.0638 -0.1263  0.0871
 1051POPC   C4B12612  22.104   1.019  16.765  0.0458 -0.0032  0.1663
 1052POPC   NC312613  30.137  12.803  19.725  0.1589 -0.1494  0.0790
 1052POPC   PO412614  30.497  12.734  19.529 -0.0006 -0.3026  0.1625
 1052POPC   GL112615  30.360  12.668  19.185  0.1430 -0.0045 -0.4912
 1052POPC   GL212616  30.030  12.623  19.242  0.0304 -0.0985 -0.2721
 1052POPC   C1A12617  30.287  12.614  18.762  0.0766 -0.4259  0.0640
 1052POPC   D2A12618  29.885  12.510  18.571  0.2699 -0.0859 -0.3672
 1052POPC   C3A12619  29.634  12.145  18.459 -0.0197 -0.2483 -0.0009
 1052POPC   C4A12620  29.601  11.768  18.187 -0.2569 -0.3020 -0.0123
 1052POPC   C1B12621  29.596  12.571  19.197  0.0988 -0.0277 -0.4416
 1052POPC   C2B12622  29.330  12.943  19.098  0.1341  0.5006 -0.2495
 1052POPC   C3B12623  29.127  13.122  18.709 -0.3644  0.2556 -0.0240
 1052POPC   C4B12624  29.047  13.214  18.279  0.0787 -0.2381 -0.0144
 1053POPC   NC312625  22.191  20.421  19.799  0.0706  0.3558 -0.2154
 1053POPC   PO412626  22.436  20.728  19.715  0.0817  0.1615 -0.2115
 1053POPC   GL112627  22.563  20.476  19.458 -0.3677 -0.4435 -0.1290
 1053POPC   GL212628  22.679  20.534  19.177  0.2504 -0.1676  0.4144
 1053POPC   C1A12629  22.403  20.085  19.441  0.1553 -0.6802 -0.0455
 1053POPC   D2A12630  22.331  19.681  19.638  0.0317  0.2619  0.3707
 1053POPC   C3A12631  22.208  19.273  19.545 -0.1899 -0.3132  0.2559
 1053POPC   C4A12632  21.914  18.989  19.279  0.1740 -0.0370  0.3498
 1053POPC   C1B12633  22.462  20.153  18.946  0.0288 -0.0027 -0.2689
 1053POPC   C2B12634  22.284  19.848  18.629  0.1484 -0.0235  0.0860
 1053POPC   C3B12635  22.078  19.539  18.322  0.0445 -0.3557 -0.0575
 1053POPC   C4B12636  22.001  19.614  17.907 -0.3650  0.2508 -0.0742
 1054POPC   NC312637  24.280  10.231  18.848  0.2342  0.2617  0.2327
 1054POPC   PO412638  24.408   9.888  19.001  0.1463  0.1948  0.2541
 1054POPC   GL112639  24.467   9.713  18.665  0.2072  0.2699  0.1247
 1054POPC   GL212640  24.415   9.808  18.468 -0.0773  0.1942 -0.1246
 1054POPC   C1A12641  24.733   9.327  18.498  0.1910  0.1014  0.0374
 1054POPC   D2A12642  25.135   9.431  18.287 -0.0884 -0.2220 -0.2869
 1054POPC   C3A12643  25.234   9.590  17.881 -0.1695 -0.2214 -0.4231
 1054POPC   C4A12644  25.176   9.727  17.435 -0.1227  0.0353  0.1476
 1054POPC   C1B12645  24.446  10.143  18.232 -0.2062 -0.0862  0.1802
 1054POPC   C2B12646  24.399  10.332  17.783 -0.1018 -0.0451  0.1526
 1054POPC   C3B12647  24.346  10.269  17.390  0.2447 -0.0539  0.2124
 1054POPC   C4B12648  24.045  10.326  17.036 -0.0401  0.1612  0.0912
 1055POPC   NC312649  21.021   8.612  19.124  0.1498 -0.0796  0.0535
 1055POPC   PO412650  20.740   8.829  19.267  0.1162  0.0341 -0.2234
 1055POPC   GL112651  20.687   8.947  18.884  0.2244  0.6519  0.6115
 1055POPC   GL212652  20.784   8.780  18.719 -0.2613  0.0398 -0.1823
 1055POPC   C1A12653  20.455   9.224  18.616  0.2128  0.2582 -0.1688
 1055POPC   D2A12654  20.242   9.557  18.339 -0.3463  0.1942 -0.2383
 1055POPC   C3A12655  20.089   9.692  17.909  0.2568 -0.4324  0.0368
 1055POPC   C4A12656  20.257   9.815  17.464  0.1420  0.0658 -0.1181
 1055POPC   C1B12657  20.468   8.561  18.470  0.0071 -0.1110 -0.0114
 1055POPC   C2B12658  20.424   8.462  18.038 -0.1022 -0.2958 -0.0277
 1055POPC   C3B12659  20.775   8.346  17.826  0.2359  0.2068 -0.0575
 1055POPC   C4B12660  21.089   8.118  17.581  0.1425 -0.1813  0.0588
 1056POPC   NC312661  16.256  24.878  19.409 -0.1867  0.1292  0.0814
 1056POPC   PO412662  16.611  24.941  19.386 -0.2801 -0.2111  0.2453
 1056POPC   GL112663  16.650  24.890  18.970 -0.1000 -0.5451 -0.1468
 1056POPC   GL212664  16.783  24.664  18.938  0.1317  0.0173 -0.1691
 1056POPC   C1A12665  16.676  25.085  18.554 -0.0584  0.0609  0.1839
 1056POPC   D2A12666  17.007  25.189  18.267 -0.1431  0.0860  0.2767
 1056POPC   C3A12667  16.816  25.464  17.920 -0.3426  0.1161 -0.2392
 1056POPC   C4A12668  16.572  25.276  17.555  0.2190 -0.1083 -0.1364
 1056POPC   C1B12669  16.671  24.351  18.643 -0.0178  0.0051 -0.0394
 1056POPC   C2B12670  16.815  23.969  18.442 -0.0294  0.1771  0.2120
 1056POPC   C3B12671  16.850  23.929  17.962  0.0685 -0.0053 -0.0972
 1056POPC   C4B12672  16.963  23.838  17.540 -0.1088 -0.2574  0.0017
 1057POPC   NC312673  31.026  15.087  19.059  0.2659 -0.0151 -0.0426
 1057POPC   PO412674  30.763  14.787  19.081  0.1020 -0.2119 -0.0131
 1057POPC   GL112675  30.731  14.797  18.661 -0.5509 -0.1752  0.2927
 1057POPC   GL212676  30.742  15.039  18.437  0.0412 -0.1324 -0.0432
 1057POPC   C1A12677  30.949  14.505  18.372  0.3337  0.0098 -0.0774
 1057POPC   D2A12678  30.945  14.186  18.043  0.0480  0.0851 -0.0373
 1057POPC   C3A12679  30.815  13.772  18.123  0.2997  0.2410 -0.1233
 1057POPC   C4A12680  30.690  13.421  17.753 -0.3492 -0.2287  0.1179
 1057POPC   C1B12681  30.961  15.261  18.094 -0.1955 -0.0718 -0.1994
 1057POPC   C2B12682  30.971  15.613  17.792  0.1173 -0.2770 -0.1277
 1057POPC   C3B12683  30.886  15.928  17.395  0.0290  0.3316 -0.1649
 1057POPC   C4B12684  30.711  16.323  17.246 -0.0205 -0.1475 -0.1455
 1058POPC   NC312685   2.093   0.106  19.152  0.3489  0.1973  0.0597
 1058POPC   PO412686   1.788  -0.011  19.371  0.0420 -0.0337 -0.0082
 1058POPC   GL112687   1.519   0.162  19.184  0.0475  0.3841 -0.0450
 1058POPC   GL212688   1.651   0.419  19.098  0.2454 -0.1410  0.2329
 1058POPC   C1A12689   1.364   0.155  18.712 -0.1292  0.1919 -0.2681
 1058POPC   D2A12690   1.251   0.187  18.264 -0.0838  0.0063  0.0680
 1058POPC   C3A12691   1.057   0.491  18.053 -0.1598  0.2285 -0.2303
 1058POPC   C4A12692   1.190   0.704  17.678  0.1658  0.0553  0.0751
 1058POPC   C1B12693   1.490   0.789  18.734  0.0395  0.2100 -0.2168
 1058POPC   C2B12694   1.467   1.035  18.302  0.1060 -0.2452 -0.0285
 1058POPC   C3B12695   1.616   0.999  17.900 -0.3971 -0.0322  0.1094
 1058POPC   C4B12696   1.579   1.154  17.399  0.0518  0.4809 -0.2700
 1059POPC   NC312697  25.090  20.280  19.496 -0.0087  0.1793  0.0584
 1059POPC   PO412698  25.302  20.137  19.201 -0.0877 -0.0093 -0.0867
 1059POPC   GL112699  25.290  19.925  18.778 -0.1295 -0.0124 -0.2348
 1059POPC   GL212700  25.152  20.156  18.680  0.0949 -0.0723  0.0113
 1059POPC   C1A12701  25.331  19.513  18.570  0.0145  0.0656  0.1394
 1059POPC   D2A12702  25.415  19.090  18.389 -0.1574 -0.0415 -0.0482
 1059POPC   C3A12703  25.417  19.150  17.923  0.0093  0.2771 -0.3540
 1059POPC   C4A12704  25.335  19.096  17.495  0.2596  0.0121  0.2119
 1059POPC   C1B12705  25.259  20.051  18.224 -0.1174 -0.1030  0.2281
 1059POPC   C2B12706  25.505  20.204  17.818 -0.4009  0.2331  0.1676
 1059POPC   C3B12707  25.362  20.395  17.437  0.0316  0.1292  0.0918
 1059POPC   C4B12708  25.188  20.628  17.056  0.0746  0.0794 -0.0442
 1060POPC   NC312709  30.146  14.184  19.596  0.2612  0.1578  0.0987
 1060POPC   PO412710  30.279  13.882  19.750 -0.4757 -0.0967 -0.2121
 1060POPC   GL112711  30.415  13.696  19.421  0.3138  0.0940 -0.0658
 1060POPC   GL212712  30.133  13.797  19.258 -0.0282 -0.0849  0.2401
 1060POPC   C1A12713  30.553  13.540  19.054  0.1065 -0.0284  0.3823
 1060POPC   D2A12714  30.829  13.275  18.782  0.0198  0.1260  0.3094
 1060POPC   C3A12715  31.087  13.336  18.369  0.1352 -0.2061  0.2924
 1060POPC   C4A12716  31.167  13.339  17.912  0.0424 -0.1543 -0.1073
 1060POPC   C1B12717  30.035  13.629  18.823 -0.0389  0.0487  0.1027
 1060POPC   C2B12718  30.053  13.721  18.355 -0.0948  0.1779  0.2974
 1060POPC   C3B12719  30.273  13.946  18.001  0.1609  0.0967  0.0096
 1060POPC   C4B12720  30.199  14.115  17.582 -0.1096 -0.2598  0.0955
 1061POPC   NC312721   1.672  24.429  19.229  0.0294 -0.0999 -0.0157
 1061POPC   PO412722   1.450  24.760  19.233 -0.0239  0.1481 -0.0264
 1061POPC   GL112723   1.297  24.558  18.885  0.3226  0.1682  0.0628
 1061POPC   GL212724   1.511  24.531  18.767  0.0103 -0.1615  0.1298
 1061POPC   C1A12725   1.147  24.714  18.483  0.2504 -0.0298  0.0445
 1061POPC   D2A12726   0.914  24.963  18.129 -0.2108  0.1800 -0.2101
 1061POPC   C3A12727   1.167  25.129  17.732  0.0551  0.1405 -0.1152
 1061POPC   C4A12728   1.102  25.171  17.209  0.3983  0.3499  0.1455
 1061POPC   C1B12729   1.676  24.529  18.362  0.1019  0.4530 -0.1723
 1061POPC   C2B12730   1.935  24.425  17.998  0.2613  0.0202 -0.0869
 1061POPC   C3B12731   2.023  24.263  17.623 -0.4283 -0.0312  0.0978
 1061POPC   C4B12732   2.136  24.533  17.277  0.1361 -0.1351 -0.0004
 1062POPC   NC312733   6.669  17.363  19.549 -0.0836  0.0583  0.0403
 1062POPC   PO412734   6.451  17.266  19.258 -0.0525  0.0305 -0.0529
 1062POPC   GL112735   6.464  16.980  18.981  0.1522  0.1076  0.0891
 1062POPC   GL212736   6.424  16.618  19.008  0.0387 -0.2981  0.0269
 1062POPC   C1A12737   6.110  16.895  18.652  0.1695 -0.1411  0.1824
 1062POPC   D2A12738   5.871  16.783  18.238  0.0787  0.0013 -0.1241
 1062POPC   C3A12739   5.825  16.892  17.747  0.0382 -0.0592 -0.2506
 1062POPC   C4A12740   5.796  17.151  17.392 -0.1763 -0.1662  0.1312
 1062POPC   C1B12741   6.591  16.532  18.641  0.1787  0.1581 -0.0530
 1062POPC   C2B12742   6.756  16.580  18.248  0.2413  0.0559  0.3538
 1062POPC   C3B12743   7.128  16.566  18.008 -0.3535 -0.4836 -0.0130
 1062POPC   C4B12744   7.418  16.398  17.693  0.1311  0.2526  0.2020
 1063POPC   NC312745  21.890   6.081  19.168  0.1062  0.2911 -0.2104
 1063POPC   PO412746  21.582   5.920  19.333  0.0886  0.0513 -0.0551
 1063POPC   GL112747  21.651   5.710  18.985 -0.0087  0.2363 -0.1227
 1063POPC   GL212748  21.479   5.887  18.857 -0.1635 -0.1379 -0.0018
 1063POPC   C1A12749  22.059   5.700  18.783  0.0339 -0.2730 -0.2300
 1063POPC   D2A12750  22.152   5.786  18.343  0.1088  0.0419 -0.0740
 1063POPC   C3A12751  22.009   6.066  17.954 -0.1748 -0.2078  0.1046
 1063POPC   C4A12752  21.796   6.472  17.767  0.0844  0.2597 -0.5129
 1063POPC   C1B12753  21.590   5.660  18.463 -0.0644 -0.0979 -0.2390
 1063POPC   C2B12754  21.668   5.702  17.968  0.0756 -0.1708  0.0528
 1063POPC   C3B12755  21.980   5.702  17.655  0.2627  0.0155  0.1792
 1063POPC   C4B12756  22.272   5.926  17.412 -0.0318  0.3599 -0.0892
 1064POPC   NC312757  16.194  12.679  18.976  0.0519  0.0614 -0.0603
 1064POPC   PO412758  16.331  12.687  19.338  0.1393  0.0573  0.1281
 1064POPC   GL112759  16.613  12.871  19.226  0.2632  0.1634 -0.0478
 1064POPC   GL212760  16.497  13.138  19.150 -0.0095 -0.0218  0.2404
 1064POPC   C1A12761  16.901  12.987  18.920 -0.1718  0.1775 -0.0890
 1064POPC   D2A12762  17.163  13.313  18.735  0.3825  0.0169  0.1899
 1064POPC   C3A12763  17.451  13.444  19.038 -0.1038 -0.1814  0.0802
 1064POPC   C4A12764  17.689  13.792  19.237  0.0250  0.0382 -0.2000
 1064POPC   C1B12765  16.260  13.127  18.710 -0.0764 -0.0034  0.1122
 1064POPC   C2B12766  15.875  12.846  18.569 -0.3632  0.0349  0.1613
 1064POPC   C3B12767  15.707  12.686  18.211 -0.0690  0.0612  0.1058
 1064POPC   C4B12768  15.519  12.553  17.793 -0.4461 -0.1932  0.0978
 1065POPC   NC312769  28.440  23.058  19.390 -0.0371 -0.0712 -0.2617
 1065POPC   PO412770  28.196  23.358  19.380  0.0644 -0.0595  0.0876
 1065POPC   GL112771  27.972  23.272  19.059  0.0350 -0.0882 -0.0990
 1065POPC   GL212772  28.039  22.984  18.945  0.2446 -0.0567 -0.1199
 1065POPC   C1A12773  27.838  23.330  18.593 -0.0515 -0.1058 -0.0626
 1065POPC   D2A12774  27.776  23.067  18.201  0.0829  0.2142  0.3112
 1065POPC   C3A12775  27.402  22.920  17.988  0.2672  0.0848  0.1929
 1065POPC   C4A12776  27.029  22.745  17.742  0.4036 -0.2113  0.0820
 1065POPC   C1B12777  27.724  22.810  18.675  0.1857  0.2213 -0.1931
 1065POPC   C2B12778  27.316  22.728  18.454  0.1393 -0.0685  0.2694
 1065POPC   C3B12779  27.283  22.437  18.049 -0.0907 -0.3427  0.1391
 1065POPC   C4B12780  27.401  22.408  17.610  0.3692 -0.1811  0.0745
 1066POPC   NC312781   6.097   3.622  19.307 -0.1274  0.3973  0.0811
 1066POPC   PO412782   5.893   3.334  19.413 -0.0350 -0.1899 -0.2795
 1066POPC   GL112783   5.772   3.259  18.986 -0.1477  0.2384 -0.3773
 1066POPC   GL212784   5.481   3.208  18.922 -0.1199  0.1715  0.0430
 1066POPC   C1A12785   5.936   3.454  18.576  0.3192  0.2235 -0.1532
 1066POPC   D2A12786   5.708   3.764  18.239 -0.2557  0.1447  0.0571
 1066POPC   C3A12787   5.729   3.685  17.785 -0.1131  0.3658 -0.2641
 1066POPC   C4A12788   5.777   3.580  17.330  0.1359  0.2572  0.0577
 1066POPC   C1B12789   5.603   3.097  18.491 -0.2150 -0.0294  0.2750
 1066POPC   C2B12790   5.860   3.298  18.100  0.0135  0.1038 -0.1806
 1066POPC   C3B12791   6.033   3.296  17.652  0.2343 -0.2566 -0.0985
 1066POPC   C4B12792   6.350   3.396  17.336  0.1116  0.0141 -0.2178
 1067POPC   NC312793  24.015  13.322  19.378 -0.1582  0.0966  0.0300
 1067POPC   PO412794  23.969  12.947  19.393  0.3186 -0.1860 -0.0408
 1067POPC   GL112795  23.758  12.883  19.131  0.0048  0.4101 -0.2569
 1067POPC   GL212796  23.827  13.095  18.952 -0.0340 -0.1238  0.1646
 1067POPC   C1A12797  23.693  12.504  18.820 -0.0225 -0.2031 -0.1231
 1067POPC   D2A12798  23.393  12.227  18.690  0.3447 -0.1738  0.1778
 1067POPC   C3A12799  23.040  12.366  18.449  0.2116  0.1983  0.1630
 1067POPC   C4A12800  22.848  12.496  18.063  0.3509 -0.2509  0.1576
 1067POPC   C1B12801  23.620  12.904  18.567 -0.3770 -0.2404 -0.0772
 1067POPC   C2B12802  23.551  12.525  18.299  0.0602  0.0041 -0.1496
 1067POPC   C3B12803  23.344  12.339  17.963  0.0270 -0.1987 -0.1093
 1067POPC   C4B12804  23.062  12.067  17.793  0.0287  0.0649  0.1674
 1068POPC   NC312805  25.458   1.573  19.375 -0.2741  0.0071  0.4912
 1068POPC   PO412806  25.837   1.353  19.306 -0.2509  0.1057 -0.2646
 1068POPC   GL112807  25.749   1.395  18.915 -0.1345 -0.0282 -0.0251
 1068POPC   GL212808  25.669   1.634  18.877  0.3101  0.0220 -0.1377
 1068POPC   C1A12809  25.984   1.337  18.569  0.0002 -0.0667 -0.0477
 1068POPC   D2A12810  25.866   0.960  18.322 -0.0093  0.0023  0.1211
 1068POPC   C3A12811  26.163   0.638  18.357  0.3467  0.0729  0.0520
 1068POPC   C4A12812  26.458   0.509  17.998  0.1724 -0.0347 -0.1829
 1068POPC   C1B12813  25.594   1.603  18.438 -0.0621  0.1869  0.0873
 1068POPC   C2B12814  25.856   1.455  18.081  0.1448  0.1305 -0.1423
 1068POPC   C3B12815  25.806   1.288  17.621 -0.0346 -0.2139  0.1629
 1068POPC   C4B12816  25.991   1.026  17.285  0.2292  0.0260 -0.0380
 1069POPC   NC312817  15.817  18.782  19.615 -0.0936  0.0688  0.1072
 1069POPC   PO412818  16.089  18.744  19.301 -0.3668  0.0772 -0.2573
 1069POPC   GL112819  16.232  18.766  18.900 -0.2622  0.4341 -0.3259
 1069POPC   GL212820  15.892  18.857  18.817  0.1771  0.3821  0.1336
 1069POPC   C1A12821  16.270  18.667  18.455 -0.1025 -0.3302 -0.1003
 1069POPC   D2A12822  16.365  18.843  18.014 -0.0094  0.2936 -0.3665
 1069POPC   C3A12823  16.410  18.864  17.529  0.0000  0.1818 -0.0487
 1069POPC   C4A12824  16.437  19.167  17.155 -0.1184  0.2097  0.1894
 1069POPC   C1B12825  15.765  18.798  18.401 -0.0861  0.0572  0.4209
 1069POPC   C2B12826  15.903  18.943  17.979  0.1404  0.1271 -0.1230
 1069POPC   C3B12827  15.972  19.121  17.526 -0.0342  0.0149 -0.0675
 1069POPC   C4B12828  15.663  19.375  17.298 -0.0560 -0.0416 -0.2780
 1070POPC   NC312829  22.592   3.129  18.957  0.1484 -0.1471 -0.1527
 1070POPC   PO412830  22.462   3.455  18.922  0.1568 -0.2486  0.2251
 1070POPC   GL112831  22.495   3.438  18.572  0.0942  0.0683  0.0197
 1070POPC   GL212832  22.311   3.178  18.476  0.1837 -0.0462  0.4267
 1070POPC   C1A12833  22.709   3.608  18.235 -0.1282  0.1547  0.0772
 1070POPC   D2A12834  22.891   3.735  17.837 -0.1943 -0.2118 -0.1691
 1070POPC   C3A12835  22.694   3.791  17.418  0.0402  0.0919 -0.0688
 1070POPC   C4A12836  22.459   3.631  17.038  0.1172  0.1155 -0.1729
 1070POPC   C1B12837  22.241   3.579  18.240  0.0066  0.2389  0.1140
 1070POPC   C2B12838  22.357   3.818  17.823 -0.1028  0.0239  0.1609
 1070POPC   C3B12839  22.197   3.928  17.399 -0.0743 -0.1088  0.1685
 1070POPC   C4B12840  22.256   4.160  17.013 -0.2090 -0.1104 -0.2246
 1071POPC   NC312841   8.535   4.449  19.197  0.0017 -0.3562 -0.0059
 1071POPC   PO412842   8.497   4.102  19.051  0.0133  0.0569  0.3886
 1071POPC   GL112843   8.490   3.829  18.693 -0.0893 -0.2563  0.0095
 1071POPC   GL212844   8.718   3.987  18.634 -0.1025  0.1641  0.1246
 1071POPC   C1A12845   8.441   3.776  18.230  0.2766  0.0026  0.0203
 1071POPC   D2A12846   8.396   3.736  17.790 -0.1852 -0.3428 -0.2642
 1071POPC   C3A12847   8.111   3.398  17.610  0.1816  0.0798  0.3198
 1071POPC   C4A12848   7.802   3.144  17.465 -0.2490 -0.0917  0.2869
 1071POPC   C1B12849   8.768   4.221  18.286  0.0698  0.2403  0.0108
 1071POPC   C2B12850   8.526   4.531  18.003  0.1778  0.1612  0.1975
 1071POPC   C3B12851   8.539   4.740  17.609  0.0890  0.0297  0.1574
 1071POPC   C4B12852   8.494   4.944  17.194  0.1516 -0.4493  0.1090
 1072POPC   NC312853  28.495  20.065  19.324 -0.0225  0.3645 -0.1418
 1072POPC   PO412854  28.866  20.237  19.317 -0.0848  0.1717 -0.0549
 1072POPC   GL112855  28.974  20.093  18.942 -0.0106 -0.0656  0.0478
 1072POPC   GL212856  28.700  20.108  18.842  0.1490  0.1059 -0.2614
 1072POPC   C1A12857  29.027  20.402  18.584 -0.3050  0.1283  0.4082
 1072POPC   D2A12858  28.914  20.454  18.148  0.1115  0.2317 -0.0944
 1072POPC   C3A12859  29.217  20.813  18.191 -0.1285 -0.1168  0.0230
 1072POPC   C4A12860  29.690  20.859  18.096  0.0688 -0.0314 -0.0279
 1072POPC   C1B12861  28.922  19.915  18.518  0.1488 -0.3785 -0.0880
 1072POPC   C2B12862  28.886  19.940  18.081  0.1322 -0.2507  0.0398
 1072POPC   C3B12863  28.791  20.106  17.660  0.1888 -0.1681  0.0616
 1072POPC   C4B12864  28.717  20.248  17.262  0.1927  0.1011 -0.1027
 1073POPC   NC312865  12.446   5.677  18.884 -0.0746 -0.2821  0.0598
 1073POPC   PO412866  12.436   5.930  19.207 -0.2279  0.0369  0.1054
 1073POPC   GL112867  12.441   6.098  18.873 -0.0417  0.0422 -0.0957
 1073POPC   GL212868  12.710   6.206  18.913  0.2288 -0.0932 -0.2065
 1073POPC   C1A12869  12.305   6.483  18.625 -0.1291 -0.1509  0.2395
 1073POPC   D2A12870  12.474   6.728  18.221  0.3660  0.0644  0.1133
 1073POPC   C3A12871  12.376   6.508  17.835  0.0295 -0.2666 -0.0725
 1073POPC   C4A12872  12.399   6.292  17.376  0.0808 -0.1392  0.0747
 1073POPC   C1B12873  12.829   6.000  18.542  0.1396  0.0642 -0.1701
 1073POPC   C2B12874  12.948   5.898  18.122 -0.0029 -0.0314  0.1050
 1073POPC   C3B12875  13.230   5.677  17.753  0.1428 -0.1534 -0.1717
 1073POPC   C4B12876  13.375   5.692  17.305 -0.2913 -0.1156  0.3047
 1074POPC   NC312877  16.053   3.915  19.355 -0.1407  0.0694 -0.0702
 1074POPC   PO412878  16.377   4.097  19.284  0.0060 -0.1321  0.0583
 1074POPC   GL112879  16.366   4.069  18.929  0.0592 -0.3617  0.0019
 1074POPC   GL212880  16.180   3.776  18.904  0.0391 -0.4596  0.3607
 1074POPC   C1A12881  16.319   4.365  18.590 -0.1862 -0.2765 -0.1362
 1074POPC   D2A12882  16.042   4.532  18.174 -0.1235  0.0398 -0.2042
 1074POPC   C3A12883  15.981   4.814  17.838  0.0159 -0.0313 -0.0369
 1074POPC   C4A12884  16.057   4.942  17.404  0.1034 -0.0004  0.0237
 1074POPC   C1B12885  15.786   3.596  18.647 -0.0413 -0.0288 -0.0240
 1074POPC   C2B12886  15.707   3.581  18.189  0.0421  0.1586  0.0272
 1074POPC   C3B12887  15.343   3.546  17.896  0.2517 -0.0610  0.0895
 1074POPC   C4B12888  15.141   3.958  17.707  0.0309  0.3803 -0.1719
 1075POPC   NC312889  17.978   7.768  19.592 -0.0921 -0.1414  0.1692
 1075POPC   PO412890  18.016   7.927  19.204  0.0043  0.4852 -0.1025
 1075POPC   GL112891  18.149   8.132  18.925 -0.2554  0.1059 -0.0856
 1075POPC   GL212892  17.964   8.340  18.765 -0.1124 -0.4843 -0.0206
 1075POPC   C1A12893  18.089   7.907  18.504 -0.0173  0.2345  0.1253
 1075POPC   D2A12894  18.004   7.487  18.423 -0.0670  0.1256  0.0772
 1075POPC   C3A12895  18.374   7.316  18.192 -0.0861 -0.2080  0.0765
 1075POPC   C4A12896  18.587   6.947  18.145  0.2800 -0.1362  0.1654
 1075POPC   C1B12897  17.906   8.301  18.290  0.0769  0.1177  0.1021
 1075POPC   C2B12898  17.828   8.189  17.809  0.0762  0.1038  0.3447
 1075POPC   C3B12899  17.605   7.871  17.488  0.2334 -0.1736 -0.1184
 1075POPC   C4B12900  17.490   7.563  17.176  0.0755 -0.0202  0.1429
 1076POPC   NC312901  27.208   3.485  19.432 -0.0245  0.0512 -0.1696
 1076POPC   PO412902  26.890   3.671  19.295  0.2342 -0.1339  0.0518
 1076POPC   GL112903  27.054   3.532  18.928  0.1473  0.1648 -0.1022
 1076POPC   GL212904  26.949   3.268  18.774 -0.0144  0.0582 -0.1015
 1076POPC   C1A12905  27.182   3.832  18.605 -0.0396 -0.0469 -0.0643
 1076POPC   D2A12906  27.292   4.130  18.242 -0.0871  0.0916 -0.1509
 1076POPC   C3A12907  27.108   3.997  17.839 -0.0772  0.1704 -0.0368
 1076POPC   C4A12908  27.173   3.605  17.570 -0.0263  0.0070 -0.1852
 1076POPC   C1B12909  27.294   3.358  18.524  0.0240 -0.1165  0.0441
 1076POPC   C2B12910  27.398   3.614  18.185 -0.0412 -0.0055  0.3551
 1076POPC   C3B12911  27.586   3.908  17.809 -0.0217 -0.0398  0.2203
 1076POPC   C4B12912  27.811   3.949  17.394 -0.0242 -0.1680  0.0429
 1077POPC   NC312913   8.788  22.339  20.296  0.1271  0.1388  0.0996
 1077POPC   PO412914   8.793  21.979  20.137 -0.3912  0.4212 -0.1256
 1077POPC   GL112915   8.363  21.990  19.988  0.2671 -0.2964 -0.1664
 1077POPC   GL212916   8.276  22.214  20.140  0.0267  0.1345 -0.6056
 1077POPC   C1A12917   8.191  21.877  19.528  0.0325  0.0325  0.0991
 1077POPC   D2A12918   7.959  21.899  19.162 -0.0610 -0.0937 -0.1149
 1077POPC   C3A12919   8.086  21.817  18.793 -0.0236 -0.3874  0.1139
 1077POPC   C4A12920   7.939  21.706  18.372  0.3395  0.2387 -0.0277
 1077POPC   C1B12921   7.850  22.145  19.945  0.0160 -0.0426 -0.3116
 1077POPC   C2B12922   7.771  22.293  19.504  0.0418  0.0459  0.0609
 1077POPC   C3B12923   7.833  22.408  19.052 -0.1879 -0.1750  0.2004
 1077POPC   C4B12924   7.825  22.523  18.570  0.0940  0.0215 -0.3946
 1078POPC   NC312925  30.931  12.005  19.605 -0.0511 -0.0178 -0.0036
 1078POPC   PO412926  30.822  11.629  19.547 -0.2057  0.0385  0.1894
 1078POPC   GL112927  30.444  11.430  19.226 -0.1336  0.2211  0.1835
 1078POPC   GL212928  30.217  11.523  19.210  0.0205  0.0391 -0.0392
 1078POPC   C1A12929  30.309  11.420  18.760 -0.0892 -0.1396 -0.2872
 1078POPC   D2A12930  30.159  11.139  18.417 -0.1202 -0.0115 -0.0036
 1078POPC   C3A12931  30.296  11.105  17.939  0.1225  0.0141 -0.3363
 1078POPC   C4A12932  30.071  11.080  17.590  0.3101  0.1140  0.1613
 1078POPC   C1B12933  30.491  11.828  18.958 -0.0430 -0.1605 -0.0096
 1078POPC   C2B12934  30.740  12.159  18.735 -0.1985  0.1393  0.1850
 1078POPC   C3B12935  30.961  12.130  18.324 -0.1140  0.0038 -0.1075
 1078POPC   C4B12936  30.964  11.762  18.011  0.0780 -0.0383 -0.0573
 1079POPC   NC312937  22.758  26.334  19.721  0.2104  0.0547 -0.2493
 1079POPC   PO412938  23.031  26.445  19.466  0.1317  0.1751  0.1320
 1079POPC   GL112939  23.192  26.217  19.096  0.0808 -0.2325  0.0363
 1079POPC   GL212940  22.939  26.376  18.996 -0.1078  0.0323  0.3291
 1079POPC   C1A12941  23.286  26.284  18.649  0.2693  0.3636  0.0887
 1079POPC   D2A12942  22.895  26.399  18.396 -0.1658 -0.0637  0.0380
 1079POPC   C3A12943  22.918  26.312  17.953  0.0973 -0.0782  0.2174
 1079POPC   C4A12944  22.989  25.995  17.644 -0.1245  0.2032  0.2174
 1079POPC   C1B12945  22.542  26.449  18.772  0.4453 -0.0996  0.0702
 1079POPC   C2B12946  22.425  26.574  18.344  0.0821 -0.0620 -0.3082
 1079POPC   C3B12947  22.430  26.755  17.960 -0.1391 -0.2594  0.1444
 1079POPC   C4B12948  22.783  26.731  17.652 -0.1060 -0.0145  0.0868
 1080POPC   NC312949  24.565  25.763  19.340  0.3850  0.1936  0.0060
 1080POPC   PO412950  24.942  25.745  19.455  0.1327 -0.2397 -0.0386
 1080POPC   GL112951  24.909  25.416  19.166  0.3395  0.2274 -0.2584
 1080POPC   GL212952  25.054  25.556  18.938 -0.0193 -0.1595 -0.0181
 1080POPC   C1A12953  24.773  25.060  18.892  0.0865  0.2965 -0.1472
 1080POPC   D2A12954  24.592  24.966  18.468  0.2291 -0.0856  0.2393
 1080POPC   C3A12955  24.543  25.038  18.036 -0.0417 -0.4933  0.1803
 1080POPC   C4A12956  24.377  25.233  17.637 -0.1081 -0.3057 -0.0714
 1080POPC   C1B12957  25.081  25.784  18.529  0.0539  0.1223  0.0512
 1080POPC   C2B12958  24.936  25.595  18.115 -0.1519  0.2692  0.1166
 1080POPC   C3B12959  24.876  25.335  17.721 -0.2256  0.0964 -0.1557
 1080POPC   C4B12960  24.769  25.025  17.421  0.4927 -0.1461 -0.0222
 1081POPC   NC312961  26.391   7.004  19.496 -0.0848  0.1895 -0.0209
 1081POPC   PO412962  26.615   7.316  19.397  0.1915 -0.0658  0.2669
 1081POPC   GL112963  26.572   7.430  19.026  0.1472  0.1289  0.0177
 1081POPC   GL212964  26.735   7.435  18.763  0.0413 -0.1035 -0.1484
 1081POPC   C1A12965  26.195   7.463  18.803  0.1197  0.2307 -0.1521
 1081POPC   D2A12966  25.825   7.333  18.642  0.0943  0.0809 -0.2019
 1081POPC   C3A12967  25.634   7.085  18.339  0.0305  0.1960  0.3036
 1081POPC   C4A12968  25.550   6.656  18.198  0.1611 -0.2261  0.1803
 1081POPC   C1B12969  26.890   7.800  18.522  0.0350 -0.4185  0.1726
 1081POPC   C2B12970  27.224   7.757  18.305  0.2142 -0.0593  0.1920
 1081POPC   C3B12971  27.449   7.412  18.159 -0.1381  0.0926  0.1298
 1081POPC   C4B12972  27.417   7.143  17.719  0.1564 -0.1642 -0.0208
 1082POPC   NC312973  31.698   6.511  19.725 -0.1422  0.0713  0.3043
 1082POPC   PO412974  31.564   6.335  19.410 -0.0400  0.1530 -0.0202
 1082POPC   GL112975  31.731   5.983  19.222 -0.0155 -0.1226  0.2571
 1082POPC   GL212976  31.643   5.735  19.330 -0.0049  0.3503  0.2385
 1082POPC   C1A12977  32.111   6.073  18.956 -0.1949  0.0217 -0.0819
 1082POPC   D2A12978  32.491   5.934  18.825 -0.3256 -0.2531 -0.0207
 1082POPC   C3A12979  32.806   5.753  19.076  0.0040 -0.0155 -0.1250
 1082POPC   C4A12980  32.873   5.322  19.109 -0.1566 -0.0857 -0.3885
 1082POPC   C1B12981  31.945   5.654  19.002  0.3089  0.1459 -0.0001
 1082POPC   C2B12982  32.389   5.461  18.927  0.1989 -0.2262  0.0663
 1082POPC   C3B12983  32.717   5.428  18.634  0.2865 -0.1030 -0.0535
 1082POPC   C4B12984  32.744   5.822  18.398  0.0679 -0.1709 -0.0187
 1083POPC   NC312985  21.175   9.979  19.445  0.1926  0.0145 -0.1111
 1083POPC   PO412986  20.866  10.223  19.439 -0.0228  0.3199  0.1150
 1083POPC   GL112987  20.863  10.222  19.092  0.0625  0.0441 -0.3889
 1083POPC   GL212988  20.739  10.534  19.102  0.1879 -0.0543 -0.2394
 1083POPC   C1A12989  20.954  10.104  18.651  0.1704  0.0042  0.1397
 1083POPC   D2A12990  21.119  10.051  18.244  0.2853  0.1182 -0.1159
 1083POPC   C3A12991  20.818  10.224  17.939 -0.0205 -0.0999  0.0258
 1083POPC   C4A12992  20.367  10.201  17.750  0.1176 -0.2314  0.1685
 1083POPC   C1B12993  20.479  10.357  18.777 -0.1223 -0.0311 -0.0904
 1083POPC   C2B12994  20.639  10.354  18.375  0.1638 -0.3710  0.0124
 1083POPC   C3B12995  20.348  10.590  18.084  0.1967 -0.0729  0.1502
 1083POPC   C4B12996  20.228  10.666  17.604  0.1279  0.0804 -0.0156
 1084POPC   NC312997  18.042  10.336  19.466 -0.0140 -0.0055  0.3498
 1084POPC   PO412998  18.183  10.113  19.133 -0.0008  0.0382  0.1447
 1084POPC   GL112999  17.828  10.012  18.855  0.0162 -0.1260 -0.0580
 1084POPC   GL213000  18.062   9.922  18.698  0.0924  0.1239 -0.0741
 1084POPC   C1A13001  17.677  10.251  18.474 -0.0547 -0.0396 -0.1821
 1084POPC   D2A13002  17.798  10.350  18.009 -0.1737  0.1075  0.0125
 1084POPC   C3A13003  17.942  10.108  17.644 -0.0118  0.1508  0.0951
 1084POPC   C4A13004  17.931   9.799  17.315  0.1325  0.0805  0.0345
 1084POPC   C1B13005  17.916   9.829  18.272 -0.2694  0.1539  0.1084
 1084POPC   C2B13006  17.909   9.608  17.828  0.1140  0.0284  0.2035
 1084POPC   C3B13007  17.915   9.283  17.502 -0.2297  0.2919 -0.0653
 1084POPC   C4B13008  17.991   9.009  17.052  0.3532  0.0154  0.0070
 1085POPC   NC313009  22.118   1.089  19.380 -0.0138  0.0333  0.1078
 1085POPC   PO413010  22.345   0.770  19.274  0.0738  0.0653  0.0918
 1085POPC   GL113011  22.350   0.581  18.953  0.0624 -0.4000  0.3308
 1085POPC   GL213012  22.427   0.607  18.611 -0.0187 -0.1069 -0.1288
 1085POPC   C1A13013  22.264   0.179  18.787  0.0917 -0.1315 -0.2546
 1085POPC   D2A13014  22.054   0.006  18.375  0.0604  0.1214 -0.0828
 1085POPC   C3A13015  22.150   0.018  17.912  0.0282 -0.0255  0.0216
 1085POPC   C4A13016  22.449  -0.089  17.624 -0.3983 -0.1677  0.1081
 1085POPC   C1B13017  22.538   0.603  18.194  0.0970  0.0585  0.0967
 1085POPC   C2B13018  22.319   0.494  17.849 -0.1249 -0.0140 -0.2165
 1085POPC   C3B13019  22.150   0.253  17.443 -0.0436 -0.4112 -0.0093
 1085POPC   C4B13020  21.755   0.167  17.139  0.0666 -0.0174 -0.1390
 1086POPC   NC313021  12.023  23.018  19.157  0.0724  0.0598 -0.2014
 1086POPC   PO413022  12.394  23.079  19.283 -0.1495  0.1560 -0.0388
 1086POPC   GL113023  12.369  23.275  18.857 -0.2703 -0.1141  0.3289
 1086POPC   GL213024  12.542  23.020  18.707  0.1754 -0.0934  0.1256
 1086POPC   C1A13025  12.325  23.465  18.401  0.1887  0.1180 -0.0400
 1086POPC   D2A13026  12.250  23.569  18.013 -0.3546 -0.1664 -0.2440
 1086POPC   C3A13027  12.324  23.426  17.533 -0.2138 -0.0592  0.1451
 1086POPC   C4A13028  12.303  23.196  17.126  0.2092  0.2614  0.1919
 1086POPC   C1B13029  12.699  23.125  18.311  0.0271  0.1041  0.2460
 1086POPC   C2B13030  12.730  23.331  17.864  0.0778 -0.2146 -0.2844
 1086POPC   C3B13031  12.850  23.435  17.513 -0.1641  0.1342  0.1375
 1086POPC   C4B13032  12.822  23.457  17.092  0.2250  0.1185  0.0495
 1087POPC   NC313033  21.698  15.630  19.158 -0.0141 -0.0728 -0.0812
 1087POPC   PO413034  21.514  15.971  19.211  0.1456 -0.0074 -0.1043
 1087POPC   GL113035  21.595  16.111  18.859  0.1389  0.1562  0.1642
 1087POPC   GL213036  21.679  15.957  18.682  0.0342 -0.0165  0.2128
 1087POPC   C1A13037  21.861  16.449  18.657 -0.0513  0.4210  0.0461
 1087POPC   D2A13038  21.932  16.851  18.476 -0.2187 -0.1831 -0.0204
 1087POPC   C3A13039  22.302  17.009  18.218 -0.0080 -0.0809 -0.2379
 1087POPC   C4A13040  22.713  17.062  18.104 -0.2944  0.0172 -0.2020
 1087POPC   C1B13041  21.956  15.795  18.366 -0.0842  0.3025  0.1653
 1087POPC   C2B13042  22.157  15.670  17.935 -0.2355  0.2094 -0.1303
 1087POPC   C3B13043  22.467  15.839  17.657 -0.0994  0.4863  0.3208
 1087POPC   C4B13044  22.863  15.611  17.531 -0.3713  0.1829 -0.1996
 1088POPC   NC313045  23.643  14.193  19.512 -0.3460 -0.2558 -0.0347
 1088POPC   PO413046  23.287  14.332  19.494 -0.1396  0.0312  0.0250
 1088POPC   GL113047  23.212  14.746  19.561  0.1383 -0.1848 -0.0033
 1088POPC   GL213048  23.475  14.753  19.350  0.1893 -0.1815  0.1371
 1088POPC   C1A13049  22.920  14.841  19.195 -0.0556  0.1554 -0.3429
 1088POPC   D2A13050  22.494  14.851  19.040  0.0430 -0.0578 -0.2230
 1088POPC   C3A13051  22.528  15.176  18.733 -0.0406 -0.4777 -0.1558
 1088POPC   C4A13052  22.565  15.606  18.765 -0.1906 -0.1413  0.1702
 1088POPC   C1B13053  23.328  14.711  18.884 -0.0863 -0.0713  0.1995
 1088POPC   C2B13054  23.355  14.748  18.457  0.0996 -0.0376 -0.0359
 1088POPC   C3B13055  23.279  14.640  18.020  0.5065  0.1349  0.2057
 1088POPC   C4B13056  23.519  14.725  17.650  0.1157  0.3374 -0.0948
 1089POPC   NC313057  27.782  10.463  19.417 -0.2229 -0.1287  0.1695
 1089POPC   PO413058  28.064  10.192  19.452  0.0173 -0.0738 -0.1657
 1089POPC   GL113059  28.295  10.207  19.163 -0.0807 -0.0528 -0.2429
 1089POPC   GL213060  28.534  10.363  19.112  0.0383 -0.0030 -0.0272
 1089POPC   C1A13061  28.233  10.085  18.737 -0.1771  0.1880 -0.1990
 1089POPC   D2A13062  28.072   9.850  18.382  0.0515  0.0298 -0.3028
 1089POPC   C3A13063  28.055   9.865  17.921 -0.1618  0.1616 -0.0478
 1089POPC   C4A13064  28.239  10.187  17.600 -0.1431  0.3067 -0.1747
 1089POPC   C1B13065  28.537  10.521  18.679 -0.0042  0.1768  0.3066
 1089POPC   C2B13066  28.500  10.251  18.312 -0.0772  0.0347 -0.2219
 1089POPC   C3B13067  28.722  10.154  17.871  0.0428  0.0620 -0.1096
 1089POPC   C4B13068  29.038   9.768  17.737  0.1191 -0.0765  0.4974
 1090POPC   NC313069   2.629  30.614  18.933 -0.0235 -0.2003 -0.3923
 1090POPC   PO413070   2.595  30.243  18.905 -0.0411  0.0379  0.1779
 1090POPC   GL113071   2.702  30.272  18.498  0.0727  0.2138 -0.0741
 1090POPC   GL213072   2.612  30.510  18.432 -0.0077 -0.1614  0.0662
 1090POPC   C1A13073   2.488  30.138  18.147 -0.1075  0.1620 -0.2952
 1090POPC   D2A13074   2.642  29.892  17.820  0.0474 -0.0200  0.1790
 1090POPC   C3A13075   2.562  30.158  17.433 -0.2174  0.1546 -0.1705
 1090POPC   C4A13076   2.614  30.437  16.994  0.0227  0.0071  0.0355
 1090POPC   C1B13077   2.220  30.680  18.218 -0.1816 -0.1247  0.0644
 1090POPC   C2B13078   2.163  31.040  17.924  0.0788 -0.1725 -0.1677
 1090POPC   C3B13079   2.204  31.263  17.499  0.2583 -0.2291 -0.2030
 1090POPC   C4B13080   2.324  31.586  17.233 -0.1852  0.2699 -0.2332
 1091POPC   NC313081  29.945  19.835  19.470 -0.1995  0.0124 -0.0594
 1091POPC   PO413082  29.733  20.141  19.359  0.0044  0.4360  0.0547
 1091POPC   GL113083  29.625  19.847  19.038  0.1744  0.2290  0.0190
 1091POPC   GL213084  29.873  19.655  18.953 -0.1784 -0.0652  0.2452
 1091POPC   C1A13085  29.448  20.103  18.691  0.3697 -0.0753 -0.0748
 1091POPC   D2A13086  29.299  20.107  18.247 -0.0127  0.4203 -0.0372
 1091POPC   C3A13087  29.349  20.360  17.906 -0.0796  0.0259  0.2026
 1091POPC   C4A13088  29.495  20.537  17.498 -0.0676 -0.0628 -0.1766
 1091POPC   C1B13089  29.858  19.760  18.480  0.0062  0.2853 -0.3354
 1091POPC   C2B13090  30.204  19.596  18.237 -0.2228  0.1241 -0.0457
 1091POPC   C3B13091  30.552  19.681  17.990  0.1699 -0.0982  0.0822
 1091POPC   C4B13092  30.847  19.578  17.660 -0.4265 -0.1257  0.3778
 1092POPC   NC313093  25.609  12.559  19.320 -0.2026 -0.1370  0.2202
 1092POPC   PO413094  25.460  12.315  19.070  0.0731 -0.1685  0.1166
 1092POPC   GL113095  25.348  12.556  18.728 -0.0471 -0.0659  0.1512
 1092POPC   GL213096  25.427  12.821  18.874  0.2750 -0.1328 -0.1506
 1092POPC   C1A13097  25.444  12.342  18.277  0.0878  0.0738 -0.0172
 1092POPC   D2A13098  25.651  12.128  17.888  0.1101 -0.1884 -0.0754
 1092POPC   C3A13099  25.619  12.213  17.436 -0.0149 -0.1224 -0.0856
 1092POPC   C4A13100  25.898  12.165  17.047 -0.1077 -0.4129  0.2745
 1092POPC   C1B13101  25.573  12.839  18.441 -0.0586  0.0729 -0.2378
 1092POPC   C2B13102  25.600  12.732  18.023 -0.0582 -0.0642  0.2636
 1092POPC   C3B13103  25.328  12.522  17.794 -0.1044  0.0917  0.0642
 1092POPC   C4B13104  25.148  12.094  17.693  0.2487 -0.0973  0.1699
 1093POPC   NC313105   6.664  28.364  19.117 -0.0008 -0.0964  0.3222
 1093POPC   PO413106   6.483  28.667  19.345 -0.2179 -0.0334  0.1643
 1093POPC   GL113107   6.562  28.722  18.897  0.2806  0.0551 -0.2404
 1093POPC   GL213108   6.349  28.810  18.741  0.0055  0.2091 -0.0503
 1093POPC   C1A13109   6.559  28.372  18.612  0.0696 -0.1198  0.0853
 1093POPC   D2A13110   6.415  28.348  18.160  0.4666 -0.1791  0.0784
 1093POPC   C3A13111   6.281  28.369  17.703  0.2568 -0.1137  0.1845
 1093POPC   C4A13112   6.358  28.446  17.247  0.3793  0.2116 -0.2124
 1093POPC   C1B13113   6.465  28.850  18.262 -0.1771  0.2469  0.1161
 1093POPC   C2B13114   6.419  29.032  17.874 -0.3556  0.2310 -0.2341
 1093POPC   C3B13115   6.667  28.970  17.466 -0.3311  0.0040  0.0395
 1093POPC   C4B13116   6.861  28.771  17.106  0.0103 -0.1700  0.0967
 1094POPC   NC313117  26.964  14.169  19.095 -0.2387 -0.2949  0.1348
 1094POPC   PO413118  26.703  14.325  19.321  0.0626 -0.1864  0.2481
 1094POPC   GL113119  26.604  14.461  18.941 -0.4731 -0.1028  0.1101
 1094POPC   GL213120  26.505  14.219  18.920 -0.0074 -0.2394  0.1554
 1094POPC   C1A13121  26.513  14.500  18.472 -0.0394 -0.0634 -0.0910
 1094POPC   D2A13122  26.540  14.470  18.028  0.0279 -0.0697 -0.3614
 1094POPC   C3A13123  26.239  14.608  17.704  0.3213  0.4386  0.1741
 1094POPC   C4A13124  26.011  14.548  17.314 -0.2338 -0.1393  0.0016
 1094POPC   C1B13125  26.695  13.917  18.636  0.1239  0.1353 -0.0734
 1094POPC   C2B13126  26.749  13.876  18.143 -0.0325 -0.1938 -0.2234
 1094POPC   C3B13127  26.909  13.970  17.673 -0.3832 -0.0979  0.1907
 1094POPC   C4B13128  27.324  13.984  17.442  0.0071  0.0827  0.1753
 1095POPC   NC313129   3.796   4.976  19.588 -0.0664 -0.3265 -0.4424
 1095POPC   PO413130   4.134   4.823  19.410 -0.0220  0.5565  0.0594
 1095POPC   GL113131   4.083   5.192  19.252 -0.4017  0.0314  0.3762
 1095POPC   GL213132   3.836   5.261  19.164  0.0833  0.0629  0.0163
 1095POPC   C1A13133   4.213   5.565  18.999 -0.2814 -0.1369 -0.4301
 1095POPC   D2A13134   4.584   5.921  19.010 -0.1021  0.0983 -0.0070
 1095POPC   C3A13135   4.452   6.385  18.898 -0.0836 -0.3138 -0.3734
 1095POPC   C4A13136   4.673   6.771  18.760  0.2594  0.2305  0.1661
 1095POPC   C1B13137   3.765   5.717  19.187 -0.4742 -0.1553  0.1438
 1095POPC   C2B13138   3.502   6.054  19.402  0.1736  0.4111 -0.2297
 1095POPC   C3B13139   3.047   6.162  19.402 -0.2935 -0.3139 -0.2827
 1095POPC   C4B13140   2.698   6.100  19.087 -0.1919 -0.0874 -0.2878
 1096POPC   NC313141  15.374  21.981  19.575 -0.1596 -0.3520 -0.1160
 1096POPC   PO413142  15.124  22.262  19.485  0.0082  0.2005 -0.0527
 1096POPC   GL113143  15.037  22.030  19.127  0.1245 -0.2187  0.2098
 1096POPC   GL213144  15.131  21.770  19.077 -0.3158 -0.0271 -0.0537
 1096POPC   C1A13145  15.131  22.184  18.731 -0.2932  0.3565  0.3184
 1096POPC   D2A13146  15.093  21.953  18.319 -0.2278  0.1685 -0.2547
 1096POPC   C3A13147  15.011  21.930  17.844 -0.1284 -0.2797 -0.1381
 1096POPC   C4A13148  15.261  22.104  17.478  0.0975  0.0533  0.3828
 1096POPC   C1B13149  15.410  21.728  18.672 -0.1722  0.0325  0.0026
 1096POPC   C2B13150  15.443  21.617  18.198  0.1058 -0.1101  0.2066
 1096POPC   C3B13151  15.550  21.618  17.730  0.0724  0.2513 -0.0140
 1096POPC   C4B13152  15.484  21.285  17.437 -0.1775 -0.0852 -0.4526
 1097POPC   NC313153  17.114   7.197  19.692 -0.2627 -0.0321 -0.0751
 1097POPC   PO413154  16.936   6.910  19.489 -0.0293 -0.0015  0.0749
 1097POPC   GL113155  16.937   6.848  19.120 -0.1517  0.2681 -0.0586
 1097POPC   GL213156  16.624   6.824  19.083  0.0396  0.1344 -0.0156
 1097POPC   C1A13157  17.250   6.904  18.798  0.0731 -0.1625  0.1999
 1097POPC   D2A13158  17.109   7.056  18.317  0.2810  0.0069 -0.1617
 1097POPC   C3A13159  17.139   7.128  17.858  0.1129  0.0551 -0.0662
 1097POPC   C4A13160  17.149   7.502  17.527  0.1526 -0.2287  0.3589
 1097POPC   C1B13161  16.752   6.812  18.619  0.1355 -0.1296 -0.1084
 1097POPC   C2B13162  16.693   6.667  18.164 -0.1417  0.0663  0.0927
 1097POPC   C3B13163  16.655   6.645  17.741 -0.0528  0.3483 -0.0922
 1097POPC   C4B13164  16.769   6.964  17.445  0.2908  0.1402  0.0281
 1098POPC   NC313165   3.934  14.060  19.274 -0.2446 -0.0192 -0.1322
 1098POPC   PO413166   4.339  14.127  19.363  0.2737 -0.0066 -0.1631
 1098POPC   GL113167   4.379  14.068  18.949 -0.2330  0.1083  0.0565
 1098POPC   GL213168   4.291  14.304  18.897 -0.1650 -0.2649  0.0304
 1098POPC   C1A13169   4.194  13.716  18.717 -0.2434  0.1148  0.0106
 1098POPC   D2A13170   4.118  13.603  18.297 -0.2199 -0.1956  0.0338
 1098POPC   C3A13171   4.141  13.556  17.815 -0.2361 -0.0215  0.0862
 1098POPC   C4A13172   3.920  13.547  17.453  0.0668  0.0619 -0.2603
 1098POPC   C1B13173   4.305  14.214  18.468  0.0935  0.0900 -0.0447
 1098POPC   C2B13174   4.156  14.345  18.054 -0.3195  0.1432 -0.3263
 1098POPC   C3B13175   3.837  14.383  17.723  0.0146 -0.0213  0.1880
 1098POPC   C4B13176   3.503  14.218  17.471  0.4550 -0.0932 -0.2121
 1099POPC   NC313177   0.187  15.000  19.204 -0.0021  0.0776 -0.2366
 1099POPC   PO413178   0.448  14.695  19.170  0.3218 -0.2384  0.3948
 1099POPC   GL113179   0.406  14.619  18.836  0.0745 -0.1504 -0.3016
 1099POPC   GL213180   0.166  14.645  18.725  0.4583 -0.0878  0.0068
 1099POPC   C1A13181   0.567  14.584  18.400 -0.4477  0.1992  0.0382
 1099POPC   D2A13182   0.741  14.363  18.006 -0.0619 -0.2309 -0.0708
 1099POPC   C3A13183   1.144  14.240  17.821 -0.2721  0.2907 -0.2059
 1099POPC   C4A13184   1.419  14.013  17.529 -0.0962 -0.1169 -0.1154
 1099POPC   C1B13185   0.102  14.814  18.301 -0.1355  0.1966 -0.0842
 1099POPC   C2B13186  -0.007  14.852  17.879  0.0529 -0.1400  0.0951
 1099POPC   C3B13187  -0.010  15.110  17.468  0.2466  0.3833 -0.1502
 1099POPC   C4B13188   0.138  15.148  17.031 -0.2272 -0.0619  0.1133
 1100POPC   NC313189   1.011   3.108  19.483  0.0942 -0.1013  0.0650
 1100POPC   PO413190   0.868   3.175  19.118  0.0328 -0.1985  0.1701
 1100POPC   GL113191   0.964   3.304  18.732  0.1767 -0.2571 -0.2815
 1100POPC   GL213192   0.742   3.164  18.623 -0.0421  0.1976 -0.0606
 1100POPC   C1A13193   1.101   3.375  18.275 -0.1740  0.1954  0.1551
 1100POPC   D2A13194   1.167   3.757  18.052  0.4589 -0.1875 -0.2811
 1100POPC   C3A13195   1.429   3.672  17.667  0.0416 -0.1887  0.2447
 1100POPC   C4A13196   1.611   3.248  17.493 -0.1075  0.1555  0.0913
 1100POPC   C1B13197   0.603   3.089  18.143  0.3379 -0.2856 -0.3481
 1100POPC   C2B13198   0.607   3.104  17.661 -0.0628  0.0855 -0.5035
 1100POPC   C3B13199   0.762   3.334  17.258 -0.1080 -0.1375  0.0399
 1100POPC   C4B13200   0.641   3.199  16.828  0.1142 -0.1624 -0.2652
 1101POPC   NC313201  16.773  30.981  19.894  0.2275  0.4791  0.2607
 1101POPC   PO413202  16.859  31.168  19.550  0.0137 -0.3818 -0.0729
 1101POPC   GL113203  16.949  31.039  19.230  0.0816 -0.1764  0.1286
 1101POPC   GL213204  16.911  31.234  19.015 -0.0328 -0.2566 -0.0002
 1101POPC   C1A13205  16.833  30.716  18.932  0.1506 -0.0988  0.1335
 1101POPC   D2A13206  16.916  30.563  18.501  0.0514 -0.0969 -0.1855
 1101POPC   C3A13207  16.947  30.768  18.130 -0.0881  0.0017 -0.2179
 1101POPC   C4A13208  17.167  30.684  17.727 -0.3086  0.0045 -0.3949
 1101POPC   C1B13209  16.462  31.121  18.859  0.0497  0.0743  0.1534
 1101POPC   C2B13210  16.109  30.840  18.760 -0.2709  0.1584  0.2441
 1101POPC   C3B13211  15.998  30.960  18.278 -0.2815  0.2200 -0.2040
 1101POPC   C4B13212  15.576  31.059  18.046 -0.1714 -0.0748 -0.2244
 1102POPC   NC313213  16.824   4.247  19.374  0.0883  0.4027 -0.0517
 1102POPC   PO413214  16.938   3.938  19.510  0.2813  0.2666 -0.1502
 1102POPC   GL113215  16.976   3.843  19.101 -0.2267 -0.0296  0.2175
 1102POPC   GL213216  16.811   3.984  18.919  0.1402  0.3708  0.1290
 1102POPC   C1A13217  17.126   3.616  18.763  0.0853 -0.1613 -0.2667
 1102POPC   D2A13218  17.255   3.763  18.394  0.3982  0.0980  0.2837
 1102POPC   C3A13219  17.491   3.719  18.003 -0.1417 -0.0076 -0.1778
 1102POPC   C4A13220  17.733   3.428  17.683 -0.0162  0.1049  0.0634
 1102POPC   C1B13221  16.568   3.906  18.528  0.1975  0.2439  0.0412
 1102POPC   C2B13222  16.487   4.023  18.096 -0.0371 -0.4122 -0.0870
 1102POPC   C3B13223  16.705   4.200  17.722 -0.2918 -0.0560 -0.0616
 1102POPC   C4B13224  17.062   4.357  17.615  0.3670  0.2564  0.1076
 1103POPC   NC313225  11.519  26.020  19.537  0.1210 -0.1643  0.1332
 1103POPC   PO413226  11.176  26.033  19.288 -0.1111 -0.4414 -0.1239
 1103POPC   GL113227  11.397  26.062  18.963  0.0524  0.0787  0.0149
 1103POPC   GL213228  11.380  25.879  18.761 -0.0886  0.0583  0.2582
 1103POPC   C1A13229  11.707  26.331  18.724  0.0632 -0.0224 -0.1672
 1103POPC   D2A13230  11.790  26.447  18.342 -0.0240  0.2427 -0.0557
 1103POPC   C3A13231  11.977  26.364  17.943  0.0006 -0.0019 -0.2822
 1103POPC   C4A13232  12.332  26.082  17.850  0.1143 -0.1631  0.0039
 1103POPC   C1B13233  11.160  26.023  18.383 -0.0786 -0.0484 -0.1478
 1103POPC   C2B13234  10.967  26.235  18.040  0.0911 -0.2619 -0.1293
 1103POPC   C3B13235  10.729  26.402  17.733 -0.0873 -0.1629  0.2402
 1103POPC   C4B13236  10.588  26.753  17.431 -0.1868  0.0100  0.1105
 1104POPC   NC313237   9.839  14.296  20.035  0.0228 -0.1316  0.0723
 1104POPC   PO413238   9.827  14.684  19.989  0.1235  0.2806  0.0157
 1104POPC   GL113239   9.920  14.527  19.641  0.2723  0.1684 -0.2666
 1104POPC   GL213240   9.713  14.465  19.538 -0.0705  0.0523 -0.2789
 1104POPC   C1A13241  10.092  14.658  19.222  0.0964  0.3800  0.0256
 1104POPC   D2A13242  10.091  14.548  18.803 -0.1774 -0.0900  0.0566
 1104POPC   C3A13243   9.968  14.551  18.405 -0.3900  0.0242 -0.2708
 1104POPC   C4A13244   9.627  14.607  18.154 -0.4020 -0.4968  0.3190
 1104POPC   C1B13245   9.524  14.754  19.213  0.1279 -0.6331  0.0251
 1104POPC   C2B13246   9.191  15.034  19.008 -0.1340 -0.1527 -0.0510
 1104POPC   C3B13247   8.973  14.929  18.635  0.1038  0.1205 -0.0530
 1104POPC   C4B13248   8.569  14.948  18.556  0.0891 -0.2650 -0.2403
 1105POPC   NC313249  18.346  11.459  19.186  0.0721 -0.0234 -0.1574
 1105POPC   PO413250  18.121  11.352  19.458 -0.1030  0.2951  0.1089
 1105POPC   GL113251  17.936  11.489  18.998  0.0614  0.0589 -0.0193
 1105POPC   GL213252  18.046  11.767  18.905  0.2715  0.3807 -0.0799
 1105POPC   C1A13253  17.905  11.369  18.520 -0.0419  0.0329  0.0631
 1105POPC   D2A13254  18.076  11.124  18.120  0.4223 -0.2481 -0.0356
 1105POPC   C3A13255  18.457  11.285  18.045 -0.1609 -0.2099 -0.0019
 1105POPC   C4A13256  18.754  11.527  18.317  0.1718  0.0540 -0.0597
 1105POPC   C1B13257  17.793  11.926  18.565 -0.0516 -0.0565  0.0248
 1105POPC   C2B13258  17.689  11.820  18.150 -0.0962 -0.1402  0.0885
 1105POPC   C3B13259  17.337  11.689  17.815 -0.3341 -0.0061 -0.4970
 1105POPC   C4B13260  17.167  11.299  17.595 -0.2402  0.0613 -0.0805
 1106POPC   NC313261   0.186  26.628  19.611 -0.3639 -0.2012  0.0085
 1106POPC   PO413262   0.489  26.376  19.507  0.1728 -0.0855 -0.0097
 1106POPC   GL113263   0.585  26.692  19.267  0.0099  0.0484 -0.1233
 1106POPC   GL213264   0.613  27.012  19.196 -0.1171  0.2027  0.2076
 1106POPC   C1A13265   0.739  26.658  18.819 -0.0409 -0.2435 -0.0855
 1106POPC   D2A13266   0.882  26.859  18.366 -0.1521  0.0598  0.1336
 1106POPC   C3A13267   0.720  26.829  17.910  0.2865 -0.1690  0.0224
 1106POPC   C4A13268   0.582  27.068  17.554 -0.1492  0.1401  0.3376
 1106POPC   C1B13269   0.558  27.130  18.787  0.1804 -0.2289 -0.1117
 1106POPC   C2B13270   0.397  27.273  18.348  0.0004  0.1135 -0.1517
 1106POPC   C3B13271   0.117  27.106  18.026  0.3117  0.1608  0.0230
 1106POPC   C4B13272   0.017  27.031  17.573 -0.1526 -0.2153 -0.2097
 1107POPC   NC313273   0.449  18.982  19.357  0.0415  0.1200  0.2010
 1107POPC   PO413274   0.636  18.654  19.390 -0.1805 -0.0348  0.1899
 1107POPC   GL113275   0.612  18.569  18.979  0.0228 -0.0530  0.0168
 1107POPC   GL213276   0.331  18.614  18.930 -0.4172  0.1304 -0.0771
 1107POPC   C1A13277   0.583  18.813  18.564 -0.0286 -0.1021 -0.0851
 1107POPC   D2A13278   0.312  18.829  18.209  0.0580 -0.3702  0.3731
 1107POPC   C3A13279   0.175  18.384  18.148  0.2733  0.0425  0.0058
 1107POPC   C4A13280  -0.046  18.049  18.437 -0.2340 -0.0317 -0.0740
 1107POPC   C1B13281   0.054  18.570  18.579 -0.0235  0.3005  0.4106
 1107POPC   C2B13282  -0.326  18.434  18.312  0.1511  0.3190  0.2352
 1107POPC   C3B13283  -0.596  18.510  17.951 -0.1910 -0.3437  0.0373
 1107POPC   C4B13284  -0.738  18.877  17.693  0.1659 -0.3547  0.0052
 1108POPC   NC313285  30.262   8.929  19.147  0.1856 -0.1313 -0.0209
 1108POPC   PO413286  30.071   9.245  19.119 -0.1261 -0.0326 -0.1323
 1108POPC   GL113287  30.092   9.126  18.763  0.4717  0.2829 -0.1277
 1108POPC   GL213288  30.339   9.306  18.723 -0.0703  0.0893 -0.1366
 1108POPC   C1A13289  29.838   8.972  18.417 -0.1557  0.2037 -0.0695
 1108POPC   D2A13290  29.720   8.820  17.978  0.3454  0.3409  0.0973
 1108POPC   C3A13291  29.294   8.699  17.809 -0.2369  0.1251  0.4440
 1108POPC   C4A13292  28.977   8.436  17.531  0.0550 -0.1175 -0.0730
 1108POPC   C1B13293  30.244   9.357  18.278  0.1711  0.2192 -0.0315
 1108POPC   C2B13294  30.491   9.430  17.878  0.3428  0.0056 -0.1140
 1108POPC   C3B13295  30.839   9.509  17.493 -0.0868  0.3695 -0.3214
 1108POPC   C4B13296  31.114   9.823  17.349  0.0630  0.1450 -0.2762
 1109POPC   NC313297   5.831  10.795  18.722  0.0871 -0.1360 -0.1972
 1109POPC   PO413298   5.560  10.989  18.973 -0.1202  0.3097 -0.0109
 1109POPC   GL113299   5.445  11.003  18.583 -0.1705  0.0598  0.3097
 1109POPC   GL213300   5.231  10.841  18.460 -0.0791  0.0759 -0.1083
 1109POPC   C1A13301   5.718  10.927  18.194  0.4001 -0.0349 -0.0280
 1109POPC   D2A13302   5.773  10.773  17.729 -0.0893  0.0192 -0.0967
 1109POPC   C3A13303   5.754  10.673  17.307  0.1798  0.1093 -0.0712
 1109POPC   C4A13304   5.594  10.643  16.897 -0.0617 -0.0856  0.1362
 1109POPC   C1B13305   4.985  10.697  18.089  0.0657 -0.2989  0.1238
 1109POPC   C2B13306   4.902  10.512  17.677 -0.2208 -0.1090 -0.1783
 1109POPC   C3B13307   4.560  10.311  17.428 -0.0154 -0.0673 -0.2097
 1109POPC   C4B13308   4.384  10.096  17.103  0.2632  0.1042  0.0474
 1110POPC   NC313309   9.455   4.597  18.967  0.0746  0.1934 -0.3988
 1110POPC   PO413310   9.780   4.755  19.116  0.1919  0.1754  0.0586
 1110POPC   GL113311   9.815   4.881  18.745  0.2155 -0.1201 -0.0966
 1110POPC   GL213312   9.722   5.119  18.656 -0.2111 -0.0564  0.1026
 1110POPC   C1A13313   9.676   4.636  18.342  0.1431 -0.0226 -0.1380
 1110POPC   D2A13314   9.710   4.564  17.865 -0.0487  0.3039 -0.1764
 1110POPC   C3A13315   9.841   4.200  17.607 -0.1085  0.2480  0.0651
 1110POPC   C4A13316   9.905   4.203  17.110 -0.1814  0.2413  0.1088
 1110POPC   C1B13317   9.650   5.362  18.257  0.0132 -0.0084 -0.2851
 1110POPC   C2B13318   9.883   5.594  17.927  0.0556 -0.2467 -0.2348
 1110POPC   C3B13319   9.855   5.690  17.440  0.0891 -0.1581 -0.0537
 1110POPC   C4B13320   9.908   6.002  17.062  0.0093 -0.0106 -0.0188
 1111POPC   NC313321  22.093   8.556  19.314 -0.1066  0.1068 -0.2481
 1111POPC   PO413322  21.921   8.927  19.209 -0.0658 -0.0301  0.0515
 1111POPC   GL113323  21.748   9.045  18.863  0.1405  0.3136 -0.2054
 1111POPC   GL213324  21.888   8.804  18.717 -0.0886 -0.1399  0.0690
 1111POPC   C1A13325  21.696   9.462  18.720  0.1745 -0.1257  0.2893
 1111POPC   D2A13326  21.488   9.670  18.337 -0.2851 -0.0512 -0.2814
 1111POPC   C3A13327  21.513   9.256  18.192  0.1899  0.1701 -0.0154
 1111POPC   C4A13328  21.587   9.249  17.709  0.0791 -0.0921 -0.1313
 1111POPC   C1B13329  21.910   8.971  18.291  0.0333  0.0228  0.1537
 1111POPC   C2B13330  22.327   8.978  18.102  0.4176 -0.3700  0.1058
 1111POPC   C3B13331  22.631   9.051  17.770  0.3585 -0.2085 -0.0021
 1111POPC   C4B13332  22.936   9.034  17.423 -0.1556 -0.0134 -0.1606
 1112POPC   NC313333  12.911   0.208  18.941 -0.1304 -0.0262 -0.3608
 1112POPC   PO413334  12.928  -0.182  19.024 -0.1298  0.1844  0.1055
 1112POPC   GL113335  12.629  -0.250  18.664  0.0588 -0.0524  0.7031
 1112POPC   GL213336  12.766  -0.007  18.539  0.3557 -0.1195  0.0037
 1112POPC   C1A13337  12.309  -0.051  18.348 -0.0291 -0.0343 -0.1279
 1112POPC   D2A13338  12.199  -0.053  17.929 -0.1505 -0.0996  0.0062
 1112POPC   C3A13339  12.319  -0.040  17.433  0.2279  0.2130 -0.0320
 1112POPC   C4A13340  12.373  -0.281  17.049 -0.2918  0.4943  0.1536
 1112POPC   C1B13341  12.686  -0.234  18.126 -0.1206  0.1711 -0.1898
 1112POPC   C2B13342  12.774  -0.406  17.677 -0.0435 -0.2724 -0.3656
 1112POPC   C3B13343  13.039  -0.308  17.255  0.1614 -0.4125  0.2179
 1112POPC   C4B13344  13.315  -0.450  16.900 -0.0433  0.1073 -0.1455
 1113POPC   NC313345  14.341   8.492  19.275  0.2930 -0.0284 -0.0570
 1113POPC   PO413346  14.366   8.596  18.905 -0.0319 -0.2100  0.1601
 1113POPC   GL113347  14.522   8.557  18.535 -0.0323  0.0268  0.0078
 1113POPC   GL213348  14.773   8.700  18.658 -0.2479  0.0670  0.2374
 1113POPC   C1A13349  14.529   8.161  18.260  0.1877 -0.1877  0.0751
 1113POPC   D2A13350  14.802   7.895  18.024  0.1142  0.1700 -0.1739
 1113POPC   C3A13351  14.948   8.184  17.704 -0.0918 -0.0242 -0.4121
 1113POPC   C4A13352  15.033   8.279  17.282 -0.0159 -0.1030  0.1986
 1113POPC   C1B13353  14.798   8.703  18.206 -0.2046 -0.2000  0.0632
 1113POPC   C2B13354  14.579   8.521  17.826 -0.4135  0.1235 -0.1096
 1113POPC   C3B13355  14.399   8.359  17.363  0.0673 -0.0550  0.0846
 1113POPC   C4B13356  14.183   8.292  16.934 -0.3001  0.0624 -0.0477
 1114POPC   NC313357  29.531  19.146  19.504  0.4500 -0.2133  0.0560
 1114POPC   PO413358  29.615  19.531  19.387 -0.2325  0.2355 -0.1199
 1114POPC   GL113359  29.404  19.472  19.109 -0.0499 -0.0004  0.1190
 1114POPC   GL213360  29.244  19.218  19.046  0.1185 -0.0396 -0.1012
 1114POPC   C1A13361  29.398  19.553  18.642  0.0258  0.0857 -0.0263
 1114POPC   D2A13362  29.245  19.539  18.182 -0.0383 -0.0960  0.0069
 1114POPC   C3A13363  29.267  19.809  17.800  0.3234  0.1390  0.1545
 1114POPC   C4A13364  29.409  19.989  17.418  0.2767  0.1341  0.1127
 1114POPC   C1B13365  29.438  18.873  18.877  0.3110  0.0309  0.1004
 1114POPC   C2B13366  29.644  18.774  18.500 -0.3342  0.1502 -0.0605
 1114POPC   C3B13367  29.740  18.520  18.105 -0.1770 -0.1276 -0.2609
 1114POPC   C4B13368  30.006  18.083  18.023  0.2014 -0.1541  0.0827
 1115POPC   NC313369   2.142  17.876  19.018 -0.0027  0.2196 -0.2103
 1115POPC   PO413370   2.017  18.029  19.355  0.0018 -0.1550  0.0426
 1115POPC   GL113371   2.122  18.422  19.157  0.1172  0.1560  0.0838
 1115POPC   GL213372   1.877  18.373  18.964  0.0264 -0.0341  0.3254
 1115POPC   C1A13373   2.305  18.318  18.745 -0.0093  0.0369  0.1177
 1115POPC   D2A13374   2.308  18.564  18.369 -0.0187  0.1251  0.2138
 1115POPC   C3A13375   2.138  18.379  17.981 -0.0261  0.0960 -0.3404
 1115POPC   C4A13376   2.308  18.256  17.593 -0.4058 -0.2299  0.1703
 1115POPC   C1B13377   1.890  18.695  18.584 -0.4348  0.0153  0.0228
 1115POPC   C2B13378   1.808  18.862  18.194 -0.0201 -0.0701  0.0393
 1115POPC   C3B13379   2.067  18.809  17.825  0.2772 -0.3046  0.0422
 1115POPC   C4B13380   2.500  18.684  17.726  0.1113  0.0893  0.2547
 1116POPC   NC313381   4.847  15.360  19.387 -0.2961 -0.2772  0.1173
 1116POPC   PO413382   5.130  15.047  19.487 -0.0103 -0.0192  0.0240
 1116POPC   GL113383   5.217  15.171  19.128 -0.1480 -0.0144  0.2151
 1116POPC   GL213384   5.355  15.030  18.915 -0.0667  0.0150 -0.2561
 1116POPC   C1A13385   5.343  15.614  18.871 -0.2274  0.3057  0.0946
 1116POPC   D2A13386   5.481  16.011  18.808 -0.0796  0.1573 -0.4304
 1116POPC   C3A13387   5.289  16.307  18.511  0.0752 -0.2955 -0.0926
 1116POPC   C4A13388   5.206  16.243  18.078 -0.1147  0.1272  0.0098
 1116POPC   C1B13389   5.314  14.738  18.579  0.1237 -0.1989 -0.0422
 1116POPC   C2B13390   5.204  14.651  18.146  0.0797  0.2739  0.1480
 1116POPC   C3B13391   5.394  14.393  17.886 -0.0416 -0.1487  0.3294
 1116POPC   C4B13392   5.502  14.009  17.718 -0.2544 -0.0056 -0.0284
 1117POPC   NC313393  26.914  23.299  19.542  0.0782  0.0415 -0.1085
 1117POPC   PO413394  27.117  23.575  19.496 -0.0205 -0.1402 -0.1548
 1117POPC   GL113395  26.891  23.729  19.192 -0.2409  0.1033 -0.0670
 1117POPC   GL213396  27.089  23.607  18.952 -0.1117 -0.0709  0.1174
 1117POPC   C1A13397  26.628  23.720  18.782 -0.2423  0.0709 -0.1807
 1117POPC   D2A13398  26.402  23.858  18.413 -0.2736 -0.1018  0.1427
 1117POPC   C3A13399  26.086  24.196  18.253  0.1269 -0.1937 -0.1809
 1117POPC   C4A13400  26.050  24.331  17.839  0.3004  0.1536  0.0706
 1117POPC   C1B13401  27.021  23.676  18.462  0.0853 -0.1987  0.0258
 1117POPC   C2B13402  26.853  24.002  18.162  0.1741  0.0843 -0.1512
 1117POPC   C3B13403  26.497  24.136  17.930  0.2068  0.1472  0.3589
 1117POPC   C4B13404  26.478  24.424  17.530 -0.1705  0.0973  0.0352
 1118POPC   NC313405   8.481  16.024  19.660 -0.0689 -0.1734 -0.1138
 1118POPC   PO413406   8.701  16.346  19.529  0.0860 -0.0882 -0.2781
 1118POPC   GL113407   8.985  16.235  19.244  0.0979 -0.1933 -0.1322
 1118POPC   GL213408   9.114  16.582  19.205 -0.1150 -0.0001 -0.0714
 1118POPC   C1A13409   8.821  16.177  18.833 -0.0238  0.1631  0.0587
 1118POPC   D2A13410   8.628  15.812  18.664 -0.0050  0.1249  0.0308
 1118POPC   C3A13411   8.257  15.706  18.439 -0.1790  0.1406 -0.0550
 1118POPC   C4A13412   7.829  15.568  18.273  0.0775  0.1098  0.0049
 1118POPC   C1B13413   9.205  16.477  18.753 -0.2270  0.0131 -0.1446
 1118POPC   C2B13414   9.141  16.109  18.450  0.2628 -0.1750 -0.4224
 1118POPC   C3B13415   8.898  15.799  18.205 -0.0859  0.3057  0.2189
 1118POPC   C4B13416   8.805  15.684  17.777  0.0748 -0.0664 -0.0466
 1119POPC   NC313417   2.498  19.397  19.660 -0.0250 -0.1420  0.0607
 1119POPC   PO413418   2.393  19.783  19.512  0.4954 -0.2706 -0.1236
 1119POPC   GL113419   2.397  19.834  19.102 -0.1320  0.0380  0.1870
 1119POPC   GL213420   2.467  20.115  19.040  0.0072  0.2929 -0.1625
 1119POPC   C1A13421   2.579  19.677  18.713  0.3593 -0.0681 -0.1792
 1119POPC   D2A13422   2.443  19.636  18.296  0.1916 -0.1316  0.1699
 1119POPC   C3A13423   2.595  19.548  17.883 -0.0983  0.0496  0.1405
 1119POPC   C4A13424   2.701  19.639  17.433  0.0367 -0.0399  0.2540
 1119POPC   C1B13425   2.480  20.357  18.665 -0.1892 -0.2303  0.3434
 1119POPC   C2B13426   2.659  20.435  18.255 -0.1940 -0.1810  0.0403
 1119POPC   C3B13427   2.960  20.365  17.859  0.1880  0.0703 -0.0308
 1119POPC   C4B13428   3.394  20.369  17.605  0.1098  0.0363  0.2216
 1120POPC   NC313429  15.085  17.516  19.256  0.2426 -0.0374 -0.1681
 1120POPC   PO413430  15.113  17.897  19.436  0.0153 -0.1385 -0.1033
 1120POPC   GL113431  15.183  17.811  18.954  0.2062 -0.4350  0.0768
 1120POPC   GL213432  15.446  17.873  18.843  0.0079  0.1231  0.2129
 1120POPC   C1A13433  14.969  17.586  18.608  0.2639  0.0038  0.0257
 1120POPC   D2A13434  14.700  17.521  18.232 -0.3146 -0.0036  0.1917
 1120POPC   C3A13435  14.913  17.610  17.868 -0.1551  0.0290  0.2239
 1120POPC   C4A13436  14.748  17.608  17.400 -0.3009 -0.0091 -0.0457
 1120POPC   C1B13437  15.687  17.929  18.447 -0.0960  0.2024  0.0206
 1120POPC   C2B13438  15.708  17.938  18.004  0.3197  0.3305 -0.2011
 1120POPC   C3B13439  15.723  17.992  17.545  0.0040  0.1129 -0.1205
 1120POPC   C4B13440  15.683  17.943  17.115  0.0551 -0.0625  0.1164
 1121POPC   NC313441  27.566  16.950  19.106 -0.0148 -0.1037  0.2277
 1121POPC   PO413442  27.779  16.649  18.955 -0.0448  0.0669 -0.2120
 1121POPC   GL113443  27.947  16.351  18.755 -0.1576  0.1626  0.1997
 1121POPC   GL213444  27.666  16.292  18.617  0.0061  0.2245 -0.1569
 1121POPC   C1A13445  28.354  16.332  18.562 -0.2641  0.0324  0.0097
 1121POPC   D2A13446  28.528  16.443  18.167  0.1981  0.1419  0.1233
 1121POPC   C3A13447  28.346  16.497  17.732  0.2180  0.2033  0.2202
 1121POPC   C4A13448  28.326  16.696  17.319 -0.0303 -0.1721  0.0377
 1121POPC   C1B13449  27.510  16.211  18.171  0.0128 -0.0487 -0.1394
 1121POPC   C2B13450  27.585  16.065  17.791  0.0590  0.1579 -0.0907
 1121POPC   C3B13451  27.291  16.187  17.419  0.1001 -0.0214  0.4371
 1121POPC   C4B13452  26.919  16.478  17.558 -0.0545  0.4139  0.1613
 1122POPC   NC313453  13.759   3.849  19.577 -0.0867 -0.3921  0.0446
 1122POPC   PO413454  13.426   3.647  19.684 -0.2147 -0.1212 -0.2572
 1122POPC   GL113455  13.433   3.679  19.212 -0.1816  0.0937  0.2447
 1122POPC   GL213456  13.387   4.003  19.244  0.1081  0.0902 -0.0048
 1122POPC   C1A13457  13.098   3.564  18.874  0.0424  0.1174 -0.1250
 1122POPC   D2A13458  12.909   3.303  18.551 -0.3774  0.0213  0.0272
 1122POPC   C3A13459  12.954   3.496  18.178  0.0884 -0.2289  0.2948
 1122POPC   C4A13460  12.956   3.618  17.746 -0.0092 -0.0497  0.0064
 1122POPC   C1B13461  13.083   4.094  18.864 -0.0515  0.3485 -0.1858
 1122POPC   C2B13462  13.012   3.987  18.441  0.0460 -0.1678  0.0295
 1122POPC   C3B13463  12.926   4.045  18.007 -0.0320  0.0169  0.0214
 1122POPC   C4B13464  13.169   4.038  17.572 -0.3525 -0.0239  0.0319
 1123POPC   NC313465   1.445   1.884  18.905 -0.2905  0.1128 -0.1588
 1123POPC   PO413466   1.637   1.822  19.196 -0.2046 -0.0872 -0.1437
 1123POPC   GL113467   1.919   1.899  18.886  0.2937 -0.0477 -0.3038
 1123POPC   GL213468   1.935   2.211  19.029 -0.0561 -0.2156  0.2242
 1123POPC   C1A13469   1.839   1.706  18.470 -0.1477 -0.0582 -0.0488
 1123POPC   D2A13470   1.836   1.512  18.080 -0.2125 -0.2937  0.1695
 1123POPC   C3A13471   1.835   1.732  17.685 -0.2668  0.2040 -0.0894
 1123POPC   C4A13472   2.135   1.864  17.336 -0.0944  0.0446 -0.2710
 1123POPC   C1B13473   1.749   2.239  18.570  0.1905  0.0420  0.1751
 1123POPC   C2B13474   1.896   2.082  18.126  0.0514  0.3540 -0.2997
 1123POPC   C3B13475   2.034   2.206  17.716 -0.0439 -0.2012  0.0267
 1123POPC   C4B13476   2.273   2.436  17.407 -0.0717 -0.2594 -0.1742
 1124POPC   NC313477  28.472  16.941  19.384 -0.0702 -0.4035  0.1752
 1124POPC   PO413478  28.134  16.921  19.230  0.3026 -0.2277 -0.0851
 1124POPC   GL113479  28.107  17.010  18.887 -0.2769  0.0684  0.2165
 1124POPC   GL213480  28.143  16.804  18.696 -0.0942  0.0159  0.1268
 1124POPC   C1A13481  27.758  17.233  18.636  0.0321 -0.0272  0.0826
 1124POPC   D2A13482  27.320  17.429  18.738 -0.0472 -0.0298 -0.0143
 1124POPC   C3A13483  27.049  17.584  18.446  0.1385 -0.1189  0.0536
 1124POPC   C4A13484  26.613  17.547  18.323  0.0591  0.3343 -0.2404
 1124POPC   C1B13485  28.001  16.591  18.323 -0.0558  0.1174  0.0552
 1124POPC   C2B13486  27.813  16.561  17.857  0.1243 -0.1205  0.0255
 1124POPC   C3B13487  27.737  16.440  17.393  0.3538 -0.2503 -0.1436
 1124POPC   C4B13488  27.463  16.541  17.088 -0.0218 -0.2136 -0.1018
 1125POPC   NC313489   8.619  16.698  19.182 -0.3572  0.1791 -0.1426
 1125POPC   PO413490   8.806  17.019  19.303  0.1946  0.2083  0.0521
 1125POPC   GL113491   8.907  17.125  18.998 -0.1162  0.0443  0.1650
 1125POPC   GL213492   8.978  16.902  18.874  0.4436  0.0368  0.0596
 1125POPC   C1A13493   8.864  17.356  18.560  0.2234  0.1591 -0.3554
 1125POPC   D2A13494   8.928  17.293  18.070 -0.0219 -0.1254  0.1319
 1125POPC   C3A13495   8.781  17.003  17.734  0.0754  0.2112 -0.1087
 1125POPC   C4A13496   8.718  16.644  17.571  0.3532  0.0822 -0.5429
 1125POPC   C1B13497   8.797  16.891  18.416 -0.2432 -0.0766 -0.0335
 1125POPC   C2B13498   8.548  16.695  18.098  0.0545  0.0266  0.0813
 1125POPC   C3B13499   8.257  16.368  17.961  0.0570 -0.2132  0.1396
 1125POPC   C4B13500   8.012  16.065  18.177 -0.0638  0.1856  0.1902
 1126POPC   NC313501  12.802  23.339  19.072  0.0144  0.2325 -0.0158
 1126POPC   PO413502  12.557  23.647  19.175  0.0744  0.1240  0.0321
 1126POPC   GL113503  12.583  23.707  18.748 -0.2513  0.1069 -0.2510
 1126POPC   GL213504  12.756  23.492  18.616  0.0441  0.0093  0.2820
 1126POPC   C1A13505  12.581  24.170  18.624 -0.2221  0.3324  0.1858
 1126POPC   D2A13506  12.423  24.590  18.451 -0.2885 -0.0385 -0.2531
 1126POPC   C3A13507  12.427  25.025  18.618  0.4863  0.2072 -0.1660
 1126POPC   C4A13508  12.163  25.430  18.703 -0.0217  0.3662 -0.0736
 1126POPC   C1B13509  12.735  23.696  18.207  0.0751  0.2108  0.0675
 1126POPC   C2B13510  12.608  23.826  17.776  0.1058  0.0269 -0.2246
 1126POPC   C3B13511  12.539  23.898  17.355 -0.0213  0.2299 -0.0223
 1126POPC   C4B13512  12.446  24.283  17.101  0.0348  0.0833  0.3708
 1127POPC   NC313513  20.247   8.796  19.056  0.1033 -0.2020  0.0125
 1127POPC   PO413514  20.219   9.164  19.255 -0.0305  0.3295 -0.1767
 1127POPC   GL113515  20.110   9.261  18.909 -0.1055  0.3023  0.3148
 1127POPC   GL213516  20.175   9.567  18.891 -0.0191  0.4709 -0.0760
 1127POPC   C1A13517  19.977   9.042  18.491  0.1419  0.1121 -0.2070
 1127POPC   D2A13518  20.153   9.088  18.087  0.1438 -0.0914  0.6445
 1127POPC   C3A13519  20.078   8.733  17.845 -0.1366  0.3780  0.0074
 1127POPC   C4A13520  19.640   8.584  17.659 -0.0276  0.0626  0.1005
 1127POPC   C1B13521  20.542   9.794  18.693 -0.1609 -0.0592  0.4482
 1127POPC   C2B13522  20.655   9.871  18.232 -0.2174 -0.3291  0.3673
 1127POPC   C3B13523  20.691   9.786  17.732 -0.1392 -0.2687 -0.2060
 1127POPC   C4B13524  20.702   9.631  17.294  0.0564 -0.0773 -0.1805
 1128POPC   NC313525   2.264  31.109  19.584 -0.1254 -0.3282  0.0794
 1128POPC   PO413526   2.371  30.914  19.218 -0.1368  0.0231  0.3995
 1128POPC   GL113527   2.239  31.047  18.831  0.0672  0.0764  0.0407
 1128POPC   GL213528   2.438  30.958  18.603 -0.4349  0.0208 -0.0672
 1128POPC   C1A13529   1.932  31.111  18.476  0.2528  0.2487 -0.3395
 1128POPC   D2A13530   1.601  31.276  18.218  0.2149 -0.1924  0.0460
 1128POPC   C3A13531   1.769  31.279  17.784 -0.0122 -0.0089 -0.0339
 1128POPC   C4A13532   1.752  31.102  17.332  0.2472  0.1932 -0.1244
 1128POPC   C1B13533   2.517  31.195  18.214  0.1903  0.2911 -0.2203
 1128POPC   C2B13534   2.729  31.297  17.788  0.0091  0.1347  0.1594
 1128POPC   C3B13535   2.782  31.638  17.444  0.0134 -0.0289 -0.3619
 1128POPC   C4B13536   3.058  31.813  17.169  0.2646  0.1374 -0.0095
 1129POPC   NC313537   3.624  31.169  18.946 -0.0921  0.1763 -0.1630
 1129POPC   PO413538   3.270  30.959  18.926 -0.2909  0.0928 -0.0251
 1129POPC   GL113539   3.395  31.030  18.529  0.0181  0.1294 -0.2768
 1129POPC   GL213540   3.492  31.294  18.464  0.1251  0.4015 -0.1273
 1129POPC   C1A13541   3.453  30.938  18.062 -0.0305  0.1337  0.0768
 1129POPC   D2A13542   3.439  31.154  17.612  0.0902 -0.2078 -0.0343
 1129POPC   C3A13543   3.075  31.227  17.367  0.5380  0.0618  0.2370
 1129POPC   C4A13544   2.651  31.128  17.335  0.1228 -0.1729  0.0308
 1129POPC   C1B13545   3.432  31.680  18.253  0.0251  0.1114 -0.1408
 1129POPC   C2B13546   3.272  32.037  18.005  0.0778  0.1361  0.0510
 1129POPC   C3B13547   3.008  32.238  17.687 -0.0631  0.1585 -0.1272
 1129POPC   C4B13548   2.705  32.387  17.411 -0.1941  0.2655  0.2780
 1130POPC   NC313549  16.720   5.441  19.325 -0.1590  0.1745 -0.0229
 1130POPC   PO413550  16.406   5.226  19.421  0.1821 -0.2135 -0.1841
 1130POPC   GL113551  16.141   5.390  19.236  0.2080 -0.0006 -0.0392
 1130POPC   GL213552  16.259   5.655  19.138 -0.3323  0.2746  0.2118
 1130POPC   C1A13553  15.716   5.398  19.037 -0.1542 -0.1362 -0.0135
 1130POPC   D2A13554  15.493   5.538  18.624  0.0354  0.0722  0.3083
 1130POPC   C3A13555  15.681   5.412  18.193  0.1855  0.2725 -0.2673
 1130POPC   C4A13556  15.907   5.707  17.933  0.1477 -0.4549 -0.0679
 1130POPC   C1B13557  16.439   5.415  18.838  0.3170 -0.1192 -0.0054
 1130POPC   C2B13558  16.460   5.282  18.358 -0.2902  0.3085  0.0611
 1130POPC   C3B13559  16.468   4.866  18.025  0.2780 -0.0069  0.0142
 1130POPC   C4B13560  16.430   4.722  17.579  0.2442  0.0206  0.0216
 1131POPC   NC313561  10.849  18.578  19.694 -0.1066  0.0179 -0.0615
 1131POPC   PO413562  10.921  18.752  19.355 -0.1718 -0.3280 -0.0601
 1131POPC   GL113563  11.083  18.819  19.011 -0.1193  0.1231 -0.1516
 1131POPC   GL213564  11.266  18.829  18.763  0.0231  0.1160 -0.1034
 1131POPC   C1A13565  10.831  19.029  18.663  0.0200  0.0371  0.2818
 1131POPC   D2A13566  10.579  19.384  18.432  0.0805 -0.2022  0.0756
 1131POPC   C3A13567  10.473  19.355  17.989  0.0667  0.3098 -0.0789
 1131POPC   C4A13568  10.432  19.373  17.543 -0.2748 -0.1023 -0.0190
 1131POPC   C1B13569  11.329  18.795  18.309 -0.0071  0.0884  0.1335
 1131POPC   C2B13570  11.292  18.707  17.859  0.2575  0.1880  0.0853
 1131POPC   C3B13571  11.119  18.448  17.526  0.2998 -0.0117  0.1927
 1131POPC   C4B13572  10.923  18.602  17.126  0.0019  0.1211 -0.2602
 1132POPC   NC313573   9.088   3.139  19.703  0.0568 -0.0414  0.2432
 1132POPC   PO413574   8.894   2.845  19.537  0.1582  0.1529 -0.1285
 1132POPC   GL113575   8.961   2.518  19.285  0.1805 -0.2724  0.0568
 1132POPC   GL213576   9.073   2.338  19.475  0.2359 -0.0110  0.1489
 1132POPC   C1A13577   8.948   2.237  18.866 -0.2426 -0.0782  0.1679
 1132POPC   D2A13578   9.041   1.951  18.536  0.1872  0.0342 -0.0972
 1132POPC   C3A13579   8.892   1.900  18.080  0.0503  0.1104  0.0314
 1132POPC   C4A13580   8.579   1.903  17.712 -0.1049  0.0206 -0.2266
 1132POPC   C1B13581   8.930   1.961  19.311  0.1037  0.2207  0.0272
 1132POPC   C2B13582   8.867   1.567  19.172  0.5536  0.2890 -0.0968
 1132POPC   C3B13583   8.581   1.233  19.356 -0.0126 -0.0606 -0.1834
 1132POPC   C4B13584   8.340   0.994  19.633  0.0251  0.0064  0.0599
 1133POPC   NC313585  14.720  29.954  19.417 -0.4416  0.0436 -0.0080
 1133POPC   PO413586  15.044  30.069  19.223 -0.1550 -0.0851 -0.2803
 1133POPC   GL113587  15.025  30.275  18.817  0.0866 -0.0800  0.0963
 1133POPC   GL213588  14.752  30.166  18.827  0.1022 -0.0349  0.0827
 1133POPC   C1A13589  15.317  30.182  18.475 -0.1665  0.1644 -0.1326
 1133POPC   D2A13590  15.616  30.168  18.141  0.1659 -0.1508  0.2508
 1133POPC   C3A13591  15.707  30.153  17.694  0.1985 -0.2949  0.0681
 1133POPC   C4A13592  15.655  30.074  17.187  0.1111  0.0575 -0.0487
 1133POPC   C1B13593  14.750  30.193  18.363  0.0667 -0.0471 -0.2471
 1133POPC   C2B13594  14.875  30.041  17.940  0.1604  0.2051 -0.0177
 1133POPC   C3B13595  14.721  29.799  17.596 -0.0708 -0.0272  0.0133
 1133POPC   C4B13596  14.839  29.437  17.319 -0.0846  0.3216 -0.0443
 1134POPC   NC313597   0.909  14.652  19.446  0.0378 -0.3199 -0.0223
 1134POPC   PO413598   1.105  14.940  19.208 -0.1920  0.3354 -0.1478
 1134POPC   GL113599   0.996  14.990  18.892 -0.5626  0.1190  0.1557
 1134POPC   GL213600   1.127  14.783  18.690 -0.2272 -0.1839  0.0612
 1134POPC   C1A13601   0.888  15.139  18.426 -0.0630  0.3198 -0.2694
 1134POPC   D2A13602   0.853  15.318  18.000 -0.0904 -0.0485  0.0531
 1134POPC   C3A13603   1.324  15.430  17.850  0.3195  0.3732 -0.1676
 1134POPC   C4A13604   1.819  15.395  17.772  0.1410  0.1892  0.1237
 1134POPC   C1B13605   1.074  14.625  18.242  0.1137  0.1033 -0.0210
 1134POPC   C2B13606   1.428  14.597  17.894  0.0734  0.0576 -0.1526
 1134POPC   C3B13607   1.799  14.357  17.766  0.2853  0.1878  0.5665
 1134POPC   C4B13608   2.178  14.359  17.490  0.1782 -0.1739  0.1431
 1135POPC   NC313609   1.222   0.520  19.445 -0.0487  0.3830 -0.0350
 1135POPC   PO413610   0.879   0.261  19.413 -0.1751  0.2139 -0.3513
 1135POPC   GL113611   0.820   0.422  19.072 -0.0728  0.0149  0.0732
 1135POPC   GL213612   1.092   0.600  18.969 -0.1615 -0.1190  0.2323
 1135POPC   C1A13613   0.614   0.643  18.726  0.1838  0.1298  0.2370
 1135POPC   D2A13614   0.263   0.806  18.472  0.1015  0.2291  0.2323
 1135POPC   C3A13615   0.083   1.110  18.130 -0.2362  0.2189 -0.2951
 1135POPC   C4A13616  -0.171   1.034  17.813 -0.2888 -0.2755  0.1028
 1135POPC   C1B13617   1.104   0.591  18.523  0.1469  0.0568 -0.2653
 1135POPC   C2B13618   0.995   0.954  18.262 -0.0923 -0.1616 -0.2147
 1135POPC   C3B13619   0.838   1.279  18.036 -0.1216  0.0041 -0.0905
 1135POPC   C4B13620   1.008   1.284  17.555 -0.1578 -0.0695 -0.2113
 1136POPC   NC313621   4.138  13.542  19.511 -0.0928 -0.1571 -0.0017
 1136POPC   PO413622   4.217  13.195  19.635 -0.1641 -0.0119  0.0762
 1136POPC   GL113623   4.416  13.233  19.261 -0.1070 -0.1068  0.0686
 1136POPC   GL213624   4.407  13.479  19.067  0.1736  0.1267 -0.1493
 1136POPC   C1A13625   4.805  13.164  19.017 -0.0144 -0.0095  0.1669
 1136POPC   D2A13626   5.169  12.932  18.882  0.0447 -0.3974  0.0303
 1136POPC   C3A13627   5.477  13.139  18.612 -0.0681 -0.1237  0.0206
 1136POPC   C4A13628   5.369  13.229  18.138  0.4843  0.0991  0.0717
 1136POPC   C1B13629   4.432  13.240  18.675  0.1510  0.0241  0.1039
 1136POPC   C2B13630   4.398  13.218  18.206  0.1982 -0.0578 -0.3615
 1136POPC   C3B13631   4.372  13.130  17.772 -0.1433 -0.3435 -0.1633
 1136POPC   C4B13632   4.425  13.446  17.400 -0.2056 -0.1056 -0.0779
 1137POPC   NC313633  20.324  13.404  19.374  0.0794  0.3121  0.1157
 1137POPC   PO413634  20.498  13.659  19.117 -0.1808  0.2206 -0.0826
 1137POPC   GL113635  20.637  13.606  18.731  0.0344  0.1727 -0.1880
 1137POPC   GL213636  20.426  13.489  18.604  0.2666  0.1275 -0.2399
 1137POPC   C1A13637  20.799  13.261  18.342 -0.0299 -0.0054  0.0010
 1137POPC   D2A13638  20.840  13.187  17.866  0.0183  0.1191 -0.0973
 1137POPC   C3A13639  20.973  13.529  17.606  0.0603  0.0223 -0.2603
 1137POPC   C4A13640  21.034  13.867  17.318  0.1169 -0.0014 -0.0659
 1137POPC   C1B13641  20.151  13.697  18.299  0.0038 -0.0097 -0.1797
 1137POPC   C2B13642  20.119  13.700  17.812 -0.1110  0.0969 -0.0358
 1137POPC   C3B13643  20.068  13.577  17.360 -0.0827  0.0057  0.0376
 1137POPC   C4B13644  19.906  13.087  17.254 -0.2386  0.2005 -0.0473
 1138POPC   NC313645   4.681  22.883  19.684 -0.1489 -0.1881  0.0782
 1138POPC   PO413646   5.079  22.968  19.653  0.0511 -0.3030  0.0507
 1138POPC   GL113647   5.070  22.795  19.251  0.3930  0.1344  0.0311
 1138POPC   GL213648   5.039  22.930  19.030  0.1565 -0.4685 -0.1206
 1138POPC   C1A13649   5.017  22.392  19.104 -0.0406  0.0102 -0.0455
 1138POPC   D2A13650   5.127  22.219  18.710  0.0217 -0.0336  0.1167
 1138POPC   C3A13651   5.516  22.241  18.513  0.2991 -0.0685  0.1293
 1138POPC   C4A13652   5.769  22.259  18.066  0.1232 -0.1188 -0.1492
 1138POPC   C1B13653   4.875  22.710  18.623 -0.1353  0.0345  0.0040
 1138POPC   C2B13654   5.135  22.496  18.316  0.1346  0.1081 -0.0653
 1138POPC   C3B13655   5.284  22.332  17.925  0.0314 -0.0384 -0.0590
 1138POPC   C4B13656   5.505  22.044  17.674  0.1403  0.0788 -0.1668
 1139POPC   NC313657   3.380   7.572  19.288 -0.1141  0.1027  0.1199
 1139POPC   PO413658   3.516   7.782  18.990  0.1754 -0.0759 -0.0841
 1139POPC   GL113659   3.360   7.711  18.617 -0.0340 -0.1309  0.1547
 1139POPC   GL213660   3.478   7.480  18.598  0.0435 -0.0604 -0.0615
 1139POPC   C1A13661   3.132   7.413  18.316 -0.1700  0.2816 -0.0030
 1139POPC   D2A13662   3.171   6.979  18.202  0.3312 -0.1196  0.1243
 1139POPC   C3A13663   3.463   6.853  17.874  0.1594 -0.0039 -0.2059
 1139POPC   C4A13664   3.830   6.765  17.561  0.1780  0.0758 -0.1743
 1139POPC   C1B13665   3.627   7.277  18.199  0.2264  0.1462 -0.2128
 1139POPC   C2B13666   3.841   7.281  17.777 -0.0183 -0.6031 -0.1319
 1139POPC   C3B13667   4.037   7.168  17.392 -0.1425 -0.2853 -0.0682
 1139POPC   C4B13668   4.213   7.452  17.117  0.0668  0.2229  0.0367
 1140POPC   NC313669  14.097   2.908  19.866 -0.2828 -0.2397  0.0281
 1140POPC   PO413670  13.891   2.851  19.543 -0.0039 -0.0745  0.1312
 1140POPC   GL113671  14.006   2.856  19.184  0.0353  0.1361 -0.0399
 1140POPC   GL213672  14.156   3.091  19.084  0.4275 -0.2059 -0.0865
 1140POPC   C1A13673  14.056   2.891  18.695  0.0857 -0.1331  0.1276
 1140POPC   D2A13674  14.160   3.006  18.274 -0.2968 -0.0010  0.3372
 1140POPC   C3A13675  14.248   3.410  18.228  0.0303 -0.2381  0.0901
 1140POPC   C4A13676  14.314   3.690  17.803  0.1666  0.2095  0.0720
 1140POPC   C1B13677  13.860   3.452  19.123 -0.0831 -0.1656 -0.0992
 1140POPC   C2B13678  13.676   3.683  18.762 -0.1834 -0.1128  0.0620
 1140POPC   C3B13679  13.464   3.958  18.514 -0.1467 -0.1065  0.1251
 1140POPC   C4B13680  13.630   4.396  18.375 -0.1312 -0.0218 -0.1221
 1141POPC   NC313681   4.006  16.635  19.898  0.1287 -0.2609 -0.0261
 1141POPC   PO413682   4.034  16.507  19.510  0.2277 -0.0618 -0.3451
 1141POPC   GL113683   4.175  16.441  19.151 -0.2162 -0.0300 -0.0594
 1141POPC   GL213684   4.395  16.538  18.978 -0.0350  0.0366 -0.2390
 1141POPC   C1A13685   4.016  16.380  18.679 -0.3987 -0.1840  0.1031
 1141POPC   D2A13686   3.813  16.458  18.259 -0.1792 -0.0885  0.1471
 1141POPC   C3A13687   3.720  16.577  17.822  0.0017 -0.3619  0.0340
 1141POPC   C4A13688   3.758  16.605  17.340  0.2361  0.0961  0.0952
 1141POPC   C1B13689   4.370  16.782  18.654 -0.0123 -0.2269  0.1137
 1141POPC   C2B13690   4.387  16.889  18.195 -0.1305  0.0968 -0.1300
 1141POPC   C3B13691   4.472  16.633  17.807 -0.0893  0.0455 -0.0586
 1141POPC   C4B13692   4.624  16.527  17.322 -0.1656  0.1877 -0.0243
 1142POPC   NC313693   5.612   7.625  19.205 -0.0625 -0.1471  0.3479
 1142POPC   PO413694   5.917   7.846  19.295 -0.0537  0.1385 -0.3271
 1142POPC   GL113695   6.202   7.800  18.912 -0.2270  0.3017 -0.3089
 1142POPC   GL213696   6.005   7.562  18.881 -0.2392 -0.4169  0.0191
 1142POPC   C1A13697   6.300   7.738  18.471 -0.0320 -0.0199  0.0678
 1142POPC   D2A13698   6.312   8.050  18.111  0.0593  0.1471  0.0097
 1142POPC   C3A13699   6.594   7.953  17.793  0.0578  0.0298 -0.0315
 1142POPC   C4A13700   6.915   7.789  17.544  0.4402 -0.1973  0.1483
 1142POPC   C1B13701   5.937   7.370  18.475  0.0394  0.1655 -0.0473
 1142POPC   C2B13702   5.807   7.187  18.127  0.2771  0.0959 -0.2002
 1142POPC   C3B13703   5.829   7.168  17.663 -0.0569  0.0262 -0.1153
 1142POPC   C4B13704   5.455   7.131  17.344 -0.0677 -0.1704 -0.2370
 1143POPC   NC313705  19.358   7.689  19.308  0.3817 -0.1511 -0.0496
 1143POPC   PO413706  19.745   7.700  19.405 -0.1105 -0.3432 -0.0645
 1143POPC   GL113707  19.780   7.510  19.136  0.2262  0.3390  0.1990
 1143POPC   GL213708  20.067   7.520  19.057 -0.4762  0.2606 -0.0568
 1143POPC   C1A13709  19.831   7.073  18.901 -0.0631  0.2642 -0.3387
 1143POPC   D2A13710  20.014   6.954  18.475 -0.2491 -0.4180 -0.0190
 1143POPC   C3A13711  20.056   7.115  18.003  0.2092 -0.3450  0.1167
 1143POPC   C4A13712  19.939   7.202  17.529 -0.0393  0.3274  0.2263
 1143POPC   C1B13713  19.971   7.420  18.587  0.0281 -0.1012 -0.0127
 1143POPC   C2B13714  20.287   7.477  18.290 -0.1459 -0.0199  0.2050
 1143POPC   C3B13715  20.783   7.640  18.229 -0.2939  0.3159  0.3088
 1143POPC   C4B13716  21.015   7.653  17.846  0.0551  0.2229  0.0365
 1144POPC   NC313717  22.314  23.483  18.770 -0.1314 -0.1219  0.0970
 1144POPC   PO413718  21.984  23.245  18.793  0.2727 -0.0590 -0.1098
 1144POPC   GL113719  22.144  23.046  18.540 -0.2500  0.1700 -0.2618
 1144POPC   GL213720  22.240  22.744  18.523 -0.0380  0.0045  0.0394
 1144POPC   C1A13721  22.095  22.897  18.077  0.1337  0.0237  0.0923
 1144POPC   D2A13722  22.098  23.094  17.598 -0.0213  0.0659 -0.0058
 1144POPC   C3A13723  22.395  23.414  17.782 -0.3457  0.0303 -0.2039
 1144POPC   C4A13724  22.464  23.537  18.219 -0.1698 -0.0999 -0.0090
 1144POPC   C1B13725  22.528  22.561  18.273 -0.0530 -0.0208  0.2099
 1144POPC   C2B13726  22.701  22.546  17.838 -0.0396  0.0683 -0.0769
 1144POPC   C3B13727  22.799  22.630  17.356  0.1419  0.0702  0.2981
 1144POPC   C4B13728  22.572  22.710  16.971  0.1370  0.0027 -0.1966
 1145POPC   NC313729  15.275  11.846  18.945 -0.1171 -0.1377 -0.3276
 1145POPC   PO413730  15.508  12.140  18.966 -0.0779  0.0405  0.2457
 1145POPC   GL113731  15.594  12.212  18.623 -0.9163  0.0453  0.1303
 1145POPC   GL213732  15.869  12.333  18.681 -0.1989 -0.0537 -0.1057
 1145POPC   C1A13733  15.367  12.200  18.227  0.1158  0.3691  0.2407
 1145POPC   D2A13734  15.180  12.120  17.828 -0.1084 -0.0510 -0.3653
 1145POPC   C3A13735  14.890  12.019  17.473  0.0759 -0.1273 -0.1148
 1145POPC   C4A13736  15.019  11.928  17.058  0.1004 -0.1068 -0.1458
 1145POPC   C1B13737  16.181  12.451  18.378 -0.1128 -0.0577  0.0917
 1145POPC   C2B13738  16.144  12.449  17.938 -0.1491  0.0642  0.0557
 1145POPC   C3B13739  15.994  12.776  17.642 -0.2158  0.2161  0.1813
 1145POPC   C4B13740  15.611  12.772  17.290  0.3307  0.1092 -0.1321
 1146POPC   NC313741   1.526  10.451  19.254 -0.3846 -0.0343  0.4803
 1146POPC   PO413742   1.256  10.161  19.332 -0.1154 -0.2042  0.1774
 1146POPC   GL113743   1.125  10.295  19.045  0.1469  0.2227 -0.3833
 1146POPC   GL213744   0.854  10.217  18.984  0.0346 -0.0280  0.1451
 1146POPC   C1A13745   1.279  10.331  18.639 -0.2547 -0.2103 -0.0575
 1146POPC   D2A13746   1.412  10.441  18.221 -0.0781 -0.1082  0.0879
 1146POPC   C3A13747   1.419  10.044  18.021  0.0043  0.1078 -0.3271
 1146POPC   C4A13748   1.399  10.036  17.606  0.0844  0.0180  0.4703
 1146POPC   C1B13749   0.924   9.967  18.659 -0.1713 -0.1116  0.0983
 1146POPC   C2B13750   0.828   9.767  18.235  0.0332  0.0064  0.1106
 1146POPC   C3B13751   0.817   9.853  17.824 -0.3470 -0.0564 -0.1400
 1146POPC   C4B13752   0.660  10.163  17.528 -0.2009 -0.4337 -0.1297
 1147POPC   NC313753  15.767   7.977  19.677 -0.2560 -0.0136  0.1231
 1147POPC   PO413754  15.914   7.948  19.318 -0.1162 -0.1469 -0.1111
 1147POPC   GL113755  15.986   7.994  18.916 -0.3821  0.1629 -0.3324
 1147POPC   GL213756  15.914   8.217  18.833 -0.0179 -0.1596 -0.0279
 1147POPC   C1A13757  16.243   7.682  18.779 -0.0639 -0.0880 -0.4817
 1147POPC   D2A13758  16.249   7.479  18.372  0.1033 -0.1326  0.0630
 1147POPC   C3A13759  16.295   7.699  17.978  0.0079 -0.0143  0.0732
 1147POPC   C4A13760  16.302   7.946  17.602  0.0567 -0.0302  0.0399
 1147POPC   C1B13761  16.065   8.003  18.423  0.0860  0.1101 -0.1776
 1147POPC   C2B13762  16.101   8.179  18.001  0.0510  0.1431 -0.1232
 1147POPC   C3B13763  16.124   8.455  17.649 -0.2856  0.0313  0.0610
 1147POPC   C4B13764  16.139   8.678  17.210  0.0319 -0.2386 -0.0885
 1148POPC   NC313765  27.865  25.357  19.805  0.1240 -0.2569  0.1572
 1148POPC   PO413766  27.670  25.296  19.419 -0.0250 -0.0868 -0.1015
 1148POPC   GL113767  27.492  25.249  18.963 -0.0527  0.3753  0.0075
 1148POPC   GL213768  27.265  25.238  18.971  0.4334 -0.1689 -0.0851
 1148POPC   C1A13769  27.562  25.566  18.632  0.0318 -0.0125  0.2164
 1148POPC   D2A13770  27.515  25.805  18.257  0.0299 -0.1247 -0.1060
 1148POPC   C3A13771  27.495  25.520  17.884  0.0550 -0.1901  0.1909
 1148POPC   C4A13772  27.389  25.612  17.444  0.2773 -0.2747 -0.1951
 1148POPC   C1B13773  27.051  25.436  18.644  0.0421  0.3023 -0.1048
 1148POPC   C2B13774  27.023  25.705  18.308  0.1929 -0.1617 -0.0388
 1148POPC   C3B13775  27.080  25.828  17.832  0.0191 -0.2585 -0.0373
 1148POPC   C4B13776  27.004  26.104  17.469  0.0197 -0.1157 -0.2013
 1149POPC   NC313777  20.902  19.969  20.508 -0.0365 -0.0060 -0.0955
 1149POPC   PO413778  20.659  19.692  20.662  0.0709  0.0133 -0.1504
 1149POPC   GL113779  21.042  19.463  20.653 -0.1311 -0.0846 -0.1303
 1149POPC   GL213780  20.919  19.185  20.729  0.2669 -0.2815 -0.1519
 1149POPC   C1A13781  21.492  19.497  20.541  0.3121 -0.0372  0.1654
 1149POPC   D2A13782  21.846  19.244  20.306 -0.1547 -0.2387 -0.0881
 1149POPC   C3A13783  22.117  18.929  20.492  0.0864 -0.0180 -0.1331
 1149POPC   C4A13784  22.112  18.602  20.762 -0.0306  0.1972  0.3267
 1149POPC   C1B13785  20.869  19.204  20.252 -0.0372 -0.1998 -0.1019
 1149POPC   C2B13786  20.954  19.364  19.844  0.2646  0.0847 -0.0050
 1149POPC   C3B13787  21.248  19.462  19.505 -0.1314 -0.1832  0.0397
 1149POPC   C4B13788  21.611  19.406  19.189  0.1320 -0.1217  0.1625
 1150POPC   NC313789  12.313   6.449  19.247 -0.1779 -0.4063  0.1591
 1150POPC   PO413790  12.660   6.668  19.334 -0.1561 -0.0901 -0.1880
 1150POPC   GL113791  12.620   6.715  18.960 -0.1108  0.0071  0.0077
 1150POPC   GL213792  12.406   6.870  18.951  0.0867 -0.1288  0.0464
 1150POPC   C1A13793  12.708   6.992  18.560  0.1636 -0.0262 -0.3107
 1150POPC   D2A13794  12.629   7.264  18.229 -0.3503  0.2267 -0.0593
 1150POPC   C3A13795  12.502   6.998  17.827 -0.1153 -0.0389  0.0098
 1150POPC   C4A13796  12.681   6.726  17.495 -0.3041  0.0518 -0.0930
 1150POPC   C1B13797  12.083   6.993  18.630 -0.2032  0.0031  0.0062
 1150POPC   C2B13798  12.073   7.094  18.133 -0.1347 -0.0358 -0.0506
 1150POPC   C3B13799  11.932   6.873  17.726  0.0612 -0.1408 -0.0464
 1150POPC   C4B13800  11.966   6.588  17.396 -0.0399  0.0005 -0.2046
 1151POPC   NC313801  19.970  30.604  19.180  0.0654  0.0580 -0.0317
 1151POPC   PO413802  19.753  30.915  19.176  0.3995 -0.2482  0.1192
 1151POPC   GL113803  20.006  30.903  18.873  0.0548 -0.0958 -0.0125
 1151POPC   GL213804  19.735  30.849  18.630 -0.3529 -0.0333 -0.1208
 1151POPC   C1A13805  20.129  30.502  18.696 -0.2017  0.0489  0.1897
 1151POPC   D2A13806  20.413  30.242  18.521 -0.2864 -0.1172  0.1142
 1151POPC   C3A13807  20.248  29.970  18.181  0.1459 -0.2193  0.0145
 1151POPC   C4A13808  19.929  29.805  17.906 -0.0732  0.4689  0.0261
 1151POPC   C1B13809  20.139  30.957  18.487 -0.0979 -0.5369 -0.1838
 1151POPC   C2B13810  20.325  30.850  18.000  0.0474  0.0780  0.3514
 1151POPC   C3B13811  20.014  30.569  17.721  0.2268  0.0817 -0.0361
 1151POPC   C4B13812  20.138  30.168  17.616  0.0379 -0.2110 -0.3401
 1152POPC   NC313813   2.609  15.011  19.146  0.1329 -0.3241  0.4011
 1152POPC   PO413814   2.295  15.240  19.258  0.3760 -0.1192  0.4249
 1152POPC   GL113815   2.207  15.144  18.807 -0.3426 -0.0869 -0.0550
 1152POPC   GL213816   2.319  14.978  18.708 -0.0708 -0.0144 -0.0035
 1152POPC   C1A13817   1.897  15.074  18.398 -0.0464 -0.3548 -0.0156
 1152POPC   D2A13818   1.733  14.951  18.033  0.0206 -0.0013 -0.3059
 1152POPC   C3A13819   1.534  14.995  17.650 -0.1763 -0.0837  0.0573
 1152POPC   C4A13820   1.248  15.118  17.308 -0.2351 -0.3882 -0.1384
 1152POPC   C1B13821   2.358  15.236  18.347  0.0526 -0.1602  0.1854
 1152POPC   C2B13822   2.211  15.060  17.879  0.0345  0.0198  0.0962
 1152POPC   C3B13823   2.023  14.847  17.551 -0.1094  0.2938  0.2187
 1152POPC   C4B13824   2.138  14.717  17.122 -0.1184  0.2953  0.4082
 1153POPC   NC313825  16.203   1.814  18.965 -0.1851  0.2631  0.1929
 1153POPC   PO413826  16.051   1.434  18.945  0.1462 -0.0380  0.0628
 1153POPC   GL113827  16.036   1.573  18.537 -0.2096 -0.0125 -0.1316
 1153POPC   GL213828  16.010   1.840  18.525  0.0663 -0.4768 -0.1223
 1153POPC   C1A13829  15.735   1.492  18.159  0.0038  0.1150 -0.1486
 1153POPC   D2A13830  15.671   1.177  17.792  0.2698 -0.0147  0.0416
 1153POPC   C3A13831  15.584   1.244  17.367 -0.2161 -0.0024 -0.1661
 1153POPC   C4A13832  15.719   1.100  16.937  0.3227 -0.2252 -0.0506
 1153POPC   C1B13833  16.258   1.697  18.118  0.2103  0.3617 -0.0524
 1153POPC   C2B13834  16.468   1.933  17.750 -0.1021 -0.1539 -0.0770
 1153POPC   C3B13835  16.612   1.634  17.431 -0.2824  0.0200 -0.0225
 1153POPC   C4B13836  16.705   1.510  17.034 -0.1800  0.0987 -0.2165
 1154POPC   NC313837   1.231   1.572  19.292  0.3058  0.1737  0.0868
 1154POPC   PO413838   1.484   1.354  19.452 -0.0259  0.1757 -0.0848
 1154POPC   GL113839   1.414   1.208  18.990  0.0392 -0.2131  0.0934
 1154POPC   GL213840   1.375   1.404  18.812  0.1218  0.4074 -0.1078
 1154POPC   C1A13841   0.984   1.053  18.743 -0.1688 -0.0553 -0.2268
 1154POPC   D2A13842   0.619   1.155  18.449  0.0556 -0.1947 -0.3531
 1154POPC   C3A13843   0.438   1.532  18.146  0.1385  0.0274  0.0079
 1154POPC   C4A13844   0.587   1.584  17.739  0.2538 -0.0402  0.1866
 1154POPC   C1B13845   1.391   1.505  18.364  0.3965  0.1387  0.1416
 1154POPC   C2B13846   1.291   1.462  17.903 -0.2016  0.0604  0.1318
 1154POPC   C3B13847   1.416   1.596  17.484 -0.1691  0.0771 -0.0824
 1154POPC   C4B13848   1.695   1.752  17.100  0.1058  0.0175 -0.3451
 1155POPC   NC313849  21.586  29.500  19.891 -0.1099 -0.1480  0.4091
 1155POPC   PO413850  21.798  29.540  19.538  0.0711 -0.1534  0.3140
 1155POPC   GL113851  22.019  29.573  19.201 -0.0846 -0.3287 -0.2992
 1155POPC   GL213852  21.856  29.627  18.927 -0.7612  0.0243  0.0531
 1155POPC   C1A13853  22.303  29.730  18.829  0.1412  0.1787 -0.2189
 1155POPC   D2A13854  22.392  30.009  18.489 -0.0877  0.2229 -0.1606
 1155POPC   C3A13855  22.108  29.857  18.109 -0.0706  0.0121 -0.2972
 1155POPC   C4A13856  22.011  29.562  17.715  0.0731 -0.1822 -0.1124
 1155POPC   C1B13857  22.023  29.481  18.527  0.2897  0.2549  0.0238
 1155POPC   C2B13858  22.276  29.403  18.164 -0.2058 -0.1127  0.1291
 1155POPC   C3B13859  22.604  29.331  17.832  0.4764 -0.2448 -0.4524
 1155POPC   C4B13860  23.028  29.511  17.611  0.1335  0.0446  0.1207
 1156POPC   NC313861  17.535  29.229  19.686 -0.0431 -0.1569  0.0175
 1156POPC   PO413862  17.344  29.620  19.580  0.2117 -0.0312  0.0943
 1156POPC   GL113863  17.487  29.665  19.245 -0.0120 -0.1062 -0.1654
 1156POPC   GL213864  17.696  29.507  19.094 -0.1171 -0.1692  0.2238
 1156POPC   C1A13865  17.235  29.626  18.844 -0.2681  0.3988 -0.1147
 1156POPC   D2A13866  16.795  29.663  18.661  0.0399 -0.0030 -0.1582
 1156POPC   C3A13867  16.747  29.385  18.336  0.0683 -0.2695  0.1802
 1156POPC   C4A13868  16.748  29.247  17.886 -0.2058  0.1009 -0.4153
 1156POPC   C1B13869  17.491  29.215  18.804 -0.1722  0.1543 -0.1285
 1156POPC   C2B13870  17.614  29.154  18.385 -0.3257 -0.0028  0.0813
 1156POPC   C3B13871  17.394  29.179  17.913  0.0969  0.0067  0.1994
 1156POPC   C4B13872  17.104  29.029  17.597  0.0669  0.0181  0.1136
 1157POPC   NC313873  25.834  16.232  18.918  0.2764  0.0013  0.0755
 1157POPC   PO413874  26.060  16.043  19.190  0.2165  0.0011 -0.0436
 1157POPC   GL113875  26.089  15.715  19.005 -0.2725 -0.1597 -0.7034
 1157POPC   GL213876  26.354  15.665  18.902 -0.3644 -0.2094  0.1153
 1157POPC   C1A13877  26.002  15.464  18.619 -0.1455 -0.0609  0.1314
 1157POPC   D2A13878  25.933  15.472  18.167  0.2032 -0.2548 -0.0925
 1157POPC   C3A13879  25.895  15.318  17.756 -0.1824  0.1849 -0.0148
 1157POPC   C4A13880  26.002  15.504  17.326  0.1824  0.1832  0.2383
 1157POPC   C1B13881  26.638  15.552  18.464  0.0455 -0.2166 -0.0321
 1157POPC   C2B13882  26.444  15.396  18.112 -0.1175 -0.0609  0.0264
 1157POPC   C3B13883  26.333  15.185  17.716  0.1711 -0.0536 -0.0592
 1157POPC   C4B13884  26.263  15.083  17.309  0.2186  0.0353  0.2556
 1158POPC   NC313885  18.981  19.125  19.787 -0.1671  0.0369  0.2167
 1158POPC   PO413886  19.215  19.183  19.486 -0.0550 -0.2261  0.0966
 1158POPC   GL113887  19.107  19.224  19.147  0.2137 -0.3207 -0.3905
 1158POPC   GL213888  18.919  19.089  18.919 -0.2257  0.0761 -0.1614
 1158POPC   C1A13889  19.435  19.361  18.788 -0.1143 -0.0170 -0.0388
 1158POPC   D2A13890  19.856  19.256  18.615  0.1595 -0.0235 -0.2121
 1158POPC   C3A13891  19.978  19.113  18.182 -0.2924  0.0432 -0.0533
 1158POPC   C4A13892  20.156  19.049  17.776  0.2241 -0.0178  0.2279
 1158POPC   C1B13893  18.963  19.189  18.486 -0.2060  0.1401  0.1537
 1158POPC   C2B13894  19.138  19.267  18.036 -0.2362  0.0571  0.3366
 1158POPC   C3B13895  19.273  19.403  17.603  0.1214  0.1284  0.2477
 1158POPC   C4B13896  18.975  19.613  17.273 -0.1351  0.0219  0.2908
 1159POPC   NC313897   9.723   6.267  18.906 -0.0416  0.0710  0.1498
 1159POPC   PO413898   9.559   5.933  19.047 -0.0714 -0.3031 -0.3677
 1159POPC   GL113899   9.615   5.989  18.613  0.3013 -0.0997  0.0863
 1159POPC   GL213900   9.645   5.748  18.561  0.2316  0.0234 -0.0682
 1159POPC   C1A13901   9.764   6.362  18.321  0.0471  0.2495  0.0308
 1159POPC   D2A13902   9.947   6.492  17.895  0.0698 -0.0526 -0.0172
 1159POPC   C3A13903   9.877   6.320  17.456  0.2034  0.2064 -0.1978
 1159POPC   C4A13904   9.502   6.055  17.347 -0.1187  0.0840 -0.0135
 1159POPC   C1B13905   9.352   5.784  18.171 -0.1430  0.0358 -0.0054
 1159POPC   C2B13906   9.149   5.973  17.746  0.1077  0.1202 -0.0533
 1159POPC   C3B13907   8.981   6.262  17.430 -0.1390  0.1793  0.1368
 1159POPC   C4B13908   8.873   6.511  16.988  0.1955 -0.3073 -0.0966
 1160POPC   NC313909   5.980  23.958  19.403  0.3397  0.0086  0.3062
 1160POPC   PO413910   5.605  23.859  19.530 -0.0635 -0.1157  0.0516
 1160POPC   GL113911   5.552  23.543  19.256  0.1753  0.2071 -0.1904
 1160POPC   GL213912   5.788  23.452  19.095  0.2085  0.0336 -0.3450
 1160POPC   C1A13913   5.352  23.522  18.843 -0.3058  0.1278  0.0007
 1160POPC   D2A13914   5.140  23.502  18.416  0.1853  0.1834 -0.2520
 1160POPC   C3A13915   5.285  23.636  18.037  0.0487  0.3431  0.0116
 1160POPC   C4A13916   5.572  23.486  17.667 -0.1029 -0.2101 -0.2554
 1160POPC   C1B13917   5.762  23.290  18.699 -0.0714 -0.0867  0.5403
 1160POPC   C2B13918   5.635  23.309  18.219 -0.1471  0.0047 -0.0099
 1160POPC   C3B13919   5.902  23.092  17.902 -0.0786 -0.3226  0.0037
 1160POPC   C4B13920   6.109  23.385  17.559 -0.2872  0.3303 -0.0084
 1161POPC   NC313921  24.074  21.742  19.010  0.1123  0.1822 -0.1684
 1161POPC   PO413922  24.175  21.372  18.944  0.1104 -0.0750 -0.1896
 1161POPC   GL113923  24.235  21.357  18.562 -0.0250 -0.0650  0.2425
 1161POPC   GL213924  24.327  21.653  18.568 -0.1357  0.1371  0.0362
 1161POPC   C1A13925  24.184  21.491  18.140  0.0884  0.1860 -0.0558
 1161POPC   D2A13926  24.340  21.624  17.766  0.0169  0.1451  0.3433
 1161POPC   C3A13927  24.255  21.250  17.579  0.3174  0.0511 -0.2063
 1161POPC   C4A13928  23.952  21.018  17.283  0.0919 -0.0741 -0.4510
 1161POPC   C1B13929  24.296  21.978  18.245 -0.4017  0.1819 -0.2531
 1161POPC   C2B13930  24.304  22.315  17.911  0.0356 -0.1587 -0.5462
 1161POPC   C3B13931  24.255  22.683  17.676 -0.3195 -0.1448  0.0320
 1161POPC   C4B13932  24.151  22.875  17.263  0.5249  0.0143  0.2331
 1162POPC   NC313933  25.476  16.919  19.383 -0.0588 -0.0664 -0.1956
 1162POPC   PO413934  25.420  17.080  19.076  0.2436  0.1861  0.1264
 1162POPC   GL113935  25.074  17.013  18.839 -0.2258  0.1266  0.0173
 1162POPC   GL213936  25.047  16.643  18.737  0.0702 -0.0635  0.0255
 1162POPC   C1A13937  25.116  16.962  18.374  0.0767 -0.0339  0.0539
 1162POPC   D2A13938  24.884  16.946  18.039  0.0575  0.0214  0.4409
 1162POPC   C3A13939  24.748  17.320  17.824  0.0771 -0.1444  0.4141
 1162POPC   C4A13940  24.370  17.568  17.986  0.0302  0.2314 -0.2170
 1162POPC   C1B13941  25.299  16.478  18.390  0.0924 -0.0029  0.0750
 1162POPC   C2B13942  25.214  16.479  17.938 -0.1729 -0.1088  0.0212
 1162POPC   C3B13943  25.000  16.649  17.561  0.1607  0.2438  0.0691
 1162POPC   C4B13944  24.648  16.814  17.403 -0.0078  0.0720 -0.1758
 1163POPC   NC313945  30.861  10.488  19.357  0.1477  0.2158 -0.1700
 1163POPC   PO413946  31.078  10.673  19.635 -0.0800  0.1555 -0.1075
 1163POPC   GL113947  31.397  10.736  19.242 -0.2764 -0.2734  0.3887
 1163POPC   GL213948  31.661  10.585  19.195 -0.1756  0.1203  0.0041
 1163POPC   C1A13949  31.636  10.937  18.862 -0.1734  0.2218  0.0680
 1163POPC   D2A13950  31.629  11.194  18.505 -0.2891  0.1124  0.0114
 1163POPC   C3A13951  31.510  11.017  18.055  0.0757 -0.2192 -0.0926
 1163POPC   C4A13952  31.771  11.000  17.655  0.1386  0.1298 -0.1589
 1163POPC   C1B13953  32.019  10.587  18.884  0.2104 -0.0775 -0.0068
 1163POPC   C2B13954  32.285  10.454  18.574 -0.2064 -0.1446 -0.0684
 1163POPC   C3B13955  32.642  10.276  18.289 -0.2748 -0.0821  0.4005
 1163POPC   C4B13956  32.772  10.323  17.828  0.1609 -0.2923  0.3333
 1164POPC   NC313957   3.006   3.231  19.332 -0.1532  0.2287 -0.0358
 1164POPC   PO413958   3.281   2.964  19.356 -0.2177 -0.2630  0.1272
 1164POPC   GL113959   3.308   3.001  18.899  0.0290  0.1582 -0.2037
 1164POPC   GL213960   3.246   2.753  18.898  0.0596 -0.2192 -0.3109
 1164POPC   C1A13961   3.530   3.004  18.521  0.0038  0.0271  0.2737
 1164POPC   D2A13962   3.447   2.955  18.054 -0.0014 -0.1733 -0.0931
 1164POPC   C3A13963   3.849   3.069  17.789  0.0773 -0.4281 -0.0712
 1164POPC   C4A13964   4.179   2.990  17.443  0.0306 -0.0181 -0.1224
 1164POPC   C1B13965   3.019   2.857  18.532 -0.0418 -0.1844 -0.0996
 1164POPC   C2B13966   2.912   2.830  18.089  0.1679 -0.0192 -0.1193
 1164POPC   C3B13967   3.009   2.865  17.609  0.0400  0.1466 -0.1671
 1164POPC   C4B13968   3.436   2.979  17.437 -0.2796 -0.0185  0.1527
 1165POPC   NC313969  25.878  20.057  19.212  0.1126 -0.0481  0.3107
 1165POPC   PO413970  25.655  19.779  19.069  0.2495 -0.2561 -0.0102
 1165POPC   GL113971  25.678  19.833  18.611  0.0464  0.1492 -0.1833
 1165POPC   GL213972  25.818  19.605  18.575  0.2406 -0.1519 -0.1094
 1165POPC   C1A13973  25.590  19.626  18.153 -0.1885  0.2551  0.0563
 1165POPC   D2A13974  25.609  19.592  17.695 -0.3027  0.1365  0.1632
 1165POPC   C3A13975  25.299  19.849  17.502  0.1884  0.1844  0.2359
 1165POPC   C4A13976  24.923  19.966  17.731  0.1174  0.0256 -0.2779
 1165POPC   C1B13977  26.129  19.520  18.277  0.0403  0.6002  0.1115
 1165POPC   C2B13978  26.199  19.535  17.851 -0.1941  0.2929  0.0241
 1165POPC   C3B13979  25.990  19.450  17.437 -0.0903  0.1913  0.1483
 1165POPC   C4B13980  25.654  19.711  17.157 -0.4974  0.0662 -0.1133
 1166POPC   NC313981  30.583  18.827  19.966 -0.1835  0.4422 -0.2883
 1166POPC   PO413982  30.738  18.845  19.619  0.2338 -0.1042  0.0262
 1166POPC   GL113983  30.722  18.396  19.366 -0.0705  0.5608 -0.1641
 1166POPC   GL213984  30.555  18.555  19.159  0.1124  0.1929  0.2366
 1166POPC   C1A13985  30.993  18.069  19.167  0.0555 -0.0470 -0.0107
 1166POPC   D2A13986  31.363  17.863  19.016  0.2326 -0.2967  0.0481
 1166POPC   C3A13987  31.175  17.598  18.632 -0.2752  0.1660  0.1781
 1166POPC   C4A13988  30.792  17.302  18.659  0.2421  0.0419 -0.0376
 1166POPC   C1B13989  30.867  18.486  18.796  0.1996 -0.0604  0.0444
 1166POPC   C2B13990  30.783  18.395  18.340  0.3254  0.0808  0.1217
 1166POPC   C3B13991  30.487  18.316  17.945 -0.1056 -0.2005  0.1597
 1166POPC   C4B13992  30.083  18.476  17.773  0.0850  0.2358 -0.2832
 1167POPC   NC313993  13.163   6.759  19.367  0.1200  0.2770  0.0100
 1167POPC   PO413994  13.200   6.414  19.250 -0.0966 -0.1735  0.1406
 1167POPC   GL113995  13.077   6.562  18.883  0.3849 -0.2651 -0.3005
 1167POPC   GL213996  13.246   6.293  18.803  0.1093 -0.0181  0.0186
 1167POPC   C1A13997  12.924   6.482  18.458  0.1617 -0.0408 -0.3031
 1167POPC   D2A13998  12.972   6.517  18.028 -0.2527 -0.0105  0.1400
 1167POPC   C3A13999  12.826   6.290  17.731 -0.0240  0.2330 -0.0558
 1167POPC   C4A14000  13.002   6.259  17.255  0.0995 -0.0017  0.0143
 1167POPC   C1B14001  13.339   6.059  18.397  0.1700  0.3297 -0.3416
 1167POPC   C2B14002  13.379   6.098  17.926 -0.0388  0.2039 -0.2377
 1167POPC   C3B14003  13.593   6.112  17.496  0.0608  0.0778  0.1108
 1167POPC   C4B14004  13.768   6.046  17.063  0.2690  0.1499  0.0560
 1168POPC   NC314005   8.703  13.106  19.129 -0.1954  0.0520  0.5209
 1168POPC   PO414006   8.568  12.781  18.948  0.2822  0.1334  0.1090
 1168POPC   GL114007   8.540  13.036  18.662 -0.1023 -0.2276  0.4549
 1168POPC   GL214008   8.822  13.112  18.643 -0.0621  0.1870  0.3327
 1168POPC   C1A14009   8.307  13.332  18.354  0.3055  0.2830 -0.0295
 1168POPC   D2A14010   8.323  13.390  17.894 -0.2303 -0.0935 -0.0001
 1168POPC   C3A14011   8.699  13.268  17.741 -0.1980 -0.0052  0.3442
 1168POPC   C4A14012   8.925  13.145  17.356  0.3838 -0.0357  0.1640
 1168POPC   C1B14013   8.727  13.111  18.216 -0.0947 -0.0778  0.3366
 1168POPC   C2B14014   8.689  12.763  17.898  0.1733  0.2189 -0.5615
 1168POPC   C3B14015   8.665  12.363  17.696  0.0323 -0.0256 -0.0342
 1168POPC   C4B14016   8.789  11.977  17.722 -0.2217  0.1691 -0.1064
 1169POPC   NC314017  22.756  27.806  18.936 -0.2738 -0.0432  0.1197
 1169POPC   PO414018  22.684  28.081  19.205 -0.2240 -0.1125 -0.0028
 1169POPC   GL114019  22.605  28.298  18.909  0.2592 -0.1475  0.0285
 1169POPC   GL214020  22.638  28.583  18.882 -0.0867 -0.1406  0.1926
 1169POPC   C1A14021  22.632  28.267  18.443 -0.0709 -0.0111 -0.0717
 1169POPC   D2A14022  22.567  28.291  17.966 -0.1510  0.0200  0.3180
 1169POPC   C3A14023  22.311  28.441  17.634 -0.1659 -0.1986 -0.1656
 1169POPC   C4A14024  21.891  28.652  17.659  0.1055 -0.1580  0.3150
 1169POPC   C1B14025  22.804  28.740  18.438  0.3150 -0.2571  0.0499
 1169POPC   C2B14026  22.933  29.053  18.127 -0.1069  0.0026 -0.2226
 1169POPC   C3B14027  22.967  29.006  17.596  0.2056 -0.0405  0.1475
 1169POPC   C4B14028  22.817  29.244  17.260 -0.1542 -0.1578  0.0368
 1170POPC   NC314029   5.333  13.301  20.072  0.2203  0.1518 -0.0693
 1170POPC   PO414030   5.499  13.413  19.733  0.1774  0.1037  0.2425
 1170POPC   GL114031   5.533  13.460  19.305 -0.3755  0.2550  0.0594
 1170POPC   GL214032   5.517  13.236  19.057  0.0760  0.1113 -0.0461
 1170POPC   C1A14033   5.605  13.745  18.871  0.0077  0.1009  0.1955
 1170POPC   D2A14034   5.822  13.936  18.530  0.2004  0.0228 -0.1932
 1170POPC   C3A14035   6.176  13.796  18.206 -0.1592 -0.3848 -0.2368
 1170POPC   C4A14036   6.563  14.028  18.048 -0.0625 -0.2900 -0.1020
 1170POPC   C1B14037   5.181  13.522  18.967 -0.0418 -0.0238 -0.0798
 1170POPC   C2B14038   4.818  13.667  18.748 -0.1716 -0.1595 -0.2275
 1170POPC   C3B14039   4.697  13.710  18.323  0.2706 -0.2002 -0.0566
 1170POPC   C4B14040   4.543  13.937  17.993 -0.1790 -0.4229 -0.2210
 1171POPC   NC314041  27.918  19.474  19.567  0.0414  0.0746  0.2341
 1171POPC   PO414042  28.054  19.786  19.407  0.2281 -0.0988  0.0261
 1171POPC   GL114043  28.082  20.022  19.070 -0.1854  0.3810  0.0249
 1171POPC   GL214044  27.842  20.107  19.028 -0.0013  0.0749  0.2383
 1171POPC   C1A14045  28.106  19.832  18.675 -0.0565 -0.0013 -0.0173
 1171POPC   D2A14046  28.312  19.654  18.386  0.5641 -0.0802 -0.1442
 1171POPC   C3A14047  28.360  19.807  17.965  0.1127  0.1100 -0.1229
 1171POPC   C4A14048  28.542  19.670  17.595  0.1554  0.1972  0.0190
 1171POPC   C1B14049  27.629  20.160  18.631 -0.2259 -0.1287  0.1129
 1171POPC   C2B14050  27.609  20.112  18.195 -0.0396 -0.0345 -0.2499
 1171POPC   C3B14051  27.500  19.978  17.777  0.1111 -0.0062 -0.3826
 1171POPC   C4B14052  27.441  19.833  17.369  0.2605  0.0563 -0.0429
 1172POPC   NC314053   5.273  27.109  19.352 -0.0346  0.1939  0.2328
 1172POPC   PO414054   5.520  26.943  19.609 -0.0113  0.0105  0.0349
 1172POPC   GL114055   5.652  26.721  19.342  0.0422  0.1370 -0.0019
 1172POPC   GL214056   5.903  26.604  19.242 -0.1194  0.1701 -0.1696
 1172POPC   C1A14057   5.503  26.615  18.904 -0.1787  0.0736  0.0629
 1172POPC   D2A14058   5.537  26.388  18.492 -0.1823  0.0040 -0.0764
 1172POPC   C3A14059   5.543  26.375  18.119 -0.3335 -0.1535 -0.1973
 1172POPC   C4A14060   5.753  26.777  18.003  0.0311  0.0594  0.3295
 1172POPC   C1B14061   6.067  26.421  18.880  0.0389  0.0937  0.2286
 1172POPC   C2B14062   6.077  26.455  18.405  0.1895  0.2604 -0.3399
 1172POPC   C3B14063   6.013  26.316  17.976  0.0450 -0.0239  0.1853
 1172POPC   C4B14064   6.131  26.244  17.524  0.0809  0.1705  0.1178
 1173POPC   NC314065  21.152   7.686  19.239 -0.0799  0.1812 -0.1242
 1173POPC   PO414066  21.151   8.036  19.395 -0.0052 -0.2779  0.0454
 1173POPC   GL114067  21.221   8.165  19.096  0.2605  0.1708 -0.0398
 1173POPC   GL214068  21.416   8.062  18.977  0.0818  0.0321  0.2275
 1173POPC   C1A14069  21.298   8.408  18.663 -0.1210  0.1796  0.0700
 1173POPC   D2A14070  21.027   8.590  18.326  0.3467  0.0344 -0.1218
 1173POPC   C3A14071  20.718   8.871  18.141  0.1086  0.0823 -0.0586
 1173POPC   C4A14072  20.613   9.293  18.111  0.0114  0.1427  0.1946
 1173POPC   C1B14073  21.158   7.738  18.746  0.0209  0.3725  0.0691
 1173POPC   C2B14074  21.283   7.554  18.294  0.2164 -0.3865  0.1961
 1173POPC   C3B14075  21.486   7.616  17.871 -0.1278 -0.2428 -0.1030
 1173POPC   C4B14076  21.289   7.623  17.439 -0.1183 -0.2279 -0.5193
 1174POPC   NC314077   4.794  24.475  19.504 -0.0088  0.1458 -0.4124
 1174POPC   PO414078   5.114  24.277  19.393  0.1514  0.0600 -0.1973
 1174POPC   GL114079   4.918  24.401  19.045  0.0535  0.2519 -0.0374
 1174POPC   GL214080   5.139  24.547  18.902  0.1208  0.0059  0.0274
 1174POPC   C1A14081   4.642  24.506  18.676  0.1767 -0.1092  0.0552
 1174POPC   D2A14082   4.235  24.367  18.402 -0.1032  0.0916 -0.0802
 1174POPC   C3A14083   4.323  24.430  17.947 -0.0283 -0.2169  0.5534
 1174POPC   C4A14084   4.671  24.616  17.638  0.1430 -0.1699  0.0773
 1174POPC   C1B14085   5.036  24.617  18.445 -0.0678  0.2005 -0.1369
 1174POPC   C2B14086   5.052  24.516  17.968 -0.0519  0.0218  0.2121
 1174POPC   C3B14087   5.124  24.466  17.530  0.1808 -0.0287 -0.0683
 1174POPC   C4B14088   4.941  24.228  17.166 -0.0927  0.1965  0.2068
 1175POPC   NC314089  12.082   5.573  19.289  0.1863  0.2485 -0.0533
 1175POPC   PO414090  11.802   5.816  19.185 -0.0928  0.0388  0.1739
 1175POPC   GL114091  11.950   5.693  18.819 -0.0634  0.1476 -0.0198
 1175POPC   GL214092  11.808   5.571  18.620 -0.1861  0.0765 -0.2046
 1175POPC   C1A14093  12.255   5.661  18.436 -0.1443 -0.0500  0.1135
 1175POPC   D2A14094  12.485   5.937  18.127 -0.0185  0.0727 -0.0788
 1175POPC   C3A14095  12.459   5.890  17.679 -0.2922  0.1179  0.0564
 1175POPC   C4A14096  12.420   5.794  17.222  0.1214  0.3333 -0.1256
 1175POPC   C1B14097  11.845   5.699  18.168 -0.2710 -0.0342  0.0392
 1175POPC   C2B14098  12.110   5.574  17.798 -0.0595  0.1553  0.0044
 1175POPC   C3B14099  12.318   5.347  17.516 -0.0323 -0.1954  0.3256
 1175POPC   C4B14100  12.630   5.024  17.297 -0.0274 -0.3065  0.0779
 1176POPC   NC314101  29.699   6.567  18.963  0.3092 -0.1131  0.3141
 1176POPC   PO414102  29.998   6.422  19.148 -0.0016  0.1347  0.3142
 1176POPC   GL114103  30.105   6.776  18.817  0.3274  0.2603 -0.3511
 1176POPC   GL214104  29.919   6.960  18.661 -0.2210 -0.2160  0.3559
 1176POPC   C1A14105  30.319   6.760  18.361 -0.0505 -0.1320  0.0313
 1176POPC   D2A14106  30.287   6.681  17.922  0.1215  0.1221  0.1536
 1176POPC   C3A14107  30.307   6.512  17.530 -0.0387  0.1905 -0.1105
 1176POPC   C4A14108  29.983   6.737  17.288  0.1790 -0.1789 -0.0498
 1176POPC   C1B14109  29.806   6.887  18.208 -0.0024  0.0922  0.0962
 1176POPC   C2B14110  29.777   6.913  17.761  0.1589 -0.0898 -0.0064
 1176POPC   C3B14111  29.636   7.131  17.347 -0.0051  0.1590 -0.1033
 1176POPC   C4B14112  29.474   7.466  17.102 -0.0279 -0.0325 -0.1443
 1177POPC   NC314113  31.428  11.085  19.622 -0.1372  0.0659  0.1561
 1177POPC   PO414114  31.316  11.465  19.533 -0.0330 -0.0361 -0.3233
 1177POPC   GL114115  31.465  11.316  19.236 -0.1662  0.0559  0.2966
 1177POPC   GL214116  31.538  11.657  19.095  0.2288 -0.0498 -0.1343
 1177POPC   C1A14117  31.319  11.398  18.796 -0.0725  0.1956  0.0901
 1177POPC   D2A14118  30.968  11.622  18.566  0.4342 -0.2117  0.3587
 1177POPC   C3A14119  30.535  11.803  18.413 -0.0318 -0.1156 -0.1863
 1177POPC   C4A14120  30.508  11.908  17.987 -0.0411 -0.0020  0.0095
 1177POPC   C1B14121  31.785  11.616  18.746 -0.1473  0.1683  0.1430
 1177POPC   C2B14122  32.140  11.497  18.468  0.0562  0.1140  0.1315
 1177POPC   C3B14123  32.274  11.649  18.050  0.4003 -0.0334 -0.2402
 1177POPC   C4B14124  32.560  11.956  18.000 -0.0628  0.1090 -0.4433
 1178POPC   NC314125  12.324  16.659  19.087 -0.2132  0.2229 -0.0214
 1178POPC   PO414126  11.964  16.583  18.982  0.1966 -0.0638 -0.1296
 1178POPC   GL114127  11.635  16.863  18.894 -0.1842  0.1114 -0.1093
 1178POPC   GL214128  11.375  16.927  18.914 -0.1817  0.1515  0.3896
 1178POPC   C1A14129  11.413  16.697  18.499 -0.0589 -0.0380  0.0573
 1178POPC   D2A14130  11.484  16.343  18.163 -0.0177 -0.0028 -0.2707
 1178POPC   C3A14131  11.222  16.355  17.768  0.3464  0.2478  0.2512
 1178POPC   C4A14132  10.910  16.416  17.433 -0.1551  0.0304 -0.3134
 1178POPC   C1B14133  11.074  17.052  18.649 -0.1838  0.1919  0.1084
 1178POPC   C2B14134  10.801  17.005  18.324 -0.3108 -0.1688 -0.1051
 1178POPC   C3B14135  10.529  16.873  18.041  0.0152 -0.1312 -0.0496
 1178POPC   C4B14136  10.548  16.788  17.596 -0.0900 -0.1775 -0.1565
 1179POPC   NC314137  21.651  12.216  19.280  0.1483  0.0985 -0.2455
 1179POPC   PO414138  21.841  12.485  19.477  0.1301  0.0870 -0.1085
 1179POPC   GL114139  22.041  12.420  19.144  0.0675 -0.0198  0.0146
 1179POPC   GL214140  22.201  12.638  19.034  0.1270 -0.4968  0.0521
 1179POPC   C1A14141  21.871  12.174  18.763  0.1328  0.0081  0.2889
 1179POPC   D2A14142  21.708  12.348  18.355 -0.1660 -0.0621  0.0123
 1179POPC   C3A14143  21.594  12.261  17.871 -0.0453 -0.1596  0.1584
 1179POPC   C4A14144  21.503  12.221  17.458 -0.0067  0.0350  0.1315
 1179POPC   C1B14145  22.064  12.640  18.590 -0.1404 -0.0962 -0.0604
 1179POPC   C2B14146  22.173  12.508  18.177 -0.2004  0.0503 -0.0132
 1179POPC   C3B14147  22.224  12.623  17.712 -0.0095  0.0729  0.1907
 1179POPC   C4B14148  22.130  12.462  17.335 -0.0760  0.2568 -0.0734
 1180POPC   NC314149  26.865  12.244  19.340 -0.1607 -0.1759  0.0116
 1180POPC   PO414150  26.880  11.915  19.119  0.0119 -0.0001 -0.1409
 1180POPC   GL114151  26.790  11.959  18.722  0.0049 -0.4630  0.3427
 1180POPC   GL214152  26.599  11.875  18.475 -0.0720  0.1262  0.2207
 1180POPC   C1A14153  26.990  12.249  18.359 -0.0466  0.0193 -0.1239
 1180POPC   D2A14154  27.255  12.470  18.046 -0.0256  0.3377 -0.0697
 1180POPC   C3A14155  27.463  12.474  17.641  0.3189 -0.1299  0.1918
 1180POPC   C4A14156  27.754  12.342  17.262  0.2041 -0.2651 -0.1042
 1180POPC   C1B14157  26.733  11.940  18.063  0.0566  0.1271 -0.0994
 1180POPC   C2B14158  26.518  12.008  17.629 -0.1021 -0.0962  0.0629
 1180POPC   C3B14159  26.238  11.863  17.184  0.0653 -0.0167  0.3031
 1180POPC   C4B14160  26.193  11.443  16.962  0.4965 -0.0987  0.0866
 1181POPC   NC314161  17.419  19.879  19.462  0.1045 -0.1811  0.0745
 1181POPC   PO414162  17.102  20.059  19.347  0.0513  0.1089 -0.3140
 1181POPC   GL114163  16.924  20.322  19.142 -0.0634 -0.0302  0.1187
 1181POPC   GL214164  17.094  20.430  18.964 -0.0276 -0.2222  0.3014
 1181POPC   C1A14165  16.509  20.411  18.960  0.3746  0.1567  0.1070
 1181POPC   D2A14166  16.177  20.527  18.686  0.0316 -0.1205  0.1633
 1181POPC   C3A14167  15.881  20.604  18.271  0.0574  0.1926  0.4557
 1181POPC   C4A14168  15.714  20.692  17.820 -0.2532  0.0634 -0.0893
 1181POPC   C1B14169  17.000  20.166  18.581  0.0279 -0.1453 -0.0770
 1181POPC   C2B14170  16.823  19.936  18.191 -0.0279 -0.2439 -0.0425
 1181POPC   C3B14171  16.406  19.878  17.941 -0.0996 -0.0522 -0.1080
 1181POPC   C4B14172  16.034  20.142  17.972 -0.2590 -0.2965  0.1034
 1182POPC   NC314173   8.337   5.942  19.631 -0.0481 -0.2645  0.2144
 1182POPC   PO414174   8.094   5.754  19.475 -0.3121  0.1874 -0.0022
 1182POPC   GL114175   7.959   5.742  19.061 -0.1213  0.2306  0.1674
 1182POPC   GL214176   8.113   5.946  18.840 -0.1087 -0.0587  0.0070
 1182POPC   C1A14177   7.551   5.607  18.807 -0.0837 -0.1415  0.1968
 1182POPC   D2A14178   7.130   5.693  18.580 -0.0021  0.2555  0.4421
 1182POPC   C3A14179   6.907   5.420  18.301  0.0258 -0.0129  0.2610
 1182POPC   C4A14180   6.792   5.253  17.856  0.1300 -0.1085 -0.2780
 1182POPC   C1B14181   7.913   5.636  18.475  0.0814  0.2429 -0.1236
 1182POPC   C2B14182   7.882   5.363  18.041 -0.1325 -0.0986 -0.0045
 1182POPC   C3B14183   7.697   5.269  17.622  0.0673 -0.2104 -0.1811
 1182POPC   C4B14184   7.493   5.032  17.256  0.0255 -0.2775 -0.1990
 1183POPC   NC314185   1.048  20.456  19.305 -0.1249 -0.3118 -0.5387
 1183POPC   PO414186   0.956  20.819  19.180 -0.1429  0.2053 -0.0455
 1183POPC   GL114187   0.905  20.657  18.847 -0.1009  0.3630  0.0271
 1183POPC   GL214188   0.838  20.352  18.868  0.1150 -0.0227 -0.0801
 1183POPC   C1A14189   1.091  20.638  18.435  0.1144  0.2858  0.2890
 1183POPC   D2A14190   1.242  20.411  18.105  0.0872  0.1424 -0.1418
 1183POPC   C3A14191   1.594  20.329  17.760  0.1003  0.4497 -0.2393
 1183POPC   C4A14192   1.840  20.201  17.374 -0.0171  0.0252 -0.0562
 1183POPC   C1B14193   0.765  20.243  18.439 -0.1101  0.1568 -0.2557
 1183POPC   C2B14194   0.730  20.274  17.952  0.3091 -0.2986  0.0042
 1183POPC   C3B14195   0.885  19.961  17.612  0.0247 -0.1370 -0.0868
 1183POPC   C4B14196   0.859  19.557  17.279 -0.1296  0.0896  0.2121
 1184POPC   NC314197   6.310  17.991  19.106  0.0603 -0.1592  0.2328
 1184POPC   PO414198   6.662  17.797  19.229 -0.2507  0.1305  0.1783
 1184POPC   GL114199   6.600  17.690  18.887  0.2598  0.3558 -0.2558
 1184POPC   GL214200   6.605  17.413  18.785  0.1037  0.0238  0.0040
 1184POPC   C1A14201   6.735  17.810  18.481  0.0280 -0.0876  0.3434
 1184POPC   D2A14202   6.739  18.014  18.050 -0.2993  0.1695  0.2456
 1184POPC   C3A14203   7.021  17.875  17.747 -0.0852  0.0753  0.1758
 1184POPC   C4A14204   7.273  17.926  17.380 -0.0517  0.0157  0.2113
 1184POPC   C1B14205   6.599  17.053  18.546  0.0395  0.0029  0.2223
 1184POPC   C2B14206   6.393  16.917  18.152  0.2505 -0.1048  0.0768
 1184POPC   C3B14207   6.640  16.755  17.787 -0.2066  0.0576 -0.0168
 1184POPC   C4B14208   6.849  16.339  17.651  0.3073 -0.0676  0.2433
 1185POPC   NC314209  21.579  25.047  18.789 -0.1965  0.5328  0.0672
 1185POPC   PO414210  21.663  25.409  18.952  0.0488 -0.0788 -0.0315
 1185POPC   GL114211  21.272  25.559  18.674  0.0971 -0.1643  0.1759
 1185POPC   GL214212  21.109  25.755  18.793  0.3954 -0.1826 -0.0420
 1185POPC   C1A14213  21.414  25.609  18.258 -0.0645  0.1711 -0.2679
 1185POPC   D2A14214  21.492  25.712  17.813  0.3743 -0.2153 -0.0206
 1185POPC   C3A14215  21.026  25.649  17.711  0.0246  0.0004  0.0289
 1185POPC   C4A14216  20.620  25.640  17.478 -0.1775  0.1630 -0.1782
 1185POPC   C1B14217  20.875  25.675  18.384  0.1362 -0.1128 -0.2637
 1185POPC   C2B14218  20.611  25.516  18.055 -0.0214 -0.2244 -0.2040
 1185POPC   C3B14219  20.581  25.161  17.767 -0.0232 -0.0417 -0.1729
 1185POPC   C4B14220  20.766  24.813  17.525  0.3677  0.2369  0.2186
 1186POPC   NC314221  22.726   9.160  19.142  0.0705 -0.1298  0.0036
 1186POPC   PO414222  22.558   8.860  19.289  0.0933 -0.1435  0.1073
 1186POPC   GL114223  22.336   8.866  19.012  0.2239 -0.1541  0.2524
 1186POPC   GL214224  22.292   9.166  18.892  0.1573 -0.2241 -0.1764
 1186POPC   C1A14225  22.531   8.863  18.587 -0.0211 -0.1979  0.2048
 1186POPC   D2A14226  22.680   9.205  18.323  0.1125  0.0144 -0.2249
 1186POPC   C3A14227  23.136   9.372  18.355 -0.1204 -0.2091  0.1453
 1186POPC   C4A14228  23.450   9.698  18.210  0.2740 -0.2665 -0.4003
 1186POPC   C1B14229  22.162   9.382  18.469  0.3027  0.1673  0.2949
 1186POPC   C2B14230  21.950   9.429  18.096  0.2275  0.3449 -0.2633
 1186POPC   C3B14231  21.691   9.728  17.828 -0.1832 -0.1032 -0.1140
 1186POPC   C4B14232  21.256   9.783  17.658 -0.6084  0.1736 -0.3311
 1187POPC   NC314233  13.484  15.982  19.201 -0.0980 -0.2132 -0.2979
 1187POPC   PO414234  13.509  16.393  19.262  0.1384 -0.1447 -0.0428
 1187POPC   GL114235  13.698  16.280  18.942 -0.1735  0.0585 -0.0548
 1187POPC   GL214236  13.545  16.322  18.734 -0.2680  0.1274  0.1095
 1187POPC   C1A14237  13.878  15.967  18.656 -0.0049 -0.2647 -0.1223
 1187POPC   D2A14238  13.975  15.915  18.209  0.0085 -0.1660 -0.2361
 1187POPC   C3A14239  14.395  15.951  18.059  0.2688  0.1458  0.0928
 1187POPC   C4A14240  14.650  16.060  17.682  0.1572  0.2808 -0.2715
 1187POPC   C1B14241  13.358  15.904  18.583  0.0010  0.2162 -0.0830
 1187POPC   C2B14242  13.254  15.753  18.146 -0.0141  0.2225 -0.0197
 1187POPC   C3B14243  13.454  15.572  17.757 -0.0222  0.0240  0.2409
 1187POPC   C4B14244  13.906  15.647  17.675  0.1396  0.2314  0.0611
 1188POPC   NC314245  26.541  20.541  19.380 -0.0550 -0.3041  0.0761
 1188POPC   PO414246  26.160  20.443  19.453 -0.0763  0.1831 -0.1469
 1188POPC   GL114247  26.136  20.575  19.075 -0.4141  0.5782 -0.2098
 1188POPC   GL214248  26.338  20.358  18.949  0.0774 -0.0643 -0.0172
 1188POPC   C1A14249  26.018  20.582  18.631 -0.0226  0.3166  0.2082
 1188POPC   D2A14250  25.946  20.550  18.140 -0.1080  0.1361 -0.0081
 1188POPC   C3A14251  26.121  20.466  17.774 -0.0261 -0.1660  0.0622
 1188POPC   C4A14252  26.437  20.261  17.561  0.2078  0.3276  0.0150
 1188POPC   C1B14253  26.469  20.477  18.510 -0.1409  0.3048 -0.3692
 1188POPC   C2B14254  26.436  20.618  18.129 -0.2427  0.1857 -0.1578
 1188POPC   C3B14255  26.153  21.005  18.036 -0.2404  0.0538 -0.0352
 1188POPC   C4B14256  25.784  21.171  17.844 -0.2603 -0.0180  0.0679
 1189POPC   NC314257  22.761  31.330  19.420 -0.0799  0.1894  0.4161
 1189POPC   PO414258  22.379  31.188  19.403 -0.1735  0.3931  0.1471
 1189POPC   GL114259  22.451  30.964  19.167  0.3339 -0.0962  0.0322
 1189POPC   GL214260  22.664  30.743  19.220  0.0994  0.1300 -0.2495
 1189POPC   C1A14261  22.227  31.034  18.772  0.3270 -0.2674  0.0621
 1189POPC   D2A14262  22.040  31.177  18.363  0.0173  0.0124 -0.1978
 1189POPC   C3A14263  21.881  30.840  18.006  0.1961  0.1710  0.3089
 1189POPC   C4A14264  21.591  30.579  17.727 -0.1105 -0.1660 -0.2265
 1189POPC   C1B14265  22.594  30.734  18.740 -0.3329  0.1657  0.0727
 1189POPC   C2B14266  22.397  30.799  18.321 -0.0508 -0.0043  0.0295
 1189POPC   C3B14267  22.388  30.833  17.876  0.2981 -0.0815 -0.0594
 1189POPC   C4B14268  22.468  31.071  17.504 -0.1022 -0.2803  0.1813
 1190POPC   NC314269  15.010  22.895  18.908  0.0144 -0.0750 -0.1856
 1190POPC   PO414270  14.703  22.924  19.127  0.0211 -0.2620 -0.0026
 1190POPC   GL114271  14.429  23.031  18.916  0.0227 -0.2033  0.2114
 1190POPC   GL214272  14.463  22.781  18.694 -0.1653  0.2546  0.1208
 1190POPC   C1A14273  14.149  23.231  18.575  0.1501  0.0369  0.1959
 1190POPC   D2A14274  13.848  23.573  18.447 -0.1116 -0.0648 -0.0549
 1190POPC   C3A14275  14.016  23.991  18.273 -0.2803 -0.1173 -0.2713
 1190POPC   C4A14276  14.029  24.199  17.821  0.0263  0.2221 -0.3318
 1190POPC   C1B14277  14.309  22.901  18.251 -0.1072 -0.0414 -0.1014
 1190POPC   C2B14278  14.155  23.268  18.057 -0.2949 -0.1157  0.0094
 1190POPC   C3B14279  13.798  23.542  17.899 -0.0267 -0.1697 -0.0440
 1190POPC   C4B14280  13.634  23.837  17.536 -0.1518  0.4477 -0.1512
 1191POPC   NC314281  10.762  28.322  19.512  0.0306  0.0099  0.0390
 1191POPC   PO414282  10.557  28.613  19.361 -0.4369 -0.0955 -0.2174
 1191POPC   GL114283  10.391  28.380  19.050 -0.1925 -0.1125  0.0541
 1191POPC   GL214284  10.468  28.106  19.083  0.4053 -0.1927 -0.1276
 1191POPC   C1A14285  10.530  28.508  18.619 -0.2730 -0.0055  0.1230
 1191POPC   D2A14286  10.690  28.615  18.169  0.1461  0.1840  0.1209
 1191POPC   C3A14287  10.631  28.354  17.809  0.0116 -0.2509  0.2147
 1191POPC   C4A14288  10.961  28.153  17.476 -0.0337 -0.0196  0.3235
 1191POPC   C1B14289  10.342  28.003  18.654  0.2038 -0.2974  0.3390
 1191POPC   C2B14290  10.138  27.781  18.241 -0.2592 -0.0559 -0.0952
 1191POPC   C3B14291   9.879  27.525  17.945 -0.0707  0.0129 -0.1467
 1191POPC   C4B14292   9.620  27.165  17.788 -0.0232  0.1785 -0.0538
 1192POPC   NC314293   6.639  10.974  18.858  0.1703 -0.1361  0.0246
 1192POPC   PO414294   6.816  11.268  18.735  0.1796  0.2182  0.0243
 1192POPC   GL114295   6.945  11.364  18.349  0.1195 -0.1517  0.1982
 1192POPC   GL214296   6.782  11.588  18.233 -0.0658  0.2162 -0.0861
 1192POPC   C1A14297   7.007  11.267  17.829  0.0218 -0.3229 -0.1770
 1192POPC   D2A14298   6.901  11.115  17.338 -0.1292 -0.2476  0.4671
 1192POPC   C3A14299   6.909  11.261  16.928 -0.0192  0.0587 -0.2364
 1192POPC   C4A14300   7.055  11.332  16.487 -0.2838  0.0036 -0.2114
 1192POPC   C1B14301   6.710  11.637  17.780 -0.1111  0.1592  0.0343
 1192POPC   C2B14302   6.431  11.369  17.449 -0.1135 -0.0715 -0.0229
 1192POPC   C3B14303   6.384  11.190  17.007  0.1272  0.2322  0.1706
 1192POPC   C4B14304   6.164  10.814  16.815 -0.0855 -0.1399  0.2249
 1193POPC   NC314305   6.838  18.577  19.064 -0.0571 -0.1185 -0.1293
 1193POPC   PO414306   7.200  18.755  19.027 -0.1787  0.0567  0.1032
 1193POPC   GL114307   7.236  18.942  18.762  0.0973 -0.0123  0.1790
 1193POPC   GL214308   6.957  18.934  18.658  0.0173 -0.1322 -0.3476
 1193POPC   C1A14309   7.224  19.367  18.552  0.0621  0.1956 -0.3244
 1193POPC   D2A14310   6.945  19.695  18.314 -0.0591  0.2455 -0.3970
 1193POPC   C3A14311   7.129  20.134  18.192 -0.2819  0.4610 -0.0119
 1193POPC   C4A14312   7.148  20.357  17.776 -0.2773 -0.0086 -0.5506
 1193POPC   C1B14313   6.869  19.106  18.221  0.3009  0.0401  0.0621
 1193POPC   C2B14314   6.627  19.303  17.871 -0.2347  0.4169 -0.1664
 1193POPC   C3B14315   6.568  19.197  17.397 -0.3392  0.0370  0.1995
 1193POPC   C4B14316   6.552  18.959  17.040  0.0685 -0.2251  0.1694
 1194POPC   NC314317  22.624  25.733  19.610 -0.0900 -0.0467  0.1776
 1194POPC   PO414318  22.914  25.689  19.322  0.3062 -0.1716  0.1864
 1194POPC   GL114319  22.872  25.640  18.931  0.1125 -0.1535  0.1226
 1194POPC   GL214320  22.807  25.887  18.771  0.0017  0.0535 -0.1086
 1194POPC   C1A14321  22.596  25.503  18.608  0.3768 -0.0648 -0.1483
 1194POPC   D2A14322  22.411  25.503  18.199 -0.1419 -0.1520 -0.0895
 1194POPC   C3A14323  22.723  25.224  17.979 -0.1882 -0.1062  0.1064
 1194POPC   C4A14324  22.957  25.057  17.645 -0.2702  0.1904  0.1515
 1194POPC   C1B14325  22.468  25.992  18.470  0.0729  0.2130  0.0580
 1194POPC   C2B14326  22.436  26.231  18.029 -0.5324  0.0185  0.0390
 1194POPC   C3B14327  22.406  26.281  17.568  0.0646 -0.0153  0.2091
 1194POPC   C4B14328  22.506  26.292  17.118  0.1404  0.4017  0.1411
 1195POPC   NC314329  11.238  18.380  19.153 -0.1251  0.0588 -0.0984
 1195POPC   PO414330  11.181  18.014  19.098  0.2017  0.1369  0.2634
 1195POPC   GL114331  11.111  18.084  18.704  0.0850 -0.0110 -0.0412
 1195POPC   GL214332  11.294  17.897  18.528 -0.1020 -0.2607 -0.3844
 1195POPC   C1A14333  10.878  17.962  18.285  0.0999 -0.0756  0.1396
 1195POPC   D2A14334  10.684  17.770  17.855  0.0686 -0.3251 -0.2143
 1195POPC   C3A14335  10.574  18.151  17.658  0.1374 -0.2844 -0.0398
 1195POPC   C4A14336  10.540  18.364  17.271 -0.2758 -0.4588  0.0747
 1195POPC   C1B14337  11.406  17.690  18.113 -0.0415  0.0586  0.1876
 1195POPC   C2B14338  11.661  17.707  17.689 -0.0632  0.0075  0.1167
 1195POPC   C3B14339  11.851  17.824  17.294 -0.1938 -0.0462 -0.1080
 1195POPC   C4B14340  12.016  17.879  16.887 -0.0335  0.3234 -0.4397
 1196POPC   NC314341  30.623  22.714  18.778 -0.1666  0.0139  0.1031
 1196POPC   PO414342  30.503  23.061  18.909 -0.0422  0.1100 -0.2510
 1196POPC   GL114343  30.494  23.151  18.516 -0.4031  0.0670  0.2077
 1196POPC   GL214344  30.598  23.408  18.557 -0.0761 -0.0941  0.1207
 1196POPC   C1A14345  30.748  22.918  18.203  0.1879  0.0063 -0.0542
 1196POPC   D2A14346  30.785  22.533  17.933  0.0160 -0.0948  0.1860
 1196POPC   C3A14347  30.480  22.217  17.804 -0.0507 -0.0967  0.0505
 1196POPC   C4A14348  30.430  21.883  17.539  0.0258 -0.2397 -0.0075
 1196POPC   C1B14349  30.513  23.659  18.155  0.1814 -0.0500  0.0119
 1196POPC   C2B14350  30.214  23.710  17.882 -0.1661 -0.0289  0.0650
 1196POPC   C3B14351  30.169  23.632  17.474  0.0287 -0.2131 -0.0031
 1196POPC   C4B14352  30.152  23.343  17.144  0.2978 -0.0196  0.0143
 1197POPC   NC314353  29.171  18.000  19.384 -0.0144 -0.2091 -0.0989
 1197POPC   PO414354  29.404  17.998  19.075 -0.2492  0.3489 -0.0494
 1197POPC   GL114355  29.213  18.244  18.764  0.0503 -0.0379 -0.4094
 1197POPC   GL214356  28.912  18.339  18.690  0.1243 -0.1869 -0.0559
 1197POPC   C1A14357  29.308  18.414  18.367 -0.0423  0.0633  0.1969
 1197POPC   D2A14358  29.227  18.570  17.911  0.3251 -0.2379 -0.2839
 1197POPC   C3A14359  29.421  18.536  17.492  0.0745  0.1780  0.3043
 1197POPC   C4A14360  29.433  18.460  17.024 -0.1586  0.1345 -0.1206
 1197POPC   C1B14361  29.001  18.009  18.383 -0.0345 -0.1699 -0.2902
 1197POPC   C2B14362  28.990  18.067  17.903 -0.0703  0.1112 -0.1726
 1197POPC   C3B14363  28.807  17.758  17.611  0.0573  0.0551 -0.3317
 1197POPC   C4B14364  28.412  17.669  17.547 -0.1177  0.1873  0.0572
 1198POPC   NC314365  14.405   2.082  19.832  0.4384 -0.2448  0.1365
 1198POPC   PO414366  14.308   1.959  19.449 -0.0359 -0.0043  0.0061
 1198POPC   GL114367  14.353   1.899  19.056 -0.0892 -0.3707 -0.2192
 1198POPC   GL214368  14.625   2.075  18.962 -0.2272 -0.3181  0.2407
 1198POPC   C1A14369  14.192   2.086  18.675  0.0254 -0.3470  0.1868
 1198POPC   D2A14370  14.245   1.970  18.212 -0.0833 -0.2272 -0.0612
 1198POPC   C3A14371  14.191   1.607  17.908 -0.1273 -0.1742 -0.2282
 1198POPC   C4A14372  14.138   1.615  17.478 -0.2959 -0.0056  0.0091
 1198POPC   C1B14373  14.666   2.174  18.513 -0.0070 -0.1697  0.2913
 1198POPC   C2B14374  14.721   2.072  18.050  0.0345 -0.2486 -0.0614
 1198POPC   C3B14375  14.795   2.303  17.666 -0.1480 -0.0478 -0.1969
 1198POPC   C4B14376  14.627   2.485  17.334 -0.0093 -0.0071  0.2399
 1199POPC   NC314377   4.255  28.002  19.373  0.1434 -0.1458  0.0410
 1199POPC   PO414378   4.043  27.670  19.335  0.1894  0.1379 -0.2395
 1199POPC   GL114379   3.949  27.418  18.986  0.2333 -0.0948 -0.1601
 1199POPC   GL214380   3.695  27.433  18.844  0.0258  0.1473  0.0677
 1199POPC   C1A14381   3.993  27.067  18.650  0.2395  0.0313  0.2192
 1199POPC   D2A14382   4.290  26.776  18.510 -0.0308  0.0436  0.0045
 1199POPC   C3A14383   4.297  26.877  18.063 -0.1497  0.2725 -0.0663
 1199POPC   C4A14384   4.108  26.867  17.709  0.2575 -0.1050  0.2552
 1199POPC   C1B14385   3.678  27.506  18.391  0.0088  0.2496  0.3190
 1199POPC   C2B14386   3.625  27.544  17.938 -0.0073  0.0771  0.1358
 1199POPC   C3B14387   3.271  27.383  17.643  0.0887  0.0204 -0.0678
 1199POPC   C4B14388   3.149  27.034  17.441  0.3030  0.1413 -0.1879
 1200POPC   NC314389  26.314  18.735  19.409 -0.0446 -0.0908  0.1088
 1200POPC   PO414390  26.643  18.472  19.452  0.3208 -0.1362 -0.0080
 1200POPC   GL114391  26.585  18.651  19.062 -0.0946  0.2388 -0.1829
 1200POPC   GL214392  26.430  18.400  18.925 -0.1156  0.0201  0.1017
 1200POPC   C1A14393  26.453  18.760  18.620  0.1041  0.0293 -0.0441
 1200POPC   D2A14394  26.194  18.724  18.248  0.3434  0.1921 -0.1520
 1200POPC   C3A14395  26.154  18.341  17.986  0.0278 -0.1328 -0.0674
 1200POPC   C4A14396  26.017  17.953  17.776  0.1461 -0.0004  0.0507
 1200POPC   C1B14397  26.483  18.320  18.404  0.0170  0.0948  0.1091
 1200POPC   C2B14398  26.623  18.358  17.946 -0.1976 -0.1810  0.1111
 1200POPC   C3B14399  26.400  18.196  17.540 -0.1554  0.2422  0.1810
 1200POPC   C4B14400  26.445  17.958  17.168  0.2602 -0.1232  0.2964
 1201POPC   NC314401   8.942  27.233  19.618  0.0660  0.1428  0.1694
 1201POPC   PO414402   8.569  27.197  19.490 -0.2533  0.2699 -0.1197
 1201POPC   GL114403   8.706  27.218  19.103  0.1188 -0.0526  0.0297
 1201POPC   GL214404   9.008  27.247  19.035  0.2874  0.1282 -0.0589
 1201POPC   C1A14405   8.493  27.247  18.711 -0.2511  0.0724 -0.2739
 1201POPC   D2A14406   8.474  27.339  18.253 -0.2736 -0.1251 -0.2313
 1201POPC   C3A14407   8.407  27.258  17.807  0.2556 -0.0629  0.2554
 1201POPC   C4A14408   8.331  27.375  17.375 -0.0363  0.2033 -0.1639
 1201POPC   C1B14409   9.022  27.303  18.595  0.3356  0.1551 -0.0722
 1201POPC   C2B14410   8.939  27.048  18.187  0.1158 -0.1770  0.0419
 1201POPC   C3B14411   8.697  26.805  17.881 -0.0207  0.2142  0.0311
 1201POPC   C4B14412   8.432  26.844  17.471 -0.2298 -0.3006 -0.1764
 1202POPC   NC314413  13.151  22.273  19.097  0.1413  0.3230  0.1372
 1202POPC   PO414414  13.510  22.121  19.160 -0.2829 -0.0021 -0.2944
 1202POPC   GL114415  13.320  21.932  18.843  0.3338 -0.2649 -0.1526
 1202POPC   GL214416  13.044  21.805  18.924  0.3960  0.0162  0.0100
 1202POPC   C1A14417  13.175  22.043  18.386 -0.2088  0.1957 -0.1373
 1202POPC   D2A14418  12.924  22.169  17.962 -0.1564 -0.2067  0.1617
 1202POPC   C3A14419  12.595  21.908  17.738 -0.0398  0.0376 -0.1405
 1202POPC   C4A14420  12.294  22.055  17.365  0.0720 -0.3410  0.0170
 1202POPC   C1B14421  12.927  21.653  18.526 -0.4028 -0.0945 -0.1869
 1202POPC   C2B14422  12.886  21.672  18.062  0.1646  0.0721  0.3766
 1202POPC   C3B14423  12.810  21.468  17.657  0.2241 -0.1765 -0.0964
 1202POPC   C4B14424  12.645  21.510  17.199 -0.1513  0.2563  0.0149
 1203POPC   NC314425   2.086  15.709  18.630  0.1318 -0.1899  0.0943
 1203POPC   PO414426   2.016  16.068  18.764  0.0331  0.3067  0.1096
 1203POPC   GL114427   1.971  16.257  18.510 -0.1050  0.0547  0.2332
 1203POPC   GL214428   2.244  16.448  18.524 -0.0896  0.0277 -0.2948
 1203POPC   C1A14429   2.052  16.211  18.008 -0.1237  0.0565  0.0150
 1203POPC   D2A14430   2.277  16.439  17.679  0.2868  0.0795 -0.4214
 1203POPC   C3A14431   2.080  16.496  17.243 -0.0208 -0.0078 -0.1205
 1203POPC   C4A14432   2.334  16.589  16.811 -0.0032  0.1002  0.0446
 1203POPC   C1B14433   2.546  16.553  18.207 -0.0049  0.2551  0.2818
 1203POPC   C2B14434   2.812  16.393  17.855  0.1027 -0.0123 -0.1984
 1203POPC   C3B14435   2.810  16.354  17.376 -0.0084 -0.3453  0.0627
 1203POPC   C4B14436   3.024  16.139  17.027  0.0741  0.1058  0.2627
 1204POPC   NC314437  27.500  23.255  19.448  0.1450  0.1143 -0.4180
 1204POPC   PO414438  27.637  22.863  19.374  0.4479 -0.2554 -0.0280
 1204POPC   GL114439  27.476  22.888  18.989  0.0518 -0.2943 -0.2475
 1204POPC   GL214440  27.431  23.142  18.866 -0.0383  0.4330  0.2057
 1204POPC   C1A14441  27.005  22.734  18.863  0.0466  0.0478 -0.1115
 1204POPC   D2A14442  26.724  22.506  18.575 -0.0930  0.1327  0.2106
 1204POPC   C3A14443  26.795  22.718  18.204  0.1560 -0.1865  0.0012
 1204POPC   C4A14444  26.538  22.876  17.811 -0.2589  0.4656  0.0211
 1204POPC   C1B14445  27.323  23.277  18.416  0.0736 -0.3966  0.0179
 1204POPC   C2B14446  27.291  23.583  18.095  0.0228  0.1135 -0.2561
 1204POPC   C3B14447  26.985  23.736  17.777  0.1405 -0.4471  0.3216
 1204POPC   C4B14448  26.928  24.158  17.694 -0.0430 -0.0359  0.1179
 1205POPC   NC314449  25.950  31.318  19.279  0.1758  0.1370 -0.2025
 1205POPC   PO414450  26.025  31.589  19.060 -0.1335 -0.2811  0.0274
 1205POPC   GL114451  25.837  31.372  18.800 -0.0569 -0.2088  0.1099
 1205POPC   GL214452  25.762  31.537  18.617  0.4063  0.2182 -0.1710
 1205POPC   C1A14453  26.003  31.167  18.413 -0.1558  0.0800  0.0328
 1205POPC   D2A14454  26.044  31.143  17.964  0.3144 -0.3376 -0.2221
 1205POPC   C3A14455  26.402  31.318  17.704  0.0034  0.0499  0.0731
 1205POPC   C4A14456  26.545  31.589  17.299 -0.1104  0.2021  0.3588
 1205POPC   C1B14457  25.514  31.349  18.283 -0.0314 -0.1278  0.4256
 1205POPC   C2B14458  25.444  30.971  18.037  0.1009 -0.0101  0.1527
 1205POPC   C3B14459  25.219  30.616  17.823 -0.2754 -0.2309  0.1607
 1205POPC   C4B14460  25.396  30.263  17.558 -0.1055 -0.0494 -0.0496
 1206POPC   NC314461  31.266  31.732  19.026 -0.1037 -0.0021  0.2374
 1206POPC   PO414462  31.296  31.370  19.179 -0.2141 -0.1782 -0.1090
 1206POPC   GL114463  31.328  31.174  18.829  0.1243 -0.1344 -0.4296
 1206POPC   GL214464  31.046  31.182  18.787 -0.0776  0.0041 -0.1173
 1206POPC   C1A14465  31.577  31.105  18.460 -0.1803 -0.1580  0.2581
 1206POPC   D2A14466  31.501  31.237  18.009 -0.0263  0.2437  0.1187
 1206POPC   C3A14467  31.469  30.887  17.650 -0.0188  0.2113 -0.0870
 1206POPC   C4A14468  31.081  30.815  17.312  0.0103  0.1203 -0.1756
 1206POPC   C1B14469  31.195  31.497  18.504  0.1164  0.3142 -0.2963
 1206POPC   C2B14470  31.266  31.701  18.136  0.3740 -0.0801 -0.0035
 1206POPC   C3B14471  31.437  32.055  17.833 -0.3468 -0.1162 -0.1361
 1206POPC   C4B14472  31.550  32.368  17.525  0.2707 -0.2730  0.0359
 1207POPC   NC314473  31.176   5.541  19.461 -0.3769 -0.1025 -0.0093
 1207POPC   PO414474  31.015   5.260  19.625  0.5323 -0.1069  0.1614
 1207POPC   GL114475  30.901   5.055  19.338 -0.1896  0.3609 -0.2967
 1207POPC   GL214476  30.775   5.297  19.194 -0.1928  0.1160 -0.2305
 1207POPC   C1A14477  30.588   4.765  19.146 -0.2958 -0.0983 -0.0739
 1207POPC   D2A14478  30.503   4.350  19.012  0.0472 -0.0137 -0.0865
 1207POPC   C3A14479  30.379   3.960  18.783 -0.2650  0.2368 -0.0301
 1207POPC   C4A14480  30.623   3.661  18.545 -0.0848 -0.0216 -0.1138
 1207POPC   C1B14481  30.868   5.171  18.807 -0.0313  0.0497 -0.0123
 1207POPC   C2B14482  30.849   5.097  18.360  0.2739  0.3206  0.1405
 1207POPC   C3B14483  31.033   5.130  17.976  0.1544 -0.4103 -0.0798
 1207POPC   C4B14484  31.310   5.066  17.630 -0.1847  0.0015  0.0563
 1208POPC   NC314485  18.028  21.527  19.862  0.1525  0.0800 -0.4173
 1208POPC   PO414486  18.067  21.376  19.512  0.2540  0.1196 -0.2047
 1208POPC   GL114487  18.237  21.209  19.272 -0.0233  0.0205  0.0461
 1208POPC   GL214488  18.026  21.149  19.042  0.0845  0.0754  0.0234
 1208POPC   C1A14489  18.459  20.939  18.943  0.0338  0.0756 -0.1459
 1208POPC   D2A14490  18.631  20.572  18.777  0.0682 -0.0274  0.0292
 1208POPC   C3A14491  18.721  20.521  18.323 -0.1114 -0.5344  0.0604
 1208POPC   C4A14492  19.005  20.300  17.992  0.2053 -0.5796  0.1856
 1208POPC   C1B14493  17.729  21.129  18.612 -0.0819 -0.1354  0.0438
 1208POPC   C2B14494  17.815  21.093  18.121  0.1930  0.2816 -0.1146
 1208POPC   C3B14495  17.923  20.980  17.662  0.0504  0.1033 -0.0475
 1208POPC   C4B14496  18.044  21.002  17.239  0.0237  0.2976  0.0864
 1209POPC   NC314497  17.360  12.743  19.960  0.1715 -0.1788 -0.1271
 1209POPC   PO414498  17.175  12.592  19.622  0.2663  0.0657  0.1477
 1209POPC   GL114499  17.297  12.534  19.243  0.2905  0.2838 -0.0737
 1209POPC   GL214500  17.500  12.350  19.178 -0.1331  0.3610 -0.1739
 1209POPC   C1A14501  17.207  12.522  18.770 -0.1850 -0.0395  0.2654
 1209POPC   D2A14502  16.999  12.373  18.377  0.2607 -0.0738 -0.1266
 1209POPC   C3A14503  16.822  12.542  17.979  0.1449  0.0505  0.1626
 1209POPC   C4A14504  16.676  12.744  17.623  0.2789  0.0027 -0.0640
 1209POPC   C1B14505  17.781  12.391  18.833 -0.0236 -0.2496 -0.0229
 1209POPC   C2B14506  17.900  12.673  18.460 -0.1636 -0.2207 -0.0140
 1209POPC   C3B14507  17.719  12.824  18.052 -0.0155 -0.0035 -0.0167
 1209POPC   C4B14508  17.685  12.656  17.650  0.0283  0.0729  0.1275
 1210POPC   NC314509  18.093  19.301  19.533 -0.0184  0.0548 -0.4925
 1210POPC   PO414510  18.342  19.096  19.327  0.0367  0.0097  0.1453
 1210POPC   GL114511  18.232  18.978  19.027  0.3176 -0.1594 -0.0701
 1210POPC   GL214512  18.092  19.255  18.946  0.2610 -0.1334 -0.0929
 1210POPC   C1A14513  18.431  19.069  18.616  0.1753  0.1999  0.1757
 1210POPC   D2A14514  18.201  18.860  18.295  0.1732 -0.3995  0.0322
 1210POPC   C3A14515  18.220  18.900  17.839  0.1311 -0.1790  0.0535
 1210POPC   C4A14516  18.311  19.020  17.403 -0.1385 -0.1040  0.1121
 1210POPC   C1B14517  17.862  19.083  18.566 -0.1023 -0.0338 -0.1260
 1210POPC   C2B14518  17.808  19.151  18.096 -0.3344 -0.0026 -0.3362
 1210POPC   C3B14519  17.727  19.084  17.627 -0.0802  0.0369 -0.2089
 1210POPC   C4B14520  17.436  19.229  17.324 -0.1963  0.0292  0.0726
 1211POPC   NC314521  22.916  14.013  19.586  0.1487  0.1258 -0.0340
 1211POPC   PO414522  22.523  14.060  19.574  0.0334  0.0208 -0.2346
 1211POPC   GL114523  22.617  14.382  19.208  0.3261  0.2625  0.1136
 1211POPC   GL214524  22.891  14.381  19.185  0.1846 -0.1044  0.0765
 1211POPC   C1A14525  22.619  14.159  18.774 -0.0840 -0.1755 -0.2667
 1211POPC   D2A14526  22.565  13.932  18.354  0.0792 -0.0052 -0.1151
 1211POPC   C3A14527  22.616  13.801  17.937 -0.2181 -0.1944 -0.1574
 1211POPC   C4A14528  22.549  13.410  17.809 -0.2438 -0.0165  0.0617
 1211POPC   C1B14529  22.835  14.616  18.797 -0.5460 -0.0245  0.1585
 1211POPC   C2B14530  22.834  14.814  18.405  0.3189 -0.0161  0.1568
 1211POPC   C3B14531  22.930  15.067  18.009  0.0605  0.1956  0.3890
 1211POPC   C4B14532  23.225  15.298  17.746 -0.2053  0.2334 -0.1740
 1212POPC   NC314533  26.216  24.632  19.274  0.4762  0.1083 -0.2953
 1212POPC   PO414534  26.595  24.542  19.349  0.2299  0.0791  0.0423
 1212POPC   GL114535  26.576  24.665  18.954  0.0155 -0.2092  0.1622
 1212POPC   GL214536  26.719  24.429  18.905  0.1454  0.2768  0.1525
 1212POPC   C1A14537  26.431  24.808  18.489 -0.0717 -0.0188 -0.2716
 1212POPC   D2A14538  26.337  25.059  18.103 -0.1489  0.0498  0.0342
 1212POPC   C3A14539  26.287  25.316  17.758  0.0495 -0.0176  0.0779
 1212POPC   C4A14540  26.240  25.457  17.360 -0.2023 -0.3013  0.1298
 1212POPC   C1B14541  26.491  24.357  18.500  0.0090  0.0426 -0.2038
 1212POPC   C2B14542  26.438  24.571  18.045  0.2491  0.1479 -0.2441
 1212POPC   C3B14543  26.174  24.808  17.712 -0.3102 -0.1433 -0.0092
 1212POPC   C4B14544  25.859  25.126  17.529  0.0055 -0.1448 -0.1554
 1213POPC   NC314545  31.420  27.593  19.980 -0.0729 -0.2459 -0.1471
 1213POPC   PO414546  31.406  27.302  19.708  0.0245  0.1011 -0.1551
 1213POPC   GL114547  31.284  27.438  19.398  0.1103 -0.2173  0.1650
 1213POPC   GL214548  31.584  27.467  19.275  0.2849 -0.1600 -0.1952
 1213POPC   C1A14549  31.056  27.321  18.986  0.0927 -0.0014  0.3095
 1213POPC   D2A14550  31.222  27.440  18.525 -0.1650 -0.0217 -0.2198
 1213POPC   C3A14551  31.283  27.672  18.135  0.0031  0.2540  0.3879
 1213POPC   C4A14552  31.253  27.946  17.739 -0.0364 -0.1055 -0.2139
 1213POPC   C1B14553  31.350  27.770  18.976  0.0784  0.2477  0.0546
 1213POPC   C2B14554  31.363  28.044  18.606  0.3815 -0.3017  0.3450
 1213POPC   C3B14555  31.293  28.253  18.176  0.0483  0.1931 -0.1183
 1213POPC   C4B14556  31.373  28.410  17.767 -0.0894  0.1246 -0.0569
 1214POPC   NC314557  12.878   2.217  19.190  0.0324 -0.2058 -0.0972
 1214POPC   PO414558  13.196   2.278  19.343 -0.0223  0.0543  0.0513
 1214POPC   GL114559  13.321   2.375  18.946 -0.3197  0.1575  0.2852
 1214POPC   GL214560  13.309   2.095  18.872 -0.2004 -0.0748  0.1244
 1214POPC   C1A14561  13.353   2.660  18.583  0.0194  0.1495  0.2819
 1214POPC   D2A14562  13.668   2.770  18.245 -0.0276 -0.0467 -0.2099
 1214POPC   C3A14563  13.544   2.833  17.814 -0.0028 -0.1503  0.1902
 1214POPC   C4A14564  13.536   2.957  17.340 -0.1062 -0.1277 -0.4249
 1214POPC   C1B14565  13.077   2.043  18.481 -0.0694  0.0264  0.0761
 1214POPC   C2B14566  12.936   2.036  17.999  0.1238  0.0597  0.0640
 1214POPC   C3B14567  12.660   2.247  17.704  0.1602  0.1179  0.1854
 1214POPC   C4B14568  12.349   2.585  17.471 -0.0330  0.2038  0.1738
 1215POPC   NC314569   4.079   4.233  19.319  0.2633 -0.1712  0.0959
 1215POPC   PO414570   3.842   4.357  19.655 -0.3364 -0.0272  0.2635
 1215POPC   GL114571   3.591   4.408  19.352  0.0352 -0.3084 -0.1567
 1215POPC   GL214572   3.713   4.623  19.183 -0.2281  0.2073  0.0810
 1215POPC   C1A14573   3.485   4.222  18.903  0.0885  0.0466  0.3490
 1215POPC   D2A14574   3.328   3.993  18.558  0.0813  0.0992  0.0584
 1215POPC   C3A14575   3.029   4.276  18.307 -0.1883  0.0990  0.1787
 1215POPC   C4A14576   2.842   4.311  17.906  0.0496 -0.0551 -0.0423
 1215POPC   C1B14577   3.656   4.890  18.826  0.0596  0.1224  0.0340
 1215POPC   C2B14578   3.412   5.015  18.455 -0.0810  0.3555 -0.1368
 1215POPC   C3B14579   3.319   5.146  18.045 -0.1143 -0.0719  0.2067
 1215POPC   C4B14580   3.335   5.425  17.704 -0.2599 -0.0379 -0.1813
 1216POPC   NC314581  20.976  17.484  20.199  0.0184 -0.5366  0.1964
 1216POPC   PO414582  21.285  17.420  19.999 -0.1470  0.3674 -0.1329
 1216POPC   GL114583  21.548  17.061  20.147 -0.5630  0.1126 -0.1035
 1216POPC   GL214584  21.677  17.084  19.898  0.0634  0.0700 -0.0515
 1216POPC   C1A14585  22.047  17.142  20.215 -0.1174 -0.0591  0.1824
 1216POPC   D2A14586  22.405  17.398  20.110 -0.2396 -0.3835  0.1371
 1216POPC   C3A14587  22.806  17.357  19.998  0.0704  0.1250 -0.0011
 1216POPC   C4A14588  23.198  17.247  19.833 -0.1238 -0.1103 -0.2178
 1216POPC   C1B14589  22.022  17.234  19.686 -0.0036 -0.0686  0.0443
 1216POPC   C2B14590  22.460  17.105  19.719  0.1031  0.3711  0.0727
 1216POPC   C3B14591  22.831  16.973  19.426  0.0863 -0.0283  0.0571
 1216POPC   C4B14592  23.317  16.887  19.443  0.0197  0.1234 -0.0491
 1217POPC   NC314593  11.913   7.671  19.980  0.2399  0.0029 -0.0374
 1217POPC   PO414594  11.791   7.818  19.653 -0.3068  0.0430  0.7061
 1217POPC   GL114595  11.627   8.029  19.353 -0.0434  0.5162 -0.3912
 1217POPC   GL214596  11.899   8.094  19.297 -0.1183  0.2203  0.1082
 1217POPC   C1A14597  11.293   8.180  19.534 -0.1076 -0.3303 -0.0719
 1217POPC   D2A14598  11.087   8.185  19.883 -0.1812  0.1081  0.0278
 1217POPC   C3A14599  10.974   8.571  20.133  0.0165  0.1934  0.0408
 1217POPC   C4A14600  10.638   8.890  20.061 -0.1226 -0.2348  0.2513
 1217POPC   C1B14601  11.564   8.180  18.995  0.0290 -0.2289  0.0441
 1217POPC   C2B14602  11.333   8.407  18.680  0.1942  0.1099  0.1849
 1217POPC   C3B14603  11.025   8.622  18.273 -0.1251  0.2325 -0.0632
 1217POPC   C4B14604  10.854   8.958  17.992  0.1162 -0.0889  0.0016
 1218POPC   NC314605   8.708  24.764  18.950  0.3410 -0.0845 -0.0523
 1218POPC   PO414606   8.991  24.490  18.903 -0.0726 -0.0104  0.6392
 1218POPC   GL114607   9.258  24.444  18.721 -0.0890 -0.0720 -0.1585
 1218POPC   GL214608   9.572  24.325  18.887 -0.0146 -0.1822  0.4571
 1218POPC   C1A14609   9.429  24.526  18.275  0.1018  0.1238 -0.0635
 1218POPC   D2A14610   9.295  24.236  17.938  0.4078 -0.0810 -0.0664
 1218POPC   C3A14611   9.651  24.072  17.635 -0.2205  0.1088 -0.1338
 1218POPC   C4A14612   9.946  24.141  17.242  0.1955  0.1714  0.0827
 1218POPC   C1B14613   9.815  24.339  18.541 -0.2400  0.1834  0.0080
 1218POPC   C2B14614   9.807  24.106  18.113  0.0485  0.1063  0.1053
 1218POPC   C3B14615  10.136  23.984  17.787 -0.4414 -0.2643  0.1287
 1218POPC   C4B14616  10.441  23.963  17.511  0.1132 -0.2690  0.1267
 1219POPC   NC314617  24.334  19.401  19.887 -0.1207  0.1149  0.0084
 1219POPC   PO414618  24.422  19.375  20.278  0.1449  0.1389 -0.1178
 1219POPC   GL114619  24.038  19.034  20.114 -0.0596  0.0381  0.0727
 1219POPC   GL214620  24.085  19.008  19.814  0.3449  0.0470 -0.2145
 1219POPC   C1A14621  23.657  18.896  20.328  0.1730 -0.3205 -0.0830
 1219POPC   D2A14622  23.340  18.855  20.710  0.1741 -0.1091 -0.0926
 1219POPC   C3A14623  22.905  18.863  20.737  0.0278 -0.0864  0.1628
 1219POPC   C4A14624  22.578  18.712  20.997 -0.0651  0.1007 -0.0720
 1219POPC   C1B14625  24.005  18.622  19.538  0.2248  0.1144 -0.0281
 1219POPC   C2B14626  23.561  18.603  19.379 -0.1340 -0.2395  0.2383
 1219POPC   C3B14627  23.376  18.329  19.084 -0.3834 -0.4516 -0.2067
 1219POPC   C4B14628  23.116  18.095  18.790  0.3519  0.1283 -0.2219
 1220POPC   NC314629  27.092  31.051  19.424  0.2811  0.0029 -0.0917
 1220POPC   PO414630  27.099  31.122  19.038 -0.0437 -0.0940 -0.0657
 1220POPC   GL114631  27.048  31.263  18.663 -0.1052  0.0325 -0.1371
 1220POPC   GL214632  26.839  31.024  18.616  0.0358 -0.1274  0.0438
 1220POPC   C1A14633  27.347  31.370  18.331 -0.0103 -0.3635 -0.1809
 1220POPC   D2A14634  27.419  31.424  17.833  0.1105 -0.2774  0.2610
 1220POPC   C3A14635  27.588  31.185  17.499 -0.2835  0.0819  0.0033
 1220POPC   C4A14636  27.618  31.219  17.006  0.1465  0.1547 -0.1074
 1220POPC   C1B14637  27.067  30.960  18.204  0.0646  0.2330 -0.2949
 1220POPC   C2B14638  27.177  31.007  17.740  0.0045 -0.0281  0.2374
 1220POPC   C3B14639  27.154  31.150  17.306  0.0439  0.2759  0.4499
 1220POPC   C4B14640  27.160  31.229  16.833 -0.1104  0.0473 -0.2776
 1221POPC   NC314641   8.065  29.618  19.431  0.1286 -0.0895  0.1429
 1221POPC   PO414642   7.730  29.426  19.424 -0.1835  0.1383  0.0158
 1221POPC   GL114643   7.747  29.570  18.987 -0.1073 -0.0676 -0.0674
 1221POPC   GL214644   7.913  29.364  18.875  0.2788 -0.2232  0.3007
 1221POPC   C1A14645   7.900  29.914  18.650  0.0196 -0.0363  0.0172
 1221POPC   D2A14646   7.808  30.239  18.385 -0.2265  0.3187  0.2164
 1221POPC   C3A14647   7.645  30.288  17.921  0.0388  0.0039 -0.2339
 1221POPC   C4A14648   7.641  30.320  17.465 -0.0996  0.0582 -0.2182
 1221POPC   C1B14649   7.820  29.045  18.530  0.0222  0.1421 -0.4217
 1221POPC   C2B14650   7.589  28.963  18.127  0.1026 -0.1404 -0.0695
 1221POPC   C3B14651   7.313  28.598  17.960  0.1051 -0.1263 -0.2771
 1221POPC   C4B14652   7.517  28.308  17.591  0.3419  0.1232 -0.0046
 1222POPC   NC314653  20.070   7.167  19.379 -0.2761 -0.1756 -0.0279
 1222POPC   PO414654  20.457   7.241  19.300  0.0779 -0.1667 -0.0065
 1222POPC   GL114655  20.674   7.336  19.028  0.3524 -0.1110 -0.0850
 1222POPC   GL214656  20.969   7.220  19.115  0.1264 -0.1382  0.0770
 1222POPC   C1A14657  20.440   7.672  18.709 -0.1782 -0.1436  0.1336
 1222POPC   D2A14658  20.453   7.984  18.374  0.0244  0.1119 -0.1565
 1222POPC   C3A14659  20.427   7.971  17.908  0.1246 -0.1461  0.0330
 1222POPC   C4A14660  20.453   8.179  17.463  0.0845 -0.0040 -0.0969
 1222POPC   C1B14661  20.973   7.269  18.671 -0.0951 -0.2769  0.0877
 1222POPC   C2B14662  21.076   7.145  18.220  0.2545 -0.1881 -0.0089
 1222POPC   C3B14663  21.184   7.214  17.757  0.1561  0.2260 -0.0244
 1222POPC   C4B14664  20.908   7.224  17.367  0.3086 -0.3146  0.1136
 1223POPC   NC314665  19.529   9.302  19.256 -0.1125 -0.3291 -0.1425
 1223POPC   PO414666  19.657   9.463  18.941 -0.1854 -0.0292  0.3030
 1223POPC   GL114667  19.848   9.577  18.615 -0.0841 -0.1262 -0.3069
 1223POPC   GL214668  19.774   9.823  18.485 -0.0128  0.3321 -0.3343
 1223POPC   C1A14669  19.665   9.432  18.180  0.2367 -0.2220  0.3173
 1223POPC   D2A14670  19.508   9.701  17.878  0.1649  0.2213 -0.0833
 1223POPC   C3A14671  19.228   9.749  17.565 -0.0440  0.0140  0.0248
 1223POPC   C4A14672  18.806   9.573  17.525 -0.0273 -0.3002  0.0651
 1223POPC   C1B14673  19.599  10.111  18.249 -0.1819 -0.1234  0.2532
 1223POPC   C2B14674  19.337  10.201  17.857  0.0108  0.3818  0.4561
 1223POPC   C3B14675  19.232  10.577  17.684 -0.0176 -0.0299  0.0613
 1223POPC   C4B14676  19.069  10.980  17.565 -0.0538  0.2536  0.0025
 1224POPC   NC314677   6.373   8.037  19.380  0.0901  0.0861  0.0520
 1224POPC   PO414678   6.388   7.625  19.337 -0.1404 -0.3226  0.0128
 1224POPC   GL114679   6.491   7.446  18.908 -0.1353  0.0138 -0.2089
 1224POPC   GL214680   6.711   7.595  18.826 -0.1760  0.0366 -0.1327
 1224POPC   C1A14681   6.533   7.259  18.508  0.1143  0.0544 -0.0961
 1224POPC   D2A14682   6.393   7.411  18.107  0.2222  0.1290 -0.1341
 1224POPC   C3A14683   6.641   7.286  17.704  0.3293  0.0222  0.0333
 1224POPC   C4A14684   6.834   7.028  17.404 -0.1991  0.1388 -0.0695
 1224POPC   C1B14685   6.843   7.652  18.405 -0.1100  0.1437  0.1024
 1224POPC   C2B14686   7.017   7.851  18.076 -0.1471 -0.2015 -0.0271
 1224POPC   C3B14687   7.374   7.776  17.790 -0.1375  0.0711  0.0717
 1224POPC   C4B14688   7.568   7.522  17.486  0.0754  0.3505  0.1338
 1225POPC   NC314689  25.228   2.350  19.272  0.1011 -0.2223 -0.2249
 1225POPC   PO414690  25.170   1.992  19.173 -0.1108  0.1006  0.0185
 1225POPC   GL114691  25.267   1.999  18.766 -0.0784 -0.0132  0.0692
 1225POPC   GL214692  25.241   2.286  18.736 -0.0575 -0.0009  0.0159
 1225POPC   C1A14693  25.200   1.931  18.294 -0.0099  0.0262 -0.2392
 1225POPC   D2A14694  25.377   1.662  18.003 -0.0174  0.2565 -0.0395
 1225POPC   C3A14695  25.342   1.211  17.791  0.1672 -0.1765 -0.2720
 1225POPC   C4A14696  25.437   0.977  17.425  0.1226 -0.0920  0.1507
 1225POPC   C1B14697  25.397   2.573  18.395  0.0994  0.2018 -0.3641
 1225POPC   C2B14698  25.579   2.510  17.985 -0.0092  0.1467  0.2285
 1225POPC   C3B14699  25.867   2.618  17.645  0.0511 -0.0255 -0.0976
 1225POPC   C4B14700  25.957   2.645  17.133 -0.0856  0.0036  0.3999
 1226POPC   NC314701  30.974  30.153  19.441  0.0101  0.0241  0.2937
 1226POPC   PO414702  30.697  30.382  19.377  0.2149 -0.0690  0.2080
 1226POPC   GL114703  30.523  30.301  19.059 -0.1315 -0.0668 -0.4061
 1226POPC   GL214704  30.573  30.037  19.041  0.2395 -0.1601 -0.0064
 1226POPC   C1A14705  30.567  30.458  18.650  0.1770  0.3759 -0.1723
 1226POPC   D2A14706  30.656  30.589  18.252  0.3882 -0.2419 -0.0905
 1226POPC   C3A14707  30.789  30.220  17.997 -0.0160  0.0769  0.1906
 1226POPC   C4A14708  30.890  29.751  17.990 -0.0055 -0.1384  0.1045
 1226POPC   C1B14709  30.363  29.976  18.623  0.2373 -0.2273 -0.1698
 1226POPC   C2B14710  30.364  30.026  18.142 -0.2084 -0.3285 -0.0439
 1226POPC   C3B14711  30.483  29.900  17.715  0.0110  0.0933  0.0566
 1226POPC   C4B14712  30.596  29.518  17.490 -0.0590 -0.3098  0.2214
 1227POPC   NC314713   1.616   3.804  19.070  0.0072  0.0986  0.1277
 1227POPC   PO414714   1.890   3.592  18.869  0.3484  0.0256  0.2120
 1227POPC   GL114715   1.970   3.875  18.519  0.1669  0.2662 -0.1970
 1227POPC   GL214716   1.810   4.047  18.618  0.0329  0.2367 -0.0611
 1227POPC   C1A14717   2.291   3.787  18.176 -0.2039  0.0410 -0.1492
 1227POPC   D2A14718   2.367   3.728  17.722 -0.2676 -0.0335 -0.0487
 1227POPC   C3A14719   2.767   3.879  17.468 -0.1365 -0.0121 -0.0574
 1227POPC   C4A14720   3.080   4.117  17.233  0.0316  0.0561  0.1254
 1227POPC   C1B14721   1.919   4.154  18.171 -0.0017  0.0061  0.1023
 1227POPC   C2B14722   1.847   4.084  17.700  0.1969  0.0372  0.1906
 1227POPC   C3B14723   1.701   4.011  17.260 -0.1488  0.0244  0.0390
 1227POPC   C4B14724   1.637   3.657  17.004 -0.1806 -0.0621  0.2709
 1228POPC   NC314725  13.936   5.960  19.785 -0.1035  0.0145 -0.3694
 1228POPC   PO414726  13.787   5.803  19.474 -0.0832  0.2620  0.1040
 1228POPC   GL114727  13.776   5.617  19.134  0.1008 -0.2684  0.2758
 1228POPC   GL214728  14.077   5.641  18.993  0.1271  0.2438 -0.1452
 1228POPC   C1A14729  13.681   5.366  18.824  0.0282  0.1457 -0.2928
 1228POPC   D2A14730  13.966   5.292  18.450 -0.0054 -0.1178  0.0384
 1228POPC   C3A14731  14.025   5.458  18.061 -0.0326  0.1608 -0.1568
 1228POPC   C4A14732  14.290   5.586  17.662 -0.0404 -0.1405 -0.0850
 1228POPC   C1B14733  14.106   5.753  18.572  0.0176  0.0479 -0.1250
 1228POPC   C2B14734  14.348   5.828  18.159  0.0101  0.0253 -0.1711
 1228POPC   C3B14735  14.581   5.918  17.790  0.2144  0.0717 -0.3445
 1228POPC   C4B14736  14.988   5.797  17.527  0.1153  0.0913  0.2212
 1229POPC   NC314737  28.015   2.187  19.173  0.1857 -0.1798 -0.0403
 1229POPC   PO414738  27.921   1.828  19.175 -0.0718 -0.0919 -0.1057
 1229POPC   GL114739  28.061   1.929  18.783 -0.3518  0.1466 -0.0994
 1229POPC   GL214740  28.288   1.765  18.793 -0.0719 -0.1220 -0.0340
 1229POPC   C1A14741  28.061   2.106  18.364  0.0337  0.2465  0.1235
 1229POPC   D2A14742  28.212   2.093  17.896  0.1994  0.2475 -0.2621
 1229POPC   C3A14743  28.285   2.253  17.496  0.2836 -0.2366  0.3817
 1229POPC   C4A14744  28.044   2.406  17.129 -0.2227  0.2006  0.0996
 1229POPC   C1B14745  28.501   1.854  18.389 -0.1506  0.0345 -0.2173
 1229POPC   C2B14746  28.658   1.723  17.960  0.0696 -0.0737  0.0646
 1229POPC   C3B14747  28.595   1.867  17.534  0.1690  0.2291 -0.1651
 1229POPC   C4B14748  28.482   1.993  17.076  0.3240 -0.1047 -0.0549
 1230POPC   NC314749   3.402   5.441  19.962  0.0009 -0.0432 -0.0781
 1230POPC   PO414750   3.388   5.060  19.866 -0.2756  0.2349 -0.1770
 1230POPC   GL114751   3.345   5.140  19.461 -0.0825  0.0555 -0.4348
 1230POPC   GL214752   3.434   5.018  19.241 -0.0931  0.1879  0.1987
 1230POPC   C1A14753   2.929   5.256  19.238  0.2040 -0.0039  0.2740
 1230POPC   D2A14754   2.659   5.173  18.903  0.1989  0.2458  0.1169
 1230POPC   C3A14755   2.474   5.381  18.570 -0.0094 -0.4056  0.0878
 1230POPC   C4A14756   2.413   5.559  18.169 -0.0588 -0.0212  0.2663
 1230POPC   C1B14757   3.113   5.032  18.866 -0.3171 -0.5345 -0.0954
 1230POPC   C2B14758   2.976   5.289  18.519 -0.1876  0.0916 -0.0457
 1230POPC   C3B14759   2.871   5.464  18.120 -0.0383  0.1370  0.2255
 1230POPC   C4B14760   2.871   5.693  17.718 -0.1381  0.1338  0.2350
 1231POPC   NC314761  22.640  13.180  19.497 -0.0138 -0.0051 -0.3214
 1231POPC   PO414762  22.663  13.546  19.652 -0.0986 -0.1808  0.0068
 1231POPC   GL114763  22.665  13.605  19.308 -0.0669 -0.2057 -0.1681
 1231POPC   GL214764  22.771  13.856  19.128 -0.0495  0.0258 -0.0968
 1231POPC   C1A14765  23.026  13.273  19.162 -0.1994 -0.0850  0.1779
 1231POPC   D2A14766  23.321  12.912  19.151  0.1605  0.0122  0.0479
 1231POPC   C3A14767  23.207  12.710  18.779  0.2958  0.0904 -0.0490
 1231POPC   C4A14768  23.189  12.857  18.345  0.1926  0.1425  0.0345
 1231POPC   C1B14769  22.988  13.659  18.779 -0.3094  0.2610  0.1173
 1231POPC   C2B14770  22.966  13.578  18.343 -0.1654  0.0737 -0.0002
 1231POPC   C3B14771  23.111  13.301  17.993  0.1645  0.2208 -0.0084
 1231POPC   C4B14772  23.015  13.347  17.534 -0.0577 -0.0756  0.3220
 1232POPC   NC314773   7.791  28.923  19.168  0.4263  0.2248  0.0293
 1232POPC   PO414774   7.999  28.566  19.064  0.0224  0.1218 -0.2410
 1232POPC   GL114775   8.029  28.603  18.685  0.2553 -0.1210  0.0341
 1232POPC   GL214776   8.014  28.358  18.499 -0.3962  0.0362  0.3160
 1232POPC   C1A14777   8.245  28.779  18.298  0.1996 -0.3057 -0.2651
 1232POPC   D2A14778   8.446  28.869  17.915 -0.0934 -0.0487 -0.1628
 1232POPC   C3A14779   8.449  28.749  17.405  0.2015  0.0796 -0.0604
 1232POPC   C4A14780   8.623  28.689  16.939  0.2623 -0.1650  0.1320
 1232POPC   C1B14781   8.283  28.298  18.164 -0.1380  0.0939  0.0199
 1232POPC   C2B14782   8.514  28.311  17.769 -0.1536 -0.1360  0.1647
 1232POPC   C3B14783   8.445  28.287  17.320 -0.1522 -0.0810 -0.0431
 1232POPC   C4B14784   8.427  28.214  16.814 -0.0960  0.0545  0.2076
 1233POPC   NC314785   4.528  10.219  18.827  0.1109 -0.1338  0.0115
 1233POPC   PO414786   4.523  10.539  19.018  0.0136 -0.1296  0.0121
 1233POPC   GL114787   4.518  10.746  18.642 -0.2458 -0.1993  0.0510
 1233POPC   GL214788   4.767  10.975  18.463  0.1619 -0.0159 -0.0821
 1233POPC   C1A14789   4.464  10.690  18.205  0.0744  0.1022  0.2596
 1233POPC   D2A14790   4.506  10.775  17.792  0.1427 -0.0558 -0.2370
 1233POPC   C3A14791   4.206  11.051  17.453 -0.0475 -0.2626  0.1814
 1233POPC   C4A14792   3.840  11.075  17.169  0.1119 -0.1063  0.1303
 1233POPC   C1B14793   4.735  11.126  18.049  0.0773 -0.1341 -0.1794
 1233POPC   C2B14794   4.633  11.304  17.739  0.1528 -0.2437  0.1970
 1233POPC   C3B14795   4.329  11.684  17.610 -0.1312  0.0639 -0.2829
 1233POPC   C4B14796   4.291  12.096  17.531  0.1889 -0.1502 -0.1573
 1234POPC   NC314797  12.672  20.106  19.337 -0.1395 -0.3411  0.0335
 1234POPC   PO414798  12.688  19.747  19.183  0.2810 -0.0945 -0.4022
 1234POPC   GL114799  12.769  19.927  18.884  0.3648 -0.0468 -0.3480
 1234POPC   GL214800  13.027  20.092  18.932  0.1858 -0.0173 -0.0531
 1234POPC   C1A14801  12.710  19.897  18.411 -0.0176  0.2103  0.4975
 1234POPC   D2A14802  12.463  19.898  17.952  0.1961  0.0052 -0.0318
 1234POPC   C3A14803  12.204  19.666  17.647  0.0404  0.0448 -0.3959
 1234POPC   C4A14804  12.064  19.458  17.271 -0.1749  0.3770 -0.2114
 1234POPC   C1B14805  12.863  20.378  18.651 -0.1764 -0.0148  0.0766
 1234POPC   C2B14806  12.841  20.708  18.352  0.3102 -0.1818  0.0970
 1234POPC   C3B14807  12.963  20.827  17.924 -0.0918 -0.1679  0.1870
 1234POPC   C4B14808  12.822  20.716  17.520 -0.1658  0.1203  0.1622
 1235POPC   NC314809   2.902  21.481  19.181 -0.0830 -0.0239  0.0096
 1235POPC   PO414810   3.125  21.141  19.252  0.1992  0.1927  0.2811
 1235POPC   GL114811   3.081  20.882  18.995 -0.0174  0.3398 -0.0407
 1235POPC   GL214812   3.344  20.726  18.928 -0.1693  0.1155 -0.1271
 1235POPC   C1A14813   3.215  21.085  18.600  0.3097 -0.4249 -0.2259
 1235POPC   D2A14814   3.231  21.201  18.144 -0.0369  0.3480 -0.3097
 1235POPC   C3A14815   3.592  21.314  17.869  0.0848  0.0315  0.1144
 1235POPC   C4A14816   4.026  21.363  17.679  0.2517 -0.1458  0.1245
 1235POPC   C1B14817   3.504  20.594  18.491  0.2969 -0.0789  0.0319
 1235POPC   C2B14818   3.579  20.469  18.048  0.0622 -0.0249 -0.1602
 1235POPC   C3B14819   3.868  20.404  17.710 -0.0396  0.0940 -0.2103
 1235POPC   C4B14820   4.017  20.062  17.526 -0.0684 -0.1437  0.5287
 1236POPC   NC314821  21.861  13.016  19.268  0.1482 -0.1796  0.3192
 1236POPC   PO414822  21.760  13.392  19.383  0.1068  0.2681 -0.2910
 1236POPC   GL114823  21.713  13.410  18.897  0.0192 -0.0446 -0.1269
 1236POPC   GL214824  21.709  13.167  18.849 -0.3093 -0.0229 -0.1501
 1236POPC   C1A14825  22.042  13.582  18.603 -0.3061 -0.1365  0.0237
 1236POPC   D2A14826  22.002  13.983  18.297  0.3687 -0.1181 -0.3840
 1236POPC   C3A14827  21.965  13.957  17.855  0.0982 -0.2141 -0.0230
 1236POPC   C4A14828  22.101  13.953  17.455  0.0279 -0.0082 -0.0406
 1236POPC   C1B14829  21.802  13.200  18.394  0.3105 -0.3113 -0.3423
 1236POPC   C2B14830  21.804  12.887  18.075 -0.1163  0.1220  0.0658
 1236POPC   C3B14831  21.676  12.745  17.665 -0.2572 -0.0446  0.0570
 1236POPC   C4B14832  21.436  12.751  17.285 -0.3708  0.0368  0.0770
 1237POPC   NC314833   4.800   4.049  19.761 -0.0488 -0.2208  0.0226
 1237POPC   PO414834   4.604   3.723  19.667 -0.4413  0.3203  0.0902
 1237POPC   GL114835   4.740   3.734  19.288  0.1958  0.1730  0.1665
 1237POPC   GL214836   4.578   3.966  19.202 -0.0251  0.2936  0.1019
 1237POPC   C1A14837   4.557   3.528  18.903  0.1448  0.0226 -0.3088
 1237POPC   D2A14838   4.640   3.329  18.480  0.0371  0.0912 -0.2959
 1237POPC   C3A14839   4.700   3.555  18.120 -0.1387  0.2112  0.0141
 1237POPC   C4A14840   4.848   3.631  17.701  0.1724 -0.2414 -0.0394
 1237POPC   C1B14841   4.370   4.032  18.829  0.0645 -0.2370  0.2656
 1237POPC   C2B14842   4.248   4.326  18.460  0.0156  0.3092  0.1521
 1237POPC   C3B14843   3.981   4.244  18.075 -0.1312 -0.0738 -0.0522
 1237POPC   C4B14844   3.876   4.543  17.719  0.1536 -0.2951 -0.0860
 1238POPC   NC314845   7.980  10.014  18.814 -0.1079 -0.0079 -0.0153
 1238POPC   PO414846   7.619  10.115  18.907 -0.2503  0.1195 -0.2099
 1238POPC   GL114847   7.468  10.092  18.522  0.2970  0.1404  0.0771
 1238POPC   GL214848   7.704  10.134  18.385 -0.1582  0.0187  0.0047
 1238POPC   C1A14849   7.159  10.398  18.319 -0.0360  0.4177  0.0491
 1238POPC   D2A14850   7.190  10.457  17.910 -0.1237  0.1122 -0.0855
 1238POPC   C3A14851   7.071  10.170  17.545 -0.3249 -0.1260 -0.0007
 1238POPC   C4A14852   7.130   9.913  17.167  0.0125  0.3057  0.1429
 1238POPC   C1B14853   7.694  10.470  18.051 -0.0553 -0.0240 -0.0465
 1238POPC   C2B14854   7.564  10.529  17.618  0.1476 -0.2718  0.2971
 1238POPC   C3B14855   7.383  10.431  17.216  0.1591 -0.2039 -0.0731
 1238POPC   C4B14856   7.559  10.094  16.950  0.1840 -0.1058 -0.1404
 1239POPC   NC314857  29.049  12.244  19.690 -0.3967  0.1840  0.2013
 1239POPC   PO414858  28.723  12.205  19.483  0.3157 -0.1020  0.1773
 1239POPC   GL114859  28.881  12.295  19.188  0.0201  0.5208 -0.4082
 1239POPC   GL214860  29.153  12.233  19.197  0.4043  0.0139 -0.3299
 1239POPC   C1A14861  28.869  12.638  18.870  0.1866 -0.2095 -0.0818
 1239POPC   D2A14862  28.917  12.740  18.443  0.3441  0.2945 -0.1023
 1239POPC   C3A14863  28.774  12.876  18.012 -0.0071 -0.4509  0.2784
 1239POPC   C4A14864  28.703  12.681  17.582 -0.0405 -0.1256  0.1947
 1239POPC   C1B14865  29.061  12.113  18.760 -0.5567  0.0393  0.1803
 1239POPC   C2B14866  29.175  12.102  18.278 -0.6618  0.1129 -0.0085
 1239POPC   C3B14867  29.382  12.215  17.941 -0.0420  0.0303 -0.2019
 1239POPC   C4B14868  29.692  12.574  18.062  0.0236  0.0695 -0.2431
 1240POPC   NC314869  24.377  22.488  19.047 -0.0224  0.1732 -0.4252
 1240POPC   PO414870  24.308  22.145  19.172  0.0355  0.0435  0.0485
 1240POPC   GL114871  24.387  22.101  18.806  0.1470  0.0890  0.3362
 1240POPC   GL214872  24.035  22.147  18.734  0.0905 -0.0486  0.0369
 1240POPC   C1A14873  24.416  22.421  18.458  0.3457  0.1143 -0.2483
 1240POPC   D2A14874  24.687  22.604  18.156 -0.0848  0.0222  0.1789
 1240POPC   C3A14875  24.741  22.500  17.698 -0.1753 -0.2720 -0.2424
 1240POPC   C4A14876  24.538  22.470  17.339 -0.1575  0.0300  0.1591
 1240POPC   C1B14877  23.904  22.442  18.461 -0.2362 -0.2599  0.0123
 1240POPC   C2B14878  23.922  22.597  18.029 -0.0877 -0.1265 -0.1665
 1240POPC   C3B14879  23.783  22.409  17.595  0.3370 -0.1609 -0.1052
 1240POPC   C4B14880  24.008  22.411  17.169  0.2935  0.1634 -0.3765
 1241POPC   NC314881  14.191  11.456  19.622 -0.1244  0.2434 -0.1476
 1241POPC   PO414882  14.266  11.094  19.754 -0.3851  0.0345 -0.0322
 1241POPC   GL114883  14.258  11.099  19.322  0.2686 -0.3455  0.1662
 1241POPC   GL214884  14.439  11.158  19.062  0.1368  0.3182  0.2062
 1241POPC   C1A14885  13.954  11.027  18.994  0.2010  0.0525 -0.2224
 1241POPC   D2A14886  13.833  11.201  18.585 -0.1305  0.1330  0.0300
 1241POPC   C3A14887  13.529  11.521  18.389 -0.1727 -0.3164  0.1581
 1241POPC   C4A14888  13.448  11.843  18.047  0.2168  0.1806 -0.2308
 1241POPC   C1B14889  14.354  11.349  18.650  0.2242  0.1110  0.2372
 1241POPC   C2B14890  14.545  11.428  18.248  0.1256 -0.3483 -0.1615
 1241POPC   C3B14891  14.437  11.247  17.868  0.0620 -0.0500  0.0428
 1241POPC   C4B14892  14.122  11.191  17.518 -0.1177  0.0723  0.0986
 1242POPC   NC314893  29.875  25.054  18.908  0.1745  0.0647 -0.3324
 1242POPC   PO414894  30.172  24.842  18.828  0.1208 -0.0744  0.0890
 1242POPC   GL114895  29.915  24.949  18.431  0.3250  0.1741 -0.0974
 1242POPC   GL214896  30.030  24.702  18.351 -0.0259  0.5851 -0.1938
 1242POPC   C1A14897  29.782  25.002  17.965  0.1443  0.1909 -0.2477
 1242POPC   D2A14898  29.511  25.104  17.628  0.0028  0.3764  0.0721
 1242POPC   C3A14899  29.342  25.452  17.281  0.0813 -0.1961  0.3515
 1242POPC   C4A14900  29.496  25.697  16.912 -0.3353 -0.2207  0.1336
 1242POPC   C1B14901  30.223  24.794  17.916  0.0849  0.3939  0.1664
 1242POPC   C2B14902  30.406  24.642  17.570  0.0617  0.2183 -0.0276
 1242POPC   C3B14903  30.423  24.799  17.108  0.1734  0.0676  0.0197
 1242POPC   C4B14904  30.026  24.737  16.835 -0.2140 -0.0447  0.1959
 1243POPC   NC314905  17.053  11.227  18.700 -0.1222  0.0721 -0.0254
 1243POPC   PO414906  16.786  11.053  18.992 -0.0097  0.0013 -0.1815
 1243POPC   GL114907  16.721  10.857  18.668  0.1573 -0.0864 -0.3480
 1243POPC   GL214908  16.420  10.804  18.663 -0.0609  0.0220  0.0690
 1243POPC   C1A14909  16.785  11.018  18.252 -0.1145  0.3131  0.0833
 1243POPC   D2A14910  16.754  11.122  17.805 -0.0215  0.0029 -0.2977
 1243POPC   C3A14911  16.691  10.984  17.382  0.0343  0.0072 -0.0846
 1243POPC   C4A14912  16.658  11.111  16.938  0.1323  0.3064 -0.5260
 1243POPC   C1B14913  16.429  10.703  18.207  0.0650 -0.1338 -0.4061
 1243POPC   C2B14914  16.412  10.590  17.794  0.2077  0.1003 -0.1810
 1243POPC   C3B14915  16.539  10.517  17.394  0.1319 -0.1890  0.1672
 1243POPC   C4B14916  16.477  10.640  16.943  0.1041 -0.1269 -0.0389
 1244POPC   NC314917  15.699  11.855  19.327 -0.1719  0.0804 -0.3251
 1244POPC   PO414918  15.649  11.505  19.049  0.0031 -0.1717 -0.1178
 1244POPC   GL114919  15.728  11.724  18.655  0.0670  0.0797  0.0247
 1244POPC   GL214920  15.489  11.766  18.439  0.3459  0.1726  0.1472
 1244POPC   C1A14921  16.017  11.613  18.299  0.0370 -0.1624  0.0191
 1244POPC   D2A14922  16.183  11.839  17.895  0.0372 -0.1783 -0.0192
 1244POPC   C3A14923  16.399  11.665  17.519  0.4448  0.2362  0.0613
 1244POPC   C4A14924  16.794  11.502  17.266 -0.2554 -0.0198 -0.3489
 1244POPC   C1B14925  15.475  11.666  17.983  0.2294  0.0280  0.2375
 1244POPC   C2B14926  15.328  11.711  17.544 -0.0033 -0.0935 -0.2215
 1244POPC   C3B14927  15.254  11.406  17.187  0.1547  0.0776  0.0717
 1244POPC   C4B14928  15.165  11.496  16.736 -0.0351 -0.0922  0.1461
 1245POPC   NC314929  13.915  20.228  19.051 -0.0156 -0.0300  0.1236
 1245POPC   PO414930  14.144  20.271  19.368  0.5597 -0.1697 -0.1333
 1245POPC   GL114931  14.378  20.300  18.990  0.0864 -0.0987  0.1205
 1245POPC   GL214932  14.588  20.423  19.028  0.3763 -0.0797 -0.2719
 1245POPC   C1A14933  14.504  20.442  18.553  0.0673 -0.0130  0.1593
 1245POPC   D2A14934  14.671  20.677  18.153 -0.0251 -0.0372  0.0239
 1245POPC   C3A14935  14.348  20.774  17.765 -0.0168  0.2924 -0.0052
 1245POPC   C4A14936  13.893  20.682  17.697  0.0306 -0.0897 -0.1470
 1245POPC   C1B14937  14.953  20.322  18.692 -0.0664 -0.1756 -0.5424
 1245POPC   C2B14938  15.040  20.341  18.230  0.1982 -0.0010  0.1223
 1245POPC   C3B14939  14.873  20.440  17.796 -0.1976 -0.1200 -0.1451
 1245POPC   C4B14940  14.915  20.496  17.369 -0.0432  0.0930  0.1300
 1246POPC   NC314941  16.473  16.133  19.214 -0.3317 -0.1152  0.3489
 1246POPC   PO414942  16.173  16.352  19.202  0.2757 -0.4213  0.1149
 1246POPC   GL114943  16.034  16.359  18.902 -0.1046 -0.1020 -0.0651
 1246POPC   GL214944  16.079  16.563  18.687 -0.1243 -0.0957 -0.0441
 1246POPC   C1A14945  15.838  16.094  18.597 -0.0185  0.3783  0.1021
 1246POPC   D2A14946  15.371  15.944  18.569  0.0008  0.1100  0.3320
 1246POPC   C3A14947  15.304  15.706  18.212 -0.5755 -0.1635  0.0726
 1246POPC   C4A14948  15.166  15.816  17.776  0.2549 -0.0486  0.4342
 1246POPC   C1B14949  16.243  16.550  18.264 -0.1612 -0.2799  0.0070
 1246POPC   C2B14950  16.337  16.497  17.806 -0.2004  0.2224  0.0706
 1246POPC   C3B14951  16.592  16.649  17.424 -0.0783 -0.1880  0.0380
 1246POPC   C4B14952  16.749  16.751  17.017  0.2513 -0.0548 -0.3322
 1247POPC   NC314953   0.303   8.777  19.123 -0.1658  0.1219  0.0214
 1247POPC   PO414954   0.637   8.822  19.344  0.0878  0.0434 -0.0678
 1247POPC   GL114955   0.832   8.875  18.979 -0.1439  0.0166 -0.2938
 1247POPC   GL214956   0.681   8.930  18.727  0.0544 -0.2730 -0.0798
 1247POPC   C1A14957   1.169   9.093  18.807 -0.3565  0.0857  0.3089
 1247POPC   D2A14958   1.531   9.318  18.634 -0.0553  0.0455  0.0942
 1247POPC   C3A14959   1.825   9.221  18.293 -0.2930 -0.0461 -0.1043
 1247POPC   C4A14960   2.141   9.322  17.959 -0.1363 -0.3086  0.1149
 1247POPC   C1B14961   0.581   8.808  18.263  0.0469 -0.0188 -0.2112
 1247POPC   C2B14962   0.504   8.619  17.826  0.0583 -0.4773 -0.2718
 1247POPC   C3B14963   0.059   8.502  17.669  0.2014  0.1101 -0.2133
 1247POPC   C4B14964  -0.178   8.140  17.632 -0.3136 -0.1843 -0.0881
 1248POPC   NC314965  12.891   1.793  18.857 -0.3234  0.1638  0.1280
 1248POPC   PO414966  12.535   1.950  18.992 -0.4235 -0.0714  0.0190
 1248POPC   GL114967  12.582   2.129  18.695 -0.0617 -0.3161 -0.0149
 1248POPC   GL214968  12.278   2.312  18.744  0.2106  0.0138 -0.1178
 1248POPC   C1A14969  12.537   1.930  18.253 -0.0868 -0.0491 -0.0504
 1248POPC   D2A14970  12.478   1.576  17.961 -0.1276 -0.2709  0.0325
 1248POPC   C3A14971  12.149   1.730  17.757 -0.0409 -0.2012 -0.1500
 1248POPC   C4A14972  11.846   1.680  17.401  0.0909  0.0409  0.0423
 1248POPC   C1B14973  12.194   2.280  18.280 -0.0589 -0.0925 -0.0045
 1248POPC   C2B14974  12.144   2.232  17.807  0.1271 -0.0841  0.2871
 1248POPC   C3B14975  12.033   2.156  17.367  0.0275  0.1571  0.1418
 1248POPC   C4B14976  11.837   2.301  16.934 -0.1802  0.0487  0.1598
 1249POPC   NC314977  11.444  15.352  19.264 -0.1873 -0.1746  0.0902
 1249POPC   PO414978  11.748  15.103  19.077 -0.1812 -0.0573 -0.2082
 1249POPC   GL114979  11.405  15.029  18.799 -0.0755  0.0076 -0.1818
 1249POPC   GL214980  11.511  14.840  18.612 -0.2984 -0.0676  0.0826
 1249POPC   C1A14981  11.294  15.254  18.423  0.3516  0.1974 -0.0067
 1249POPC   D2A14982  11.390  15.306  17.971  0.1591 -0.2318 -0.3686
 1249POPC   C3A14983  11.076  15.321  17.636  0.2048  0.2324 -0.0361
 1249POPC   C4A14984  10.667  15.465  17.541 -0.4984  0.2972 -0.0501
 1249POPC   C1B14985  11.813  15.166  18.390 -0.2394 -0.1951  0.1408
 1249POPC   C2B14986  11.863  15.365  18.025  0.0625  0.1448  0.1911
 1249POPC   C3B14987  11.721  15.544  17.608 -0.0299 -0.1376 -0.1594
 1249POPC   C4B14988  11.485  15.442  17.181 -0.2907  0.1573 -0.0423
 1250POPC   NC314989  24.883   9.026  19.278 -0.0845  0.1977 -0.0892
 1250POPC   PO414990  25.114   8.681  19.308  0.2081  0.0596 -0.1008
 1250POPC   GL114991  25.291   8.626  19.003 -0.1330  0.1941 -0.0598
 1250POPC   GL214992  25.454   8.430  18.848 -0.4082 -0.0114 -0.4227
 1250POPC   C1A14993  25.067   8.718  18.644  0.0119 -0.1728  0.1347
 1250POPC   D2A14994  24.957   8.822  18.218  0.1083  0.1317 -0.0403
 1250POPC   C3A14995  24.801   9.209  17.962  0.3335 -0.1046  0.1251
 1250POPC   C4A14996  24.773   9.531  17.585  0.1813  0.0824 -0.0814
 1250POPC   C1B14997  25.540   8.530  18.408 -0.0796 -0.0767 -0.2559
 1250POPC   C2B14998  25.319   8.566  18.007  0.0302 -0.0326  0.3976
 1250POPC   C3B14999  25.030   8.789  17.705 -0.0352  0.1160 -0.2357
 1250POPC   C4B15000  24.673   8.824  17.414  0.4856 -0.3140  0.2844
 1251POPC   NC315001  14.392  23.278  19.341  0.3371  0.5319  0.0131
 1251POPC   PO415002  14.585  23.532  19.183 -0.3878  0.1238 -0.1750
 1251POPC   GL115003  14.489  23.437  18.820  0.3822 -0.0908  0.3585
 1251POPC   GL215004  14.503  23.708  18.741  0.0055  0.1900 -0.0080
 1251POPC   C1A15005  14.678  23.240  18.418  0.0106  0.0326 -0.0266
 1251POPC   D2A15006  14.834  23.286  17.944  0.1981 -0.3106 -0.1470
 1251POPC   C3A15007  14.486  23.365  17.611 -0.0446  0.0476 -0.2153
 1251POPC   C4A15008  14.217  23.200  17.306 -0.0139 -0.0464  0.0283
 1251POPC   C1B15009  14.387  23.718  18.289  0.0809  0.1849  0.2049
 1251POPC   C2B15010  14.253  23.733  17.813  0.2513  0.3422 -0.1730
 1251POPC   C3B15011  14.120  23.676  17.354  0.0713 -0.1121 -0.2006
 1251POPC   C4B15012  13.961  23.830  17.002  0.0765 -0.0114  0.0089
 1252POPC   NC315013   5.096  20.402  19.764 -0.0548  0.0214 -0.1305
 1252POPC   PO415014   5.008  20.151  19.480 -0.4353  0.4186 -0.0225
 1252POPC   GL115015   5.124  20.224  19.150  0.0161  0.0150  0.0298
 1252POPC   GL215016   5.084  19.939  18.978  0.2572  0.1742 -0.1190
 1252POPC   C1A15017   5.460  20.230  18.833  0.2074  0.4519  0.2532
 1252POPC   D2A15018   5.446  20.249  18.380  0.1187 -0.0405 -0.3457
 1252POPC   C3A15019   5.462  20.232  17.922  0.2239  0.1944 -0.1156
 1252POPC   C4A15020   5.713  20.276  17.551 -0.2075 -0.3615 -0.1934
 1252POPC   C1B15021   5.299  19.802  18.557 -0.1868  0.1098  0.1179
 1252POPC   C2B15022   5.334  19.759  18.091 -0.0230  0.3321 -0.1647
 1252POPC   C3B15023   5.573  19.740  17.642  0.2223 -0.2953 -0.0468
 1252POPC   C4B15024   5.913  19.818  17.304  0.1248 -0.0745  0.0143
 1253POPC   NC315025   5.473  31.002  19.013 -0.0460  0.1621 -0.1673
 1253POPC   PO415026   5.570  31.319  19.210 -0.1165 -0.1430  0.0349
 1253POPC   GL115027   5.496  31.443  18.806  0.3466  0.1915 -0.2709
 1253POPC   GL215028   5.311  31.287  18.643  0.4599 -0.3655  0.1031
 1253POPC   C1A15029   5.729  31.594  18.408 -0.3130 -0.4768 -0.2779
 1253POPC   D2A15030   5.907  31.746  18.027 -0.0796  0.1442 -0.0174
 1253POPC   C3A15031   5.617  31.743  17.664 -0.0919  0.2146 -0.0551
 1253POPC   C4A15032   5.679  31.700  17.217 -0.0118 -0.2622 -0.0730
 1253POPC   C1B15033   5.500  31.061  18.236 -0.0980 -0.1702 -0.1749
 1253POPC   C2B15034   5.642  30.916  17.808 -0.1027 -0.2054 -0.0116
 1253POPC   C3B15035   5.819  30.903  17.398 -0.0352 -0.2063 -0.0497
 1253POPC   C4B15036   6.096  30.622  17.153 -0.3001  0.0955  0.2551
 1254POPC   NC315037  19.920  20.172  19.394 -0.0945 -0.1861  0.2617
 1254POPC   PO415038  20.267  20.313  19.356 -0.1263  0.3009  0.3024
 1254POPC   GL115039  20.557  20.227  18.993 -0.1557 -0.4161 -0.2873
 1254POPC   GL215040  20.395  20.066  18.766 -0.1521  0.1274  0.0042
 1254POPC   C1A15041  20.864  20.282  18.672 -0.0279  0.1314 -0.2803
 1254POPC   D2A15042  21.054  20.135  18.272 -0.0640 -0.0068  0.2211
 1254POPC   C3A15043  21.497  20.081  18.238 -0.1280  0.0384  0.0034
 1254POPC   C4A15044  21.858  19.984  18.445 -0.3724  0.0649 -0.0389
 1254POPC   C1B15045  20.563  19.990  18.334 -0.1032  0.2126 -0.3286
 1254POPC   C2B15046  20.645  20.137  17.915  0.0355 -0.1498 -0.1254
 1254POPC   C3B15047  20.971  20.294  17.622 -0.0360 -0.0822 -0.1605
 1254POPC   C4B15048  21.009  20.420  17.187 -0.1951  0.1835  0.0990
 1255POPC   NC315049  10.005  15.005  19.633 -0.5012 -0.0516  0.0968
 1255POPC   PO415050   9.925  15.426  19.560 -0.1879  0.1038 -0.2343
 1255POPC   GL115051   9.854  15.621  19.180  0.0350  0.0112 -0.6893
 1255POPC   GL215052   9.920  15.925  19.277  0.1558 -0.2621  0.0880
 1255POPC   C1A15053   9.578  15.474  18.885  0.0497 -0.1035  0.0184
 1255POPC   D2A15054   9.408  15.192  18.556 -0.3424 -0.2212 -0.0793
 1255POPC   C3A15055   9.289  14.947  18.195 -0.1910 -0.0243 -0.0413
 1255POPC   C4A15056   9.367  14.789  17.759 -0.2495  0.1976 -0.2773
 1255POPC   C1B15057  10.058  15.861  18.785 -0.3276 -0.0036  0.0377
 1255POPC   C2B15058  10.044  15.769  18.335 -0.1847  0.1930  0.0697
 1255POPC   C3B15059   9.777  15.755  17.929  0.1365 -0.1454 -0.4850
 1255POPC   C4B15060   9.685  15.462  17.627  0.0517  0.1960 -0.0021
 1256POPC   NC315061  12.870  19.447  18.841 -0.0323  0.2064  0.4270
 1256POPC   PO415062  12.855  19.086  19.016 -0.2267  0.2351  0.2369
 1256POPC   GL115063  12.662  18.992  18.678  0.1016  0.1827  0.1690
 1256POPC   GL215064  12.516  19.160  18.508  0.0809 -0.2799  0.0964
 1256POPC   C1A15065  12.768  18.733  18.260  0.3144 -0.0278  0.5512
 1256POPC   D2A15066  12.790  18.606  17.808  0.0075  0.1068  0.0335
 1256POPC   C3A15067  12.462  18.437  17.556  0.0856 -0.1847  0.1756
 1256POPC   C4A15068  12.245  18.166  17.224  0.0624 -0.3861 -0.2814
 1256POPC   C1B15069  12.762  19.357  18.236 -0.0376  0.0296  0.1917
 1256POPC   C2B15070  12.707  19.110  17.851 -0.0014 -0.0905  0.0238
 1256POPC   C3B15071  12.680  18.958  17.481  0.0728 -0.1637 -0.1310
 1256POPC   C4B15072  12.676  18.767  17.081  0.0057  0.3439  0.0036
 1257POPC   NC315073  21.986  15.133  19.136 -0.1959  0.1385  0.1474
 1257POPC   PO415074  22.113  15.096  19.480  0.0702 -0.0391 -0.0344
 1257POPC   GL115075  22.096  15.483  19.476  0.3992  0.1957 -0.2181
 1257POPC   GL215076  22.227  15.596  19.200 -0.1740 -0.0385  0.0874
 1257POPC   C1A15077  22.274  15.692  19.843  0.3269 -0.3260  0.1024
 1257POPC   D2A15078  22.298  15.701  20.259 -0.0332  0.1134 -0.0990
 1257POPC   C3A15079  22.422  15.795  20.720  0.0850  0.2116  0.1036
 1257POPC   C4A15080  22.430  15.926  21.191 -0.2381 -0.1855 -0.0126
 1257POPC   C1B15081  22.209  15.927  18.841  0.0044  0.2087 -0.1551
 1257POPC   C2B15082  22.396  16.031  18.471 -0.2983  0.2535  0.0222
 1257POPC   C3B15083  22.370  16.131  18.053  0.3339 -0.0023 -0.0096
 1257POPC   C4B15084  22.310  16.274  17.608  0.1181 -0.2593  0.2798
 1258POPC   NC315085  21.553  15.685  20.824  0.1118  0.0454 -0.1168
 1258POPC   PO415086  21.682  15.631  20.450  0.1664  0.0694 -0.1395
 1258POPC   GL115087  21.647  16.029  20.552  0.2971 -0.0234 -0.1752
 1258POPC   GL215088  21.950  16.081  20.532 -0.0406 -0.2190  0.3249
 1258POPC   C1A15089  21.792  16.411  20.806  0.1181  0.2107  0.1212
 1258POPC   D2A15090  21.847  16.846  20.627 -0.0681 -0.1045  0.2796
 1258POPC   C3A15091  22.299  16.995  20.593  0.2282 -0.2289  0.4493
 1258POPC   C4A15092  22.627  17.143  20.925  0.1516  0.1509 -0.0078
 1258POPC   C1B15093  22.273  16.330  20.783 -0.0437 -0.0240 -0.1429
 1258POPC   C2B15094  22.217  16.766  21.008 -0.0109  0.0152 -0.0074
 1258POPC   C3B15095  22.192  17.226  21.093  0.2693  0.1479  0.0320
 1258POPC   C4B15096  21.834  17.441  21.223 -0.0210 -0.2907  0.0292
 1259POPC   NC315097   9.808  20.276  19.720 -0.0475 -0.1990  0.1354
 1259POPC   PO415098   9.805  20.406  19.340 -0.0937  0.0726 -0.2593
 1259POPC   GL115099   9.707  20.209  18.989  0.0052 -0.1281  0.0640
 1259POPC   GL215100   9.413  20.210  18.977 -0.2351  0.0122  0.0101
 1259POPC   C1A15101   9.582  19.857  18.689 -0.1821  0.1349  0.0341
 1259POPC   D2A15102   9.663  19.596  18.268  0.0588 -0.3085  0.0507
 1259POPC   C3A15103   9.325  19.541  17.964  0.2220 -0.0678  0.1415
 1259POPC   C4A15104   9.074  19.232  17.765 -0.0078  0.0105 -0.1042
 1259POPC   C1B15105   9.599  20.353  18.536 -0.0315  0.2357  0.2929
 1259POPC   C2B15106   9.655  20.494  18.113 -0.0730 -0.0636  0.1867
 1259POPC   C3B15107   9.694  20.677  17.699 -0.0710 -0.1855  0.1000
 1259POPC   C4B15108   9.787  20.686  17.259  0.0049  0.1928 -0.1613
 1260POPC   NC315109  28.192   4.484  19.686  0.1074 -0.1970 -0.3485
 1260POPC   PO415110  28.551   4.450  19.503 -0.1001 -0.0223 -0.3583
 1260POPC   GL115111  28.598   4.638  19.136  0.0635  0.1652 -0.2579
 1260POPC   GL215112  28.426   4.629  18.931 -0.0543 -0.1631 -0.1150
 1260POPC   C1A15113  28.855   4.612  18.726  0.0735 -0.0677  0.2739
 1260POPC   D2A15114  29.070   4.217  18.670 -0.2187  0.2490 -0.0331
 1260POPC   C3A15115  29.021   3.960  18.271  0.0354 -0.2229  0.0753
 1260POPC   C4A15116  29.012   3.874  17.789  0.0291 -0.0066  0.0434
 1260POPC   C1B15117  28.431   4.669  18.487 -0.0525 -0.0438  0.2459
 1260POPC   C2B15118  28.186   4.572  18.120 -0.1600  0.3297  0.2395
 1260POPC   C3B15119  28.117   4.632  17.619 -0.0018  0.0416  0.1663
 1260POPC   C4B15120  28.052   4.781  17.166 -0.0239  0.0854 -0.0174
 1261POPC   NC315121   8.503  25.582  19.391  0.1805  0.1909 -0.1715
 1261POPC   PO415122   8.471  25.229  19.215  0.3172  0.1206 -0.0983
 1261POPC   GL115123   8.695  25.243  18.816  0.1424  0.0504  0.0533
 1261POPC   GL215124   8.460  25.233  18.681 -0.0754 -0.3795  0.3457
 1261POPC   C1A15125   8.906  25.362  18.406  0.2021  0.1370 -0.1475
 1261POPC   D2A15126   8.993  25.281  17.981  0.0373 -0.0328 -0.3600
 1261POPC   C3A15127   9.129  25.200  17.572  0.2407 -0.0802 -0.2736
 1261POPC   C4A15128   9.534  25.170  17.388  0.1547 -0.1464  0.0475
 1261POPC   C1B15129   8.521  24.996  18.268  0.1851 -0.1209 -0.3875
 1261POPC   C2B15130   8.290  25.115  17.888  0.0807 -0.1414 -0.3752
 1261POPC   C3B15131   8.082  24.889  17.539 -0.1528  0.3813  0.0593
 1261POPC   C4B15132   7.835  24.717  17.173  0.2433 -0.0858  0.4036
 1262POPC   NC315133  18.529   5.276  19.923  0.0769 -0.0235  0.0540
 1262POPC   PO415134  18.408   5.386  19.596 -0.1823 -0.0766  0.0309
 1262POPC   GL115135  18.554   5.512  19.296  0.0073 -0.3206 -0.1725
 1262POPC   GL215136  18.796   5.444  19.127 -0.0143 -0.1443 -0.2216
 1262POPC   C1A15137  18.435   5.800  18.942  0.1942 -0.1159 -0.1413
 1262POPC   D2A15138  18.617   5.967  18.580 -0.0844 -0.0682 -0.0658
 1262POPC   C3A15139  18.469   6.056  18.078 -0.1135  0.2811  0.2587
 1262POPC   C4A15140  18.301   5.921  17.664  0.0806 -0.2588  0.1300
 1262POPC   C1B15141  18.731   5.538  18.704 -0.3715 -0.1469  0.1151
 1262POPC   C2B15142  18.781   5.604  18.246  0.0175 -0.4715 -0.0783
 1262POPC   C3B15143  18.762   5.708  17.800  0.1918  0.1337 -0.1699
 1262POPC   C4B15144  18.604   5.481  17.403  0.2778 -0.2210  0.0540
 1263POPC   NC315145  16.254  18.088  19.269  0.0246  0.0764  0.0404
 1263POPC   PO415146  16.445  17.766  19.170 -0.0714  0.2226  0.2929
 1263POPC   GL115147  16.665  17.787  18.838  0.1794  0.0700 -0.0590
 1263POPC   GL215148  16.730  18.071  18.837 -0.2659  0.2030 -0.1931
 1263POPC   C1A15149  16.667  17.902  18.367  0.3105 -0.2259  0.1875
 1263POPC   D2A15150  16.626  17.751  17.950  0.0544  0.1193  0.1748
 1263POPC   C3A15151  16.658  17.881  17.447 -0.2474 -0.3134 -0.2963
 1263POPC   C4A15152  16.662  17.975  16.993 -0.1593 -0.2032 -0.0913
 1263POPC   C1B15153  16.306  18.272  18.735 -0.0297  0.4108 -0.1526
 1263POPC   C2B15154  15.962  18.302  18.394 -0.1629 -0.3280  0.0613
 1263POPC   C3B15155  15.946  18.403  17.940  0.3121 -0.0304 -0.2315
 1263POPC   C4B15156  16.027  18.613  17.535 -0.1374 -0.0513 -0.1046
 1264POPC   NC315157  10.245  18.236  19.501  0.0187  0.2956  0.0344
 1264POPC   PO415158  10.633  18.185  19.404 -0.0529 -0.0413  0.2372
 1264POPC   GL115159  10.755  18.267  19.041 -0.0470 -0.1541 -0.2022
 1264POPC   GL215160  10.555  18.533  19.020 -0.1989 -0.2332 -0.4842
 1264POPC   C1A15161  10.968  18.474  18.669  0.2463  0.2579 -0.2324
 1264POPC   D2A15162  10.852  18.688  18.284 -0.0148 -0.0906  0.0642
 1264POPC   C3A15163  10.975  19.159  18.201  0.0304  0.2671  0.4480
 1264POPC   C4A15164  11.413  19.266  18.372  0.1381 -0.2489  0.1318
 1264POPC   C1B15165  10.425  18.698  18.642 -0.1500 -0.0747  0.1837
 1264POPC   C2B15166  10.361  18.828  18.201  0.3004  0.0900 -0.3916
 1264POPC   C3B15167  10.192  19.007  17.793 -0.0265  0.2423 -0.3081
 1264POPC   C4B15168  10.022  19.005  17.388 -0.2658  0.0505 -0.0029
 1265POPC   NC315169  29.750  11.357  19.312 -0.0839  0.2503 -0.1656
 1265POPC   PO415170  30.042  11.060  19.277 -0.2720  0.2434  0.1693
 1265POPC   GL115171  29.861  10.935  18.945  0.1424  0.1543 -0.0420
 1265POPC   GL215172  29.830  11.251  18.843  0.2024  0.0098  0.2439
 1265POPC   C1A15173  30.106  10.767  18.635 -0.2429 -0.3011  0.1891
 1265POPC   D2A15174  30.290  10.676  18.243  0.2409 -0.1651 -0.1083
 1265POPC   C3A15175  29.920  10.812  18.011 -0.1608 -0.3120  0.1733
 1265POPC   C4A15176  29.616  10.528  17.816 -0.0749  0.0751 -0.1908
 1265POPC   C1B15177  29.660  11.251  18.410  0.0095  0.3106 -0.0071
 1265POPC   C2B15178  29.778  11.288  17.969 -0.0708 -0.0936  0.2085
 1265POPC   C3B15179  29.697  11.418  17.531  0.0719  0.1622  0.1288
 1265POPC   C4B15180  29.495  11.288  17.165 -0.0927 -0.0244  0.2536
 1266POPC   NC315181  11.434  14.650  19.114 -0.2978 -0.0187 -0.1810
 1266POPC   PO415182  11.176  14.912  19.128 -0.0249 -0.3905 -0.0531
 1266POPC   GL115183  11.157  14.629  18.768  0.2122 -0.0123 -0.0529
 1266POPC   GL215184  10.895  14.752  18.675  0.0634  0.0037  0.0771
 1266POPC   C1A15185  11.401  14.446  18.374  0.1237 -0.0034 -0.2061
 1266POPC   D2A15186  11.428  14.321  17.899 -0.2205  0.0952 -0.5032
 1266POPC   C3A15187  11.755  14.062  17.709 -0.1026  0.2119  0.1231
 1266POPC   C4A15188  12.189  13.939  17.576 -0.0061 -0.1514 -0.0964
 1266POPC   C1B15189  11.051  14.886  18.207  0.2254 -0.0437 -0.0097
 1266POPC   C2B15190  11.473  14.875  18.039  0.2155 -0.1934 -0.2077
 1266POPC   C3B15191  11.828  14.859  17.679  0.0504  0.3355 -0.2182
 1266POPC   C4B15192  11.954  14.611  17.280 -0.0910  0.1737  0.0815
 1267POPC   NC315193  30.395   3.536  19.455 -0.3082  0.3674  0.0783
 1267POPC   PO415194  30.052   3.418  19.481 -0.3672 -0.1820  0.0782
 1267POPC   GL115195  29.907   3.371  19.120 -0.1667 -0.0245 -0.3754
 1267POPC   GL215196  29.761   3.094  19.105  0.2193  0.0385 -0.1933
 1267POPC   C1A15197  30.196   3.488  18.754 -0.1369  0.0801 -0.1176
 1267POPC   D2A15198  30.013   3.450  18.324 -0.3323 -0.1748  0.1185
 1267POPC   C3A15199  30.377   3.438  18.056 -0.2984 -0.1677 -0.0750
 1267POPC   C4A15200  30.687   3.629  17.844 -0.0567  0.1279 -0.2512
 1267POPC   C1B15201  29.573   2.747  18.907 -0.0352  0.2098  0.1354
 1267POPC   C2B15202  29.281   2.679  18.556  0.0074 -0.0703 -0.0330
 1267POPC   C3B15203  29.111   2.377  18.314 -0.2455 -0.2702 -0.1443
 1267POPC   C4B15204  28.790   2.229  17.971  0.2885  0.1508  0.2083
 1268POPC   NC315205  13.173  31.432  18.486 -0.0280  0.1238  0.0212
 1268POPC   PO415206  13.398  31.395  18.836 -0.1520 -0.0703 -0.0555
 1268POPC   GL115207  13.501  31.120  18.591  0.3397 -0.3113 -0.2521
 1268POPC   GL215208  13.288  30.928  18.559 -0.0780  0.1393  0.0950
 1268POPC   C1A15209  13.436  31.018  18.135  0.0452  0.1290  0.0219
 1268POPC   D2A15210  13.685  30.879  17.715  0.2692 -0.1014  0.3550
 1268POPC   C3A15211  13.860  30.502  17.509  0.1949  0.1951  0.0218
 1268POPC   C4A15212  13.994  30.405  17.044 -0.2230 -0.1491  0.1980
 1268POPC   C1B15213  13.041  30.695  18.216 -0.0810  0.0964 -0.2845
 1268POPC   C2B15214  13.084  30.942  17.803 -0.0764 -0.0212 -0.0956
 1268POPC   C3B15215  13.234  30.916  17.390 -0.1425  0.3271 -0.0658
 1268POPC   C4B15216  13.600  30.887  17.157 -0.2645 -0.1485  0.0981
 1269POPC   NC315217  10.309   2.640  19.315 -0.1677  0.0043 -0.1120
 1269POPC   PO415218  10.311   2.952  19.085 -0.3196  0.0697 -0.1654
 1269POPC   GL115219  10.127   2.717  18.852  0.0406 -0.0139  0.0277
 1269POPC   GL215220  10.022   2.471  18.927 -0.0653  0.0482 -0.0433
 1269POPC   C1A15221   9.857   2.512  18.461 -0.0868 -0.1942 -0.1668
 1269POPC   D2A15222   9.760   2.415  17.999  0.3561  0.0176  0.0995
 1269POPC   C3A15223   9.649   1.996  17.802  0.2035 -0.1662  0.1027
 1269POPC   C4A15224   9.391   1.563  17.746 -0.0054 -0.0355  0.1067
 1269POPC   C1B15225   9.718   2.133  18.840  0.4568 -0.0201  0.2088
 1269POPC   C2B15226   9.513   1.811  18.602 -0.2615 -0.1326 -0.0586
 1269POPC   C3B15227   9.569   1.622  18.217 -0.0087 -0.1543 -0.1340
 1269POPC   C4B15228   9.832   1.313  17.987  0.3008  0.2568  0.0748
 1270POPC   NC315229  21.507  14.520  19.173 -0.0949 -0.0635  0.1918
 1270POPC   PO415230  21.708  14.749  18.935 -0.0377 -0.0121 -0.2064
 1270POPC   GL115231  21.853  14.872  18.533 -0.0216  0.0210 -0.0961
 1270POPC   GL215232  22.090  14.959  18.712 -0.1273  0.0851  0.1238
 1270POPC   C1A15233  21.865  15.181  18.136  0.1170 -0.3186  0.0878
 1270POPC   D2A15234  21.922  15.167  17.696 -0.2130 -0.1272  0.1022
 1270POPC   C3A15235  22.261  15.418  17.533  0.1834  0.0010  0.1564
 1270POPC   C4A15236  22.493  15.642  17.177  0.0696 -0.0515  0.1343
 1270POPC   C1B15237  22.343  14.942  18.303  0.4130 -0.0523 -0.3078
 1270POPC   C2B15238  22.386  15.030  17.871 -0.1511 -0.1461  0.1227
 1270POPC   C3B15239  22.256  14.901  17.414 -0.0366  0.1572 -0.5992
 1270POPC   C4B15240  21.985  14.774  17.020 -0.2191 -0.0941 -0.1087
 1271POPC   NC315241   1.238  25.008  19.616  0.1092  0.3904 -0.0969
 1271POPC   PO415242   1.113  25.200  19.320  0.0183  0.1131 -0.0263
 1271POPC   GL115243   1.165  25.058  18.913 -0.1043 -0.0973 -0.2284
 1271POPC   GL215244   1.373  25.037  18.809 -0.1297 -0.0417 -0.2440
 1271POPC   C1A15245   0.971  25.281  18.571 -0.0620 -0.1035 -0.4387
 1271POPC   D2A15246   1.001  25.440  18.085 -0.2727  0.0591 -0.1400
 1271POPC   C3A15247   1.349  25.613  17.809  0.4468 -0.3171 -0.1150
 1271POPC   C4A15248   1.756  25.830  17.676  0.3259 -0.1104  0.1477
 1271POPC   C1B15249   1.578  25.018  18.450  0.1094 -0.1962  0.0983
 1271POPC   C2B15250   1.937  24.916  18.186  0.1590  0.2624  0.2304
 1271POPC   C3B15251   2.307  25.140  18.087 -0.0139  0.3457  0.1707
 1271POPC   C4B15252   2.593  25.150  17.716  0.1948  0.1505 -0.0583
 1272POPC   NC315253   2.605   4.147  19.208 -0.0259  0.2933 -0.1553
 1272POPC   PO415254   2.397   4.177  19.534  0.0347 -0.0279 -0.0198
 1272POPC   GL115255   2.437   4.529  19.626 -0.1140  0.2574 -0.5341
 1272POPC   GL215256   2.466   4.636  19.392 -0.2563 -0.0340 -0.1032
 1272POPC   C1A15257   2.148   4.901  19.710 -0.1170  0.4716 -0.3688
 1272POPC   D2A15258   1.968   5.286  19.513 -0.0805  0.1708 -0.0197
 1272POPC   C3A15259   1.628   5.236  19.179  0.2781 -0.0994  0.2125
 1272POPC   C4A15260   1.446   5.183  18.723 -0.0096 -0.0269 -0.1954
 1272POPC   C1B15261   2.589   4.719  19.004 -0.2818  0.2367  0.0407
 1272POPC   C2B15262   2.625   4.825  18.532 -0.2518 -0.0971  0.2251
 1272POPC   C3B15263   2.498   5.001  18.156  0.1323 -0.1551 -0.1038
 1272POPC   C4B15264   2.453   5.230  17.746 -0.1235  0.0971 -0.1725
 1273POPC   NC315265   9.295  30.285  18.983 -0.4388 -0.0541 -0.1555
 1273POPC   PO415266   9.087  29.948  19.009 -0.0229  0.3765 -0.0077
 1273POPC   GL115267   9.080  29.776  18.555 -0.1160  0.1088  0.0995
 1273POPC   GL215268   9.352  29.917  18.536 -0.1147  0.0516  0.2644
 1273POPC   C1A15269   9.078  29.896  18.109  0.1181 -0.0180  0.2568
 1273POPC   D2A15270   8.900  30.233  17.814  0.0751 -0.0651 -0.3211
 1273POPC   C3A15271   8.553  30.150  17.477 -0.0734  0.1274 -0.1764
 1273POPC   C4A15272   8.496  30.096  17.066  0.0272 -0.1576  0.2382
 1273POPC   C1B15273   9.708  29.758  18.262  0.1449 -0.1691 -0.1693
 1273POPC   C2B15274   9.658  29.588  17.842 -0.1231  0.0143  0.1945
 1273POPC   C3B15275   9.481  29.583  17.400 -0.4652  0.3787  0.1411
 1273POPC   C4B15276   9.494  29.617  16.894  0.0207  0.3625  0.0756
 1274POPC   NC315277   3.096  23.420  19.199 -0.2904 -0.5466  0.0639
 1274POPC   PO415278   3.314  23.221  19.457 -0.0600  0.2939 -0.2885
 1274POPC   GL115279   3.512  23.133  19.039  0.2995  0.1792 -0.2071
 1274POPC   GL215280   3.416  23.209  18.776 -0.0178 -0.0590  0.3708
 1274POPC   C1A15281   3.834  22.997  18.723 -0.0087 -0.0622  0.2376
 1274POPC   D2A15282   3.898  23.110  18.302  0.1987  0.2533  0.2439
 1274POPC   C3A15283   4.155  23.104  17.900 -0.2260 -0.0308 -0.0591
 1274POPC   C4A15284   4.235  22.991  17.504 -0.3096  0.1564  0.0559
 1274POPC   C1B15285   3.154  23.148  18.378 -0.0793 -0.3517  0.0509
 1274POPC   C2B15286   3.160  23.250  17.908  0.0410 -0.1050  0.0017
 1274POPC   C3B15287   3.215  23.206  17.457 -0.3461  0.2915  0.1140
 1274POPC   C4B15288   3.188  23.055  17.000 -0.2766 -0.2200 -0.1205
 1275POPC   NC315289   4.989   9.779  18.826  0.0157 -0.1118  0.2934
 1275POPC   PO415290   4.608   9.691  18.781  0.0351 -0.0595  0.0583
 1275POPC   GL115291   4.654   9.551  18.437 -0.1487 -0.2228 -0.0461
 1275POPC   GL215292   4.950   9.443  18.443  0.1836  0.2842  0.0770
 1275POPC   C1A15293   4.483   9.273  18.098  0.0813  0.1449  0.0196
 1275POPC   D2A15294   4.391   8.932  17.867  0.2137  0.3155 -0.3901
 1275POPC   C3A15295   4.623   8.711  17.536 -0.4048 -0.0261  0.3294
 1275POPC   C4A15296   5.059   8.537  17.481 -0.0774  0.0556  0.2693
 1275POPC   C1B15297   4.930   9.425  17.918  0.1157 -0.0113 -0.2793
 1275POPC   C2B15298   4.641   9.296  17.576 -0.0053 -0.0359  0.0037
 1275POPC   C3B15299   4.561   9.117  17.185  0.0508 -0.2832 -0.0431
 1275POPC   C4B15300   4.430   8.913  16.825  0.1706  0.1510  0.0464
 1276POPC   NC315301  23.897  20.747  19.439  0.3630  0.1187  0.1469
 1276POPC   PO415302  23.902  21.092  19.274 -0.0641  0.0841 -0.1753
 1276POPC   GL115303  23.756  21.180  18.830  0.0558 -0.0311 -0.1429
 1276POPC   GL215304  23.877  20.951  18.718 -0.1265  0.0477 -0.1312
 1276POPC   C1A15305  23.739  21.283  18.383  0.0612 -0.1364 -0.0658
 1276POPC   D2A15306  23.890  21.098  18.017 -0.0479  0.0620 -0.0868
 1276POPC   C3A15307  23.503  21.047  17.729 -0.1520 -0.0287 -0.1974
 1276POPC   C4A15308  23.094  21.118  17.738  0.1858 -0.0825  0.0043
 1276POPC   C1B15309  24.132  20.837  18.332  0.0581 -0.0054 -0.2895
 1276POPC   C2B15310  24.063  20.668  17.862  0.0698 -0.1625 -0.1131
 1276POPC   C3B15311  23.709  20.620  17.503  0.2066 -0.0356  0.0518
 1276POPC   C4B15312  23.314  20.400  17.262  0.3309  0.4695 -0.2101
 1277POPC   NC315313  20.302   3.265  19.074  0.0676  0.0848 -0.1458
 1277POPC   PO415314  19.964   3.260  19.312 -0.0138 -0.2364  0.1628
 1277POPC   GL115315  19.990   2.945  19.044 -0.1985  0.0713  0.1537
 1277POPC   GL215316  20.013   3.021  18.776  0.2760 -0.1162 -0.0466
 1277POPC   C1A15317  19.662   2.595  18.880  0.0768 -0.0785  0.2818
 1277POPC   D2A15318  19.356   2.246  18.794 -0.1135 -0.0559 -0.4918
 1277POPC   C3A15319  19.326   2.151  18.354  0.0327  0.0192  0.0397
 1277POPC   C4A15320  19.331   1.889  18.045 -0.0784 -0.0409 -0.1195
 1277POPC   C1B15321  19.987   2.944  18.339 -0.2103  0.1316  0.1374
 1277POPC   C2B15322  19.531   2.953  18.079  0.0275 -0.2252  0.2871
 1277POPC   C3B15323  19.444   2.846  17.610  0.1036  0.0622 -0.0082
 1277POPC   C4B15324  19.688   2.994  17.276  0.3094 -0.0222  0.2334
 1278POPC   NC315325  28.996   1.102  19.354 -0.1063 -0.0658 -0.2410
 1278POPC   PO415326  28.646   1.101  19.543 -0.0360  0.0235 -0.1472
 1278POPC   GL115327  28.556   1.212  19.159  0.1723 -0.0303  0.0672
 1278POPC   GL215328  28.635   0.957  19.012 -0.0686 -0.0125  0.0188
 1278POPC   C1A15329  28.747   1.569  18.892  0.0571  0.4307 -0.1099
 1278POPC   D2A15330  28.882   1.943  18.636  0.0430  0.0953 -0.1099
 1278POPC   C3A15331  29.081   1.880  18.229  0.0616 -0.0483  0.4971
 1278POPC   C4A15332  29.341   2.079  17.936  0.1506  0.2201 -0.0483
 1278POPC   C1B15333  28.794   0.809  18.560 -0.3190  0.3112  0.1187
 1278POPC   C2B15334  28.852   0.842  18.088 -0.1758  0.2139  0.2045
 1278POPC   C3B15335  28.776   0.777  17.633  0.1199  0.0581 -0.1110
 1278POPC   C4B15336  29.013   0.476  17.383 -0.1162  0.1106  0.1979
 1279POPC   NC315337  17.435  10.824  19.150  0.1976  0.0100  0.2558
 1279POPC   PO415338  17.682  10.499  19.124 -0.1653 -0.1560 -0.0695
 1279POPC   GL115339  17.865  10.513  18.821  0.2199 -0.0401  0.2457
 1279POPC   GL215340  18.155  10.536  18.844 -0.2727 -0.1288  0.1044
 1279POPC   C1A15341  17.902  10.685  18.341  0.0164 -0.1806  0.3493
 1279POPC   D2A15342  17.729  10.765  17.846 -0.4678 -0.4654  0.1117
 1279POPC   C3A15343  17.998  11.095  17.649 -0.0762  0.1648 -0.0751
 1279POPC   C4A15344  18.159  11.139  17.213  0.1118  0.0439 -0.1452
 1279POPC   C1B15345  18.289  10.293  18.473  0.0527  0.2040 -0.0597
 1279POPC   C2B15346  18.426  10.287  18.073  0.0926  0.1261  0.0420
 1279POPC   C3B15347  18.483  10.411  17.615 -0.1518  0.0679 -0.1433
 1279POPC   C4B15348  18.445  10.720  17.257 -0.2908  0.1366  0.0806
 1280POPC   NC315349  14.027  22.016  19.396  0.1369 -0.1268 -0.2018
 1280POPC   PO415350  14.397  22.128  19.470 -0.2889 -0.2435 -0.0148
 1280POPC   GL115351  14.533  21.873  19.136 -0.2306 -0.1078 -0.2247
 1280POPC   GL215352  14.310  21.755  19.022  0.1409  0.0889 -0.1482
 1280POPC   C1A15353  14.646  21.976  18.708  0.3114 -0.0948 -0.0980
 1280POPC   D2A15354  14.781  22.345  18.429  0.2867 -0.1183  0.4244
 1280POPC   C3A15355  14.619  22.229  17.982 -0.2671  0.2624  0.0783
 1280POPC   C4A15356  14.630  22.176  17.549  0.3124  0.0522  0.0958
 1280POPC   C1B15357  14.231  21.834  18.576 -0.0508 -0.1214 -0.0465
 1280POPC   C2B15358  14.201  21.968  18.131  0.4285 -0.0978 -0.1794
 1280POPC   C3B15359  14.061  21.916  17.722 -0.2169 -0.0689  0.4039
 1280POPC   C4B15360  14.170  22.044  17.302  0.1416 -0.1129  0.0747
 1281POPC   NC315361  16.916   2.816  19.273 -0.2195 -0.0240  0.2101
 1281POPC   PO415362  16.540   2.701  19.233  0.0443 -0.2101  0.0951
 1281POPC   GL115363  16.283   2.564  18.995 -0.3204  0.0061  0.1297
 1281POPC   GL215364  16.345   2.330  18.834  0.1779 -0.0204 -0.2400
 1281POPC   C1A15365  16.083   2.789  18.645 -0.0694 -0.1153  0.3137
 1281POPC   D2A15366  15.910   3.145  18.377 -0.0831  0.1353 -0.0271
 1281POPC   C3A15367  15.925   3.126  17.960  0.1787  0.0485  0.0811
 1281POPC   C4A15368  15.786   3.481  17.665  0.2134 -0.0165 -0.0979
 1281POPC   C1B15369  16.456   2.509  18.476  0.1750  0.0336 -0.1150
 1281POPC   C2B15370  16.601   2.553  18.096 -0.2702 -0.1596  0.2193
 1281POPC   C3B15371  16.766   2.303  17.697  0.1253 -0.4679  0.4682
 1281POPC   C4B15372  16.926   2.309  17.255 -0.0922  0.2058 -0.2948
 1282POPC   NC315373  28.651  20.578  19.044 -0.0374 -0.0145  0.2722
 1282POPC   PO415374  28.273  20.480  19.014  0.0906 -0.3826 -0.0510
 1282POPC   GL115375  28.310  20.250  18.701  0.1749 -0.2286 -0.1624
 1282POPC   GL215376  28.503  20.433  18.468  0.1737 -0.1336 -0.1443
 1282POPC   C1A15377  28.099  20.240  18.289  0.1506  0.3159 -0.2865
 1282POPC   D2A15378  27.956  20.142  17.863  0.0106  0.0284 -0.0599
 1282POPC   C3A15379  28.204  20.061  17.431 -0.2269  0.3852  0.1168
 1282POPC   C4A15380  28.381  20.001  16.986 -0.0505  0.2537  0.1988
 1282POPC   C1B15381  28.481  20.299  18.011 -0.1030 -0.1583  0.1144
 1282POPC   C2B15382  28.332  20.492  17.633 -0.1662  0.1306  0.0848
 1282POPC   C3B15383  28.209  20.456  17.145 -0.3756 -0.1905 -0.2027
 1282POPC   C4B15384  27.905  20.203  16.957 -0.1705  0.1005  0.2333
 1283POPC   NC315385  30.995   4.157  19.649 -0.2003 -0.2524  0.0175
 1283POPC   PO415386  30.628   4.257  19.509  0.1971  0.1784 -0.0333
 1283POPC   GL115387  30.726   3.904  19.294 -0.0123  0.0890 -0.0290
 1283POPC   GL215388  30.963   3.958  19.163  0.2565 -0.2597  0.1059
 1283POPC   C1A15389  30.719   3.580  18.977  0.1589  0.0165 -0.0199
 1283POPC   D2A15390  30.787   3.225  18.753 -0.0891  0.0103  0.0544
 1283POPC   C3A15391  30.614   3.076  18.440 -0.1694 -0.0563  0.0015
 1283POPC   C4A15392  30.269   2.914  18.161 -0.0309 -0.1662  0.0346
 1283POPC   C1B15393  31.000   4.048  18.701  0.1249 -0.1055 -0.0468
 1283POPC   C2B15394  30.944   4.160  18.277 -0.1915  0.0360 -0.1870
 1283POPC   C3B15395  30.893   4.188  17.852 -0.4130 -0.1773 -0.2473
 1283POPC   C4B15396  31.218   4.196  17.485  0.3082 -0.2420  0.0708
 1284POPC   NC315397  25.903   7.862  19.583 -0.3331 -0.1654 -0.3035
 1284POPC   PO415398  26.048   8.221  19.458 -0.1160 -0.0997  0.2580
 1284POPC   GL115399  26.102   8.029  19.036  0.0538  0.3290  0.3781
 1284POPC   GL215400  26.036   8.268  18.832 -0.0668  0.1720 -0.1706
 1284POPC   C1A15401  26.349   7.904  18.652 -0.4679  0.1491  0.0102
 1284POPC   D2A15402  26.417   7.527  18.358 -0.1935 -0.1075  0.0095
 1284POPC   C3A15403  26.445   7.697  17.902  0.2752  0.3222 -0.2815
 1284POPC   C4A15404  26.335   7.996  17.610 -0.0321  0.2786 -0.1456
 1284POPC   C1B15405  25.984   8.230  18.395 -0.2373  0.2026  0.0030
 1284POPC   C2B15406  26.142   8.315  17.975  0.0810  0.2628 -0.2289
 1284POPC   C3B15407  25.923   8.316  17.632  0.1650 -0.0685 -0.1737
 1284POPC   C4B15408  25.426   8.308  17.558 -0.2158 -0.1516  0.3086
 1285POPC   NC315409   4.830  11.920  19.348  0.0992 -0.0217 -0.0091
 1285POPC   PO415410   4.456  11.928  19.484 -0.0857 -0.1388  0.1576
 1285POPC   GL115411   4.524  12.178  19.101  0.0224  0.2329  0.2851
 1285POPC   GL215412   4.507  11.966  18.888 -0.2671 -0.2244  0.0638
 1285POPC   C1A15413   4.455  12.442  18.708  0.1062  0.0265 -0.2114
 1285POPC   D2A15414   4.602  12.559  18.230  0.0454  0.1274 -0.0167
 1285POPC   C3A15415   4.598  12.718  17.775 -0.3915  0.0660 -0.1310
 1285POPC   C4A15416   4.220  12.616  17.515  0.3031  0.0799 -0.0029
 1285POPC   C1B15417   4.528  11.984  18.428 -0.0016 -0.2279 -0.1468
 1285POPC   C2B15418   4.467  11.993  17.998  0.0990  0.3656 -0.1768
 1285POPC   C3B15419   4.734  12.228  17.729  0.0102  0.1816 -0.1628
 1285POPC   C4B15420   5.034  12.495  17.393  0.1215 -0.0776  0.1059
 1286POPC   NC315421  20.352  27.241  19.384  0.2857  0.1342 -0.1762
 1286POPC   PO415422  19.943  27.289  19.336 -0.2698 -0.3430  0.0337
 1286POPC   GL115423  19.729  27.254  18.983 -0.2301  0.1689 -0.0534
 1286POPC   GL215424  19.931  27.395  18.761  0.2616  0.2557  0.4210
 1286POPC   C1A15425  19.310  27.238  18.782  0.3830  0.0869 -0.0243
 1286POPC   D2A15426  18.937  26.989  18.724  0.1988 -0.2556  0.2339
 1286POPC   C3A15427  18.887  26.679  18.423  0.3987  0.0497  0.1413
 1286POPC   C4A15428  18.862  26.284  18.236  0.0879 -0.3178 -0.1785
 1286POPC   C1B15429  19.958  27.347  18.292  0.1348 -0.0563 -0.2482
 1286POPC   C2B15430  19.853  27.324  17.876 -0.2417  0.2145 -0.0780
 1286POPC   C3B15431  19.739  27.570  17.496  0.2288  0.0368  0.1859
 1286POPC   C4B15432  19.468  27.489  17.095 -0.0321  0.0558 -0.0660
 1287POPC   NC315433  30.919   0.683  19.879  0.0308 -0.0098  0.1410
 1287POPC   PO415434  31.139   0.536  19.573  0.2118  0.4121 -0.1777
 1287POPC   GL115435  30.973   0.667  19.226 -0.2012  0.0063  0.0204
 1287POPC   GL215436  30.961   0.938  19.127 -0.1615  0.2611  0.2072
 1287POPC   C1A15437  30.693   0.541  18.882  0.0163 -0.3291 -0.0392
 1287POPC   D2A15438  30.547   0.523  18.505  0.3099 -0.2212  0.1600
 1287POPC   C3A15439  30.104   0.690  18.275 -0.2757  0.0275  0.1160
 1287POPC   C4A15440  29.635   0.586  18.291  0.2483  0.0962 -0.0506
 1287POPC   C1B15441  30.675   1.180  18.901 -0.2781 -0.0277 -0.0996
 1287POPC   C2B15442  30.402   1.486  18.580  0.0158 -0.1782 -0.2088
 1287POPC   C3B15443  30.134   1.651  18.220 -0.0994  0.0206  0.3572
 1287POPC   C4B15444  30.030   1.496  17.760  0.1468 -0.0077 -0.1322
 1288POPC   NC315445  21.673  21.207  19.284 -0.3202  0.1692  0.0406
 1288POPC   PO415446  21.842  21.515  19.390 -0.0586  0.0149 -0.0198
 1288POPC   GL115447  21.884  21.604  19.034 -0.1291  0.2572 -0.4341
 1288POPC   GL215448  21.933  21.870  19.065 -0.0349  0.1152 -0.0993
 1288POPC   C1A15449  21.812  21.426  18.603  0.0471  0.1346 -0.0143
 1288POPC   D2A15450  21.822  21.342  18.153  0.0452  0.0613 -0.1220
 1288POPC   C3A15451  21.673  21.030  17.759 -0.1798  0.1824 -0.2291
 1288POPC   C4A15452  21.729  20.941  17.382 -0.2400  0.1914  0.1750
 1288POPC   C1B15453  22.119  21.848  18.627  0.0253 -0.1077 -0.1107
 1288POPC   C2B15454  22.075  21.763  18.233 -0.0428 -0.2575 -0.2368
 1288POPC   C3B15455  22.040  21.908  17.778  0.0714 -0.0286 -0.0987
 1288POPC   C4B15456  21.932  22.224  17.447 -0.1044  0.0227 -0.2241
 1289POPC   NC315457  23.270   0.521  19.030  0.2303  0.2630  0.1479
 1289POPC   PO415458  23.555   0.290  19.188  0.0372 -0.2149 -0.0428
 1289POPC   GL115459  23.609   0.250  18.825 -0.0111  0.1211 -0.0113
 1289POPC   GL215460  23.671  -0.075  18.751  0.1378 -0.1353 -0.0354
 1289POPC   C1A15461  23.439   0.469  18.413 -0.2501 -0.0407  0.1490
 1289POPC   D2A15462  23.570   0.421  17.959  0.1083  0.1677 -0.0702
 1289POPC   C3A15463  23.901   0.646  17.777 -0.1921 -0.0725 -0.1318
 1289POPC   C4A15464  24.319   0.905  17.725 -0.1921  0.0105  0.0983
 1289POPC   C1B15465  23.688  -0.007  18.295  0.3178 -0.0268 -0.0733
 1289POPC   C2B15466  23.890  -0.081  17.883  0.1532  0.1942 -0.2393
 1289POPC   C3B15467  23.862  -0.434  17.554  0.0665  0.0589 -0.0544
 1289POPC   C4B15468  23.906  -0.829  17.334 -0.1454  0.0741  0.1809
 1290POPC   NC315469   5.086  10.967  18.934 -0.1510 -0.5157 -0.2894
 1290POPC   PO415470   4.703  11.062  18.988 -0.0710 -0.4855 -0.2502
 1290POPC   GL115471   4.599  11.359  18.681  0.1155  0.2678  0.2160
 1290POPC   GL215472   4.371  11.473  18.781  0.1700  0.3534 -0.1908
 1290POPC   C1A15473   4.698  11.553  18.291 -0.1914 -0.2505 -0.0070
 1290POPC   D2A15474   4.977  11.588  17.909  0.1665 -0.0378  0.1971
 1290POPC   C3A15475   4.850  11.801  17.483  0.0523 -0.3244 -0.0817
 1290POPC   C4A15476   4.816  12.131  17.189  0.0611  0.2380 -0.2370
 1290POPC   C1B15477   4.268  11.149  18.444 -0.0795 -0.0851 -0.3766
 1290POPC   C2B15478   4.076  11.029  18.011  0.2615  0.2295 -0.0338
 1290POPC   C3B15479   3.702  10.922  17.711 -0.1867  0.2838  0.1897
 1290POPC   C4B15480   3.335  11.123  17.441 -0.4676 -0.0096  0.1625
 1291POPC   NC315481  28.683  16.154  18.940 -0.3843  0.1865 -0.2293
 1291POPC   PO415482  28.880  16.035  19.233 -0.2392  0.0793 -0.1049
 1291POPC   GL115483  29.173  16.038  18.945 -0.3244 -0.2759  0.4349
 1291POPC   GL215484  29.176  16.320  18.951  0.0662 -0.0100  0.0736
 1291POPC   C1A15485  28.900  16.044  18.551  0.0082  0.1016 -0.1055
 1291POPC   D2A15486  28.912  16.022  18.110 -0.0567  0.1186 -0.0554
 1291POPC   C3A15487  28.926  15.861  17.705  0.1707 -0.0536 -0.0655
 1291POPC   C4A15488  28.786  15.575  17.405 -0.2408  0.0755  0.3058
 1291POPC   C1B15489  29.476  16.256  18.598 -0.1536  0.2890  0.0837
 1291POPC   C2B15490  29.562  16.294  18.144  0.1010  0.0244  0.1682
 1291POPC   C3B15491  29.646  16.549  17.751  0.0412 -0.2644 -0.2208
 1291POPC   C4B15492  29.972  16.456  17.465  0.2128  0.0166 -0.1632
 1292POPC   NC315493   3.075   9.305  19.024 -0.3206 -0.3087  0.4945
 1292POPC   PO415494   3.476   9.251  19.090 -0.0170 -0.0096 -0.1139
 1292POPC   GL115495   3.374   9.538  18.758  0.1757  0.1353 -0.0022
 1292POPC   GL215496   3.339   9.228  18.589 -0.0811 -0.3175 -0.0716
 1292POPC   C1A15497   3.588   9.673  18.408 -0.0693  0.0359  0.3381
 1292POPC   D2A15498   3.860   9.988  18.141 -0.0679 -0.0853  0.1410
 1292POPC   C3A15499   3.677  10.086  17.743  0.1383 -0.1697 -0.0584
 1292POPC   C4A15500   3.221  10.113  17.594  0.2200 -0.2195  0.0645
 1292POPC   C1B15501   3.578   9.224  18.172  0.3509  0.1987 -0.0136
 1292POPC   C2B15502   3.915   9.082  17.909 -0.0411 -0.1328  0.1136
 1292POPC   C3B15503   4.149   9.199  17.517  0.1105  0.1946 -0.2052
 1292POPC   C4B15504   4.275   9.587  17.290  0.4267 -0.1258  0.0721
 1293POPC   NC315505   9.020  20.560  19.166  0.0114  0.2259  0.0938
 1293POPC   PO415506   9.054  20.735  19.564 -0.1200  0.2159 -0.0995
 1293POPC   GL115507   8.914  21.026  19.282 -0.4224 -0.1638  0.4777
 1293POPC   GL215508   9.162  21.020  19.082  0.0922  0.0968  0.0391
 1293POPC   C1A15509   8.715  21.317  18.933  0.3285  0.0895 -0.2858
 1293POPC   D2A15510   8.371  21.443  18.713  0.2339  0.0410  0.1614
 1293POPC   C3A15511   8.334  21.438  18.248 -0.0853  0.0489 -0.0779
 1293POPC   C4A15512   8.105  21.500  17.851 -0.0136 -0.0563  0.0499
 1293POPC   C1B15513   9.151  21.339  18.752  0.0627 -0.1046 -0.0015
 1293POPC   C2B15514   8.827  21.546  18.417  0.1097 -0.1248 -0.2286
 1293POPC   C3B15515   8.687  21.818  18.011  0.0278 -0.1711  0.1597
 1293POPC   C4B15516   8.636  21.514  17.736  0.2056 -0.1189  0.1265
 1294POPC   NC315517   5.385   9.382  19.313 -0.0044  0.0989 -0.0879
 1294POPC   PO415518   5.457   9.733  19.163  0.1078  0.3817  0.1351
 1294POPC   GL115519   5.494   9.709  18.711  0.3484 -0.4887 -0.0278
 1294POPC   GL215520   5.409  10.005  18.634 -0.0271  0.1603  0.4957
 1294POPC   C1A15521   5.381   9.612  18.249  0.0354  0.0424  0.0854
 1294POPC   D2A15522   5.464   9.278  17.900  0.2406  0.2776 -0.1628
 1294POPC   C3A15523   5.472   9.538  17.528  0.0780 -0.0380 -0.1427
 1294POPC   C4A15524   5.642   9.839  17.258 -0.0203  0.0494  0.0094
 1294POPC   C1B15525   5.467  10.230  18.278 -0.0569  0.2584 -0.1185
 1294POPC   C2B15526   5.394  10.519  17.948  0.1478 -0.1546 -0.1430
 1294POPC   C3B15527   5.341  10.656  17.511 -0.0196 -0.0107 -0.1637
 1294POPC   C4B15528   5.151  10.789  17.131  0.1091 -0.0933  0.1742
 1295POPC   NC315529   3.812  11.254  19.821 -0.0212 -0.1255  0.0291
 1295POPC   PO415530   4.173  11.331  19.637  0.4233  0.0525  0.4441
 1295POPC   GL115531   4.104  11.391  19.237 -0.1461  0.0057 -0.1509
 1295POPC   GL215532   4.098  11.644  19.162 -0.0367 -0.0145 -0.1518
 1295POPC   C1A15533   3.921  11.324  18.818 -0.1585 -0.2138 -0.1373
 1295POPC   D2A15534   3.577  11.146  18.538 -0.0353 -0.0820 -0.0582
 1295POPC   C3A15535   3.756  11.432  18.153 -0.2295 -0.0048 -0.0568
 1295POPC   C4A15536   3.831  11.396  17.689  0.0790 -0.1374  0.1347
 1295POPC   C1B15537   4.053  11.876  18.765  0.0159  0.0457 -0.2029
 1295POPC   C2B15538   3.678  12.086  18.522 -0.1042 -0.0696  0.1388
 1295POPC   C3B15539   3.539  11.950  18.097 -0.0469  0.1555 -0.0755
 1295POPC   C4B15540   3.436  11.811  17.621  0.1709  0.1282 -0.2281
 1296POPC   NC315541  28.045   7.256  19.502 -0.0994 -0.0161 -0.3631
 1296POPC   PO415542  28.112   7.500  19.193 -0.0792  0.1833  0.2526
 1296POPC   GL115543  28.226   7.414  18.830  0.1248 -0.0072 -0.0891
 1296POPC   GL215544  28.514   7.176  18.820  0.1973 -0.1001  0.0645
 1296POPC   C1A15545  28.163   7.699  18.493 -0.0584  0.3998 -0.1388
 1296POPC   D2A15546  28.212   8.143  18.322  0.0047  0.0111  0.2590
 1296POPC   C3A15547  28.096   7.990  17.892  0.0856  0.0103 -0.3566
 1296POPC   C4A15548  28.052   7.819  17.454 -0.0192  0.0326  0.0789
 1296POPC   C1B15549  28.505   7.167  18.339  0.2828  0.1417 -0.1182
 1296POPC   C2B15550  28.398   7.249  17.916  0.0117 -0.2015 -0.2119
 1296POPC   C3B15551  28.158   7.315  17.517  0.1193  0.0576 -0.0349
 1296POPC   C4B15552  28.106   7.275  17.027  0.1657 -0.2550 -0.0225
 1297POPC   NC315553   9.010  24.036  18.861  0.0411  0.0003 -0.1426
 1297POPC   PO415554   8.890  23.805  19.173  0.4092  0.1828 -0.0218
 1297POPC   GL115555   8.846  23.581  18.889  0.2410  0.0161  0.2955
 1297POPC   GL215556   9.095  23.384  18.977  0.0508 -0.0298 -0.3778
 1297POPC   C1A15557   8.851  23.690  18.456 -0.2271  0.1425 -0.1133
 1297POPC   D2A15558   8.997  23.842  18.021  0.1358 -0.0238 -0.1952
 1297POPC   C3A15559   8.666  23.806  17.728  0.0333 -0.0094 -0.1472
 1297POPC   C4A15560   8.461  23.883  17.334  0.1743 -0.0397  0.1028
 1297POPC   C1B15561   9.287  23.510  18.599 -0.1266  0.0646  0.0018
 1297POPC   C2B15562   9.344  23.484  18.145 -0.2592  0.0012 -0.2837
 1297POPC   C3B15563   9.234  23.516  17.678 -0.3067 -0.1289  0.0503
 1297POPC   C4B15564   9.034  23.815  17.407 -0.4602 -0.0908  0.1071
 1298POPC   NC315565  28.148  16.311  19.208  0.1115 -0.3664  0.0330
 1298POPC   PO415566  28.250  15.948  19.057 -0.2495  0.0381  0.0430
 1298POPC   GL115567  28.450  15.720  18.685 -0.3277 -0.1063 -0.2250
 1298POPC   GL215568  28.678  15.676  18.815  0.0134 -0.0476 -0.3216
 1298POPC   C1A15569  28.465  15.919  18.269  0.0729 -0.1011  0.3332
 1298POPC   D2A15570  28.425  15.850  17.812  0.0354  0.0518 -0.3698
 1298POPC   C3A15571  28.584  16.132  17.471 -0.1052  0.0394 -0.0589
 1298POPC   C4A15572  28.771  16.546  17.313 -0.1847  0.0645  0.1059
 1298POPC   C1B15573  28.882  15.562  18.414 -0.0050 -0.0212 -0.2222
 1298POPC   C2B15574  29.071  15.555  18.037 -0.2286 -0.3866  0.1140
 1298POPC   C3B15575  29.162  15.391  17.598  0.0763  0.1948 -0.4835
 1298POPC   C4B15576  29.300  15.469  17.204 -0.0328  0.1463  0.2893
 1299POPC   NC315577  31.157  29.269  19.248  0.3136  0.1331 -0.2286
 1299POPC   PO415578  30.808  29.149  19.355  0.0428 -0.1241  0.0254
 1299POPC   GL115579  30.686  29.128  18.929 -0.3456  0.0586 -0.0650
 1299POPC   GL215580  30.900  28.980  18.846 -0.2528 -0.2702 -0.0986
 1299POPC   C1A15581  30.293  29.374  18.739  0.1889  0.0129  0.3990
 1299POPC   D2A15582  30.166  29.480  18.279 -0.2719  0.0912 -0.3142
 1299POPC   C3A15583  30.064  29.638  17.883  0.1640  0.1249 -0.1149
 1299POPC   C4A15584  30.007  29.524  17.423  0.4166 -0.4475  0.0559
 1299POPC   C1B15585  31.124  28.905  18.497  0.0354  0.5126  0.0478
 1299POPC   C2B15586  31.215  28.838  18.029 -0.4001 -0.4347 -0.0462
 1299POPC   C3B15587  31.453  28.920  17.582 -0.2267  0.1222 -0.2331
 1299POPC   C4B15588  31.900  28.929  17.429 -0.0638  0.2403  0.0013
 1300POPC   NC315589  25.361  24.742  19.087  0.1036 -0.0967 -0.3794
 1300POPC   PO415590  25.650  24.469  19.129 -0.2454  0.0113  0.0095
 1300POPC   GL115591  25.563  24.400  18.759 -0.1607 -0.0053 -0.0054
 1300POPC   GL215592  25.332  24.190  18.842  0.2321  0.0452  0.0425
 1300POPC   C1A15593  25.547  24.087  18.399  0.1212  0.0412  0.1728
 1300POPC   D2A15594  25.598  23.963  17.991  0.0036 -0.1973 -0.1661
 1300POPC   C3A15595  25.589  24.246  17.629  0.0960 -0.1824  0.0269
 1300POPC   C4A15596  25.814  24.583  17.401 -0.1205 -0.1958 -0.1655
 1300POPC   C1B15597  25.100  24.233  18.470 -0.4795  0.1643  0.0699
 1300POPC   C2B15598  25.217  24.357  18.018 -0.0135 -0.4429  0.0175
 1300POPC   C3B15599  25.043  24.193  17.578  0.1682  0.0820 -0.0792
 1300POPC   C4B15600  25.066  23.831  17.238 -0.0197  0.0660  0.3524
 1301POPC   NC315601   8.560  18.045  19.523 -0.0193 -0.0868 -0.2089
 1301POPC   PO415602   8.338  17.971  19.232 -0.0922 -0.0255  0.1423
 1301POPC   GL115603   8.373  17.816  18.897 -0.0006  0.1287 -0.1381
 1301POPC   GL215604   8.023  17.938  18.764 -0.0093 -0.3232 -0.0860
 1301POPC   C1A15605   8.378  17.492  18.533 -0.2732  0.1755 -0.2752
 1301POPC   D2A15606   8.362  17.346  18.083 -0.0017  0.0218  0.2174
 1301POPC   C3A15607   7.940  17.379  17.836 -0.2886  0.2047 -0.3395
 1301POPC   C4A15608   7.682  17.290  17.497  0.2474  0.1589 -0.0714
 1301POPC   C1B15609   8.150  17.886  18.321  0.1972  0.1068 -0.1342
 1301POPC   C2B15610   8.209  17.820  17.878 -0.2377 -0.0760  0.1406
 1301POPC   C3B15611   8.326  17.836  17.491 -0.1946 -0.1147 -0.2263
 1301POPC   C4B15612   8.094  18.081  17.148  0.2861 -0.0477 -0.0225
 1302POPC   NC315613  25.971  17.700  19.087 -0.0545  0.0863  0.3407
 1302POPC   PO415614  25.609  17.577  18.977  0.1540 -0.1756 -0.1647
 1302POPC   GL115615  25.478  17.767  18.677 -0.2262  0.2759 -0.0678
 1302POPC   GL215616  25.659  17.641  18.468  0.0911 -0.0336  0.0376
 1302POPC   C1A15617  25.234  17.836  18.271 -0.3541 -0.0684  0.2591
 1302POPC   D2A15618  25.003  17.783  17.899  0.2796  0.0013  0.1178
 1302POPC   C3A15619  25.164  17.501  17.567 -0.1122 -0.0472 -0.2267
 1302POPC   C4A15620  25.324  17.273  17.151  0.1309  0.2707  0.0069
 1302POPC   C1B15621  25.681  17.685  18.036  0.0370 -0.1760  0.3904
 1302POPC   C2B15622  25.729  17.544  17.530 -0.2166  0.0094 -0.0402
 1302POPC   C3B15623  25.786  17.401  17.084 -0.1591  0.0564 -0.1612
 1302POPC   C4B15624  25.506  17.473  16.709 -0.1250  0.1077 -0.1565
 1303POPC   NC315625   5.682   1.828  19.136 -0.0278  0.2126  0.1518
 1303POPC   PO415626   5.664   1.597  19.411 -0.0373 -0.2701  0.1744
 1303POPC   GL115627   5.801   1.350  19.085 -0.2817 -0.1924  0.0802
 1303POPC   GL215628   5.506   1.330  18.929  0.0055  0.0053  0.5327
 1303POPC   C1A15629   5.922   1.135  18.681  0.0034 -0.0475  0.4247
 1303POPC   D2A15630   6.027   0.920  18.300 -0.2017  0.3661 -0.1997
 1303POPC   C3A15631   5.903   0.971  17.817  0.1158  0.1416 -0.0421
 1303POPC   C4A15632   5.859   0.838  17.362 -0.2476  0.1283  0.4586
 1303POPC   C1B15633   5.522   1.329  18.501 -0.0565  0.3219  0.2461
 1303POPC   C2B15634   5.540   1.221  18.028 -0.0863 -0.0010 -0.1222
 1303POPC   C3B15635   5.456   1.082  17.625  0.2587  0.0319 -0.1854
 1303POPC   C4B15636   5.406   1.102  17.142  0.0745  0.0753  0.1763
 1304POPC   NC315637  16.131   2.667  19.514 -0.0165 -0.0261  0.0984
 1304POPC   PO415638  15.790   2.490  19.387 -0.2842 -0.2521 -0.0769
 1304POPC   GL115639  15.683   2.408  19.100  0.1176 -0.0079  0.0661
 1304POPC   GL215640  15.867   2.256  18.922  0.2039 -0.1074  0.0832
 1304POPC   C1A15641  15.551   2.665  18.667 -0.4248 -0.2442 -0.3721
 1304POPC   D2A15642  15.555   2.823  18.231  0.1727 -0.1174  0.0264
 1304POPC   C3A15643  15.717   2.719  17.800 -0.0065 -0.1148  0.2784
 1304POPC   C4A15644  16.018   2.731  17.435  0.1407  0.1009  0.2616
 1304POPC   C1B15645  15.952   2.322  18.483 -0.2050 -0.1708  0.0138
 1304POPC   C2B15646  16.079   2.568  18.105  0.1760 -0.1672  0.1597
 1304POPC   C3B15647  16.288   2.415  17.692  0.3074  0.0628  0.0131
 1304POPC   C4B15648  16.484   2.606  17.301 -0.0379 -0.2423  0.0544
 1305POPC   NC315649  20.969  25.866  19.418  0.2963  0.1111 -0.3370
 1305POPC   PO415650  20.694  25.731  19.142  0.3247  0.3200 -0.3412
 1305POPC   GL115651  20.577  25.410  18.822  0.4699  0.1041  0.4116
 1305POPC   GL215652  20.839  25.326  18.884 -0.0739 -0.2078  0.2418
 1305POPC   C1A15653  20.695  25.154  18.415 -0.1480  0.1096 -0.1516
 1305POPC   D2A15654  21.023  25.179  18.071  0.4752 -0.0818 -0.0290
 1305POPC   C3A15655  21.166  24.819  17.880 -0.2001 -0.0160 -0.0395
 1305POPC   C4A15656  21.516  24.783  17.511 -0.0677  0.3253 -0.1226
 1305POPC   C1B15657  21.110  25.019  18.644  0.0585  0.0963 -0.0934
 1305POPC   C2B15658  21.247  24.627  18.541  0.1686  0.2470 -0.2301
 1305POPC   C3B15659  21.388  24.459  18.130  0.1579  0.1082 -0.5449
 1305POPC   C4B15660  21.585  24.231  17.785  0.3892 -0.0696  0.0006
 1306POPC   NC315661  11.582  27.696  19.323 -0.2815  0.2692 -0.0974
 1306POPC   PO415662  11.284  27.950  19.409 -0.2153 -0.0445 -0.2396
 1306POPC   GL115663  11.159  27.793  19.036 -0.1763  0.1390 -0.0822
 1306POPC   GL215664  10.923  27.899  19.045 -0.3429 -0.1972  0.0904
 1306POPC   C1A15665  11.360  27.827  18.578 -0.1004  0.1263  0.0981
 1306POPC   D2A15666  11.623  27.986  18.236 -0.3169 -0.2686  0.0453
 1306POPC   C3A15667  11.506  28.213  17.826 -0.0731  0.0759  0.0466
 1306POPC   C4A15668  11.506  28.610  17.562  0.1037  0.0176 -0.0350
 1306POPC   C1B15669  10.955  28.122  18.590 -0.1400 -0.1169 -0.2408
 1306POPC   C2B15670  11.148  28.103  18.170 -0.0167 -0.1433 -0.2576
 1306POPC   C3B15671  11.287  27.781  17.867 -0.2967  0.1655  0.1433
 1306POPC   C4B15672  11.147  27.587  17.484  0.1066  0.4873 -0.0410
 1307POPC   NC315673  11.012  20.537  19.565 -0.1141 -0.3081 -0.1816
 1307POPC   PO415674  10.798  20.845  19.351  0.1960 -0.0273 -0.2544
 1307POPC   GL115675  10.730  20.795  18.922  0.0306 -0.1622 -0.1132
 1307POPC   GL215676  10.429  20.904  19.008 -0.1248  0.0472  0.2657
 1307POPC   C1A15677  10.466  20.750  18.521 -0.0988 -0.1031  0.0779
 1307POPC   D2A15678  10.564  20.786  18.032 -0.0718  0.1546 -0.0424
 1307POPC   C3A15679  10.647  20.688  17.611 -0.0677  0.2181 -0.1191
 1307POPC   C4A15680  10.744  20.625  17.163 -0.0675  0.1717  0.1122
 1307POPC   C1B15681  10.095  21.055  18.690  0.2664  0.2354 -0.0223
 1307POPC   C2B15682   9.870  21.314  18.368 -0.2819  0.0856 -0.0214
 1307POPC   C3B15683   9.625  21.243  17.949 -0.1900  0.2413 -0.0773
 1307POPC   C4B15684   9.400  21.060  17.540  0.0506 -0.1363  0.2428
 1308POPC   NC315685  29.350  30.237  19.460 -0.1474 -0.3286 -0.1495
 1308POPC   PO415686  28.956  30.407  19.421 -0.1843  0.3236 -0.1213
 1308POPC   GL115687  29.035  30.568  19.051 -0.1286 -0.0140 -0.0281
 1308POPC   GL215688  29.280  30.511  19.010 -0.0736 -0.1895  0.0187
 1308POPC   C1A15689  28.860  30.458  18.638 -0.3790 -0.2328  0.0622
 1308POPC   D2A15690  28.953  30.417  18.206 -0.2357  0.2005 -0.1018
 1308POPC   C3A15691  29.040  30.596  17.761 -0.1641  0.1168  0.1309
 1308POPC   C4A15692  29.206  30.958  17.582  0.0563  0.4440 -0.0205
 1308POPC   C1B15693  29.302  30.344  18.546 -0.2407  0.3170 -0.0092
 1308POPC   C2B15694  29.492  30.298  18.143 -0.0682 -0.1928  0.2367
 1308POPC   C3B15695  29.539  30.411  17.684  0.2168 -0.1205  0.2244
 1308POPC   C4B15696  29.267  30.361  17.355 -0.0186 -0.1903  0.1062
 1309POPC   NC315697  22.863   5.987  19.350 -0.2077 -0.1049  0.0370
 1309POPC   PO415698  22.580   5.807  19.563  0.0630  0.0123 -0.1279
 1309POPC   GL115699  22.476   5.850  19.134  0.0088 -0.2976 -0.0442
 1309POPC   GL215700  22.421   6.086  19.017 -0.1090 -0.2111 -0.1117
 1309POPC   C1A15701  22.549   5.600  18.780  0.1915  0.0712  0.0311
 1309POPC   D2A15702  22.570   5.515  18.343  0.2119  0.1301  0.0393
 1309POPC   C3A15703  22.417   5.265  17.942  0.0132 -0.1000  0.1248
 1309POPC   C4A15704  22.485   4.992  17.497  0.0940 -0.0639  0.0018
 1309POPC   C1B15705  22.237   6.195  18.599 -0.1270 -0.0249 -0.0469
 1309POPC   C2B15706  21.779   6.194  18.602 -0.1999  0.5026  0.0563
 1309POPC   C3B15707  21.332   6.286  18.581 -0.0583 -0.0075  0.1486
 1309POPC   C4B15708  21.051   6.259  18.214  0.1401  0.0087  0.0662
 1310POPC   NC315709  24.487  23.646  18.992 -0.1249  0.1845  0.0566
 1310POPC   PO415710  24.787  23.754  19.199  0.2026  0.1019 -0.1827
 1310POPC   GL115711  24.777  24.032  18.914  0.1790 -0.0633 -0.2535
 1310POPC   GL215712  24.720  23.888  18.620  0.3729  0.4043 -0.0167
 1310POPC   C1A15713  24.910  24.471  18.873 -0.0074 -0.2399  0.0434
 1310POPC   D2A15714  25.115  24.880  18.633 -0.0019  0.3229  0.1063
 1310POPC   C3A15715  25.151  24.901  18.236 -0.2159 -0.0942 -0.1101
 1310POPC   C4A15716  25.057  24.773  17.834 -0.1034  0.0889  0.3059
 1310POPC   C1B15717  24.681  24.075  18.182 -0.2350 -0.4344  0.1610
 1310POPC   C2B15718  24.618  23.882  17.792 -0.1721 -0.1986  0.0652
 1310POPC   C3B15719  24.611  24.008  17.332  0.1113 -0.1527 -0.2473
 1310POPC   C4B15720  24.253  23.953  17.064 -0.1660  0.5375  0.0819
 1311POPC   NC315721  26.471   3.896  19.398 -0.1640  0.4009  0.2459
 1311POPC   PO415722  26.471   4.165  19.140 -0.0591  0.3603  0.1487
 1311POPC   GL115723  26.591   4.145  18.841  0.3116  0.1088  0.2822
 1311POPC   GL215724  26.602   3.825  18.792 -0.0068  0.2490 -0.3427
 1311POPC   C1A15725  26.506   4.313  18.435  0.2647  0.2205  0.0032
 1311POPC   D2A15726  26.742   4.340  18.040 -0.2353 -0.1351  0.3612
 1311POPC   C3A15727  27.169   4.550  18.073  0.1238 -0.0750  0.0471
 1311POPC   C4A15728  27.434   4.931  18.236  0.3256  0.3673 -0.1951
 1311POPC   C1B15729  26.230   3.879  18.498  0.1918 -0.2417 -0.2467
 1311POPC   C2B15730  26.265   4.038  18.067 -0.0625  0.2129  0.1794
 1311POPC   C3B15731  26.242   4.057  17.646  0.2547  0.0175 -0.0673
 1311POPC   C4B15732  25.998   4.226  17.296 -0.0252  0.0287 -0.0639
 1312POPC   NC315733  14.123   1.093  18.717  0.0702 -0.0106 -0.1719
 1312POPC   PO415734  14.383   0.758  18.793 -0.2282  0.0324 -0.3392
 1312POPC   GL115735  14.308   0.897  18.365  0.2093 -0.0266  0.3219
 1312POPC   GL215736  14.376   0.663  18.279  0.0499  0.4478  0.0044
 1312POPC   C1A15737  14.418   1.041  17.949 -0.1482 -0.4635 -0.0318
 1312POPC   D2A15738  14.511   0.827  17.602 -0.0035 -0.2129  0.2402
 1312POPC   C3A15739  14.487   1.007  17.192  0.1735 -0.1289 -0.0478
 1312POPC   C4A15740  14.478   0.974  16.706  0.2877  0.1624  0.2877
 1312POPC   C1B15741  14.785   0.636  17.980  0.1953  0.4148 -0.0279
 1312POPC   C2B15742  14.947   0.525  17.558  0.0306 -0.2084 -0.1501
 1312POPC   C3B15743  15.013   0.296  17.189 -0.2150  0.2469 -0.0390
 1312POPC   C4B15744  14.728  -0.011  17.033  0.0302 -0.0853  0.1141
 1313POPC   NC315745  19.444  21.118  19.424  0.0459  0.0255  0.0980
 1313POPC   PO415746  19.060  21.156  19.393  0.1164 -0.1399 -0.0573
 1313POPC   GL115747  19.083  21.249  19.042 -0.3011  0.1117 -0.0777
 1313POPC   GL215748  19.182  21.464  18.945 -0.3304 -0.1594 -0.2830
 1313POPC   C1A15749  18.805  21.168  18.684 -0.1157 -0.2013  0.0684
 1313POPC   D2A15750  18.719  21.059  18.256 -0.2339 -0.0661  0.0785
 1313POPC   C3A15751  18.888  20.829  17.955 -0.3913  0.4940  0.3296
 1313POPC   C4A15752  18.958  20.585  17.568  0.0095 -0.0663 -0.1279
 1313POPC   C1B15753  19.147  21.528  18.485  0.0978  0.5781  0.0348
 1313POPC   C2B15754  19.241  21.850  18.157 -0.1202 -0.1958  0.3314
 1313POPC   C3B15755  19.551  21.811  17.788 -0.0870 -0.2781 -0.0380
 1313POPC   C4B15756  19.732  21.930  17.324  0.2775 -0.1133 -0.2379
 1314POPC   NC315757   5.967   2.380  19.278 -0.0492  0.0887  0.0708
 1314POPC   PO415758   6.335   2.264  19.196 -0.0168  0.0076 -0.0864
 1314POPC   GL115759   6.278   1.965  18.971 -0.1220 -0.3233 -0.1064
 1314POPC   GL215760   6.437   2.050  18.698  0.1430 -0.0157  0.0780
 1314POPC   C1A15761   6.033   1.712  18.675 -0.1274 -0.0134  0.1806
 1314POPC   D2A15762   5.957   2.123  18.362 -0.2246 -0.1086  0.2527
 1314POPC   C3A15763   5.994   2.014  17.942 -0.2502  0.1586  0.0953
 1314POPC   C4A15764   5.949   1.918  17.472  0.4191  0.1649  0.0068
 1314POPC   C1B15765   6.836   1.949  18.418  0.0526 -0.2442 -0.0694
 1314POPC   C2B15766   6.981   1.875  17.943  0.3169  0.0026 -0.2713
 1314POPC   C3B15767   6.986   1.697  17.537 -0.0309  0.2357  0.0538
 1314POPC   C4B15768   7.238   1.770  17.122  0.1084 -0.0126 -0.0569
 1315POPC   NC315769  28.985   8.503  19.367 -0.0560 -0.1160  0.2619
 1315POPC   PO415770  29.192   8.210  19.315 -0.0410  0.2515 -0.2071
 1315POPC   GL115771  29.364   8.452  19.073 -0.0806  0.2167 -0.6286
 1315POPC   GL215772  29.261   8.775  19.010 -0.0101 -0.1729 -0.2954
 1315POPC   C1A15773  29.510   8.394  18.708 -0.0368 -0.0367  0.1170
 1315POPC   D2A15774  29.498   8.622  18.325  0.0265 -0.1522  0.1648
 1315POPC   C3A15775  29.121   8.424  18.132 -0.0379 -0.1312 -0.0719
 1315POPC   C4A15776  28.745   8.642  17.891  0.0889 -0.0771 -0.5511
 1315POPC   C1B15777  29.186   8.907  18.609  0.1441 -0.0522 -0.0744
 1315POPC   C2B15778  29.257   9.080  18.190  0.3045  0.1677  0.2259
 1315POPC   C3B15779  29.373   9.228  17.759 -0.0270 -0.2067  0.1769
 1315POPC   C4B15780  29.620   9.157  17.344  0.1304  0.5335 -0.1463
 1316POPC   NC315781   3.189  28.884  19.804 -0.1222  0.3903  0.2309
 1316POPC   PO415782   3.239  28.495  19.736 -0.1730 -0.6235  0.0647
 1316POPC   GL115783   3.185  28.639  19.342  0.2091 -0.4833 -0.1463
 1316POPC   GL215784   3.097  28.457  19.198  0.2630  0.0315 -0.2106
 1316POPC   C1A15785   3.259  28.800  18.910 -0.1892 -0.2920  0.0489
 1316POPC   D2A15786   3.492  29.081  18.624 -0.0363  0.0313 -0.0727
 1316POPC   C3A15787   3.287  28.936  18.237 -0.0673 -0.1752  0.0496
 1316POPC   C4A15788   3.062  28.871  17.851 -0.0971 -0.3910 -0.5028
 1316POPC   C1B15789   2.990  28.277  18.776  0.0577 -0.0193 -0.2116
 1316POPC   C2B15790   2.851  28.055  18.391 -0.0527 -0.0204 -0.0326
 1316POPC   C3B15791   2.772  28.021  17.961 -0.0635 -0.1227  0.1369
 1316POPC   C4B15792   2.881  28.113  17.547 -0.0632 -0.1927 -0.0303
 1317POPC   NC315793   1.740  21.888  19.615  0.1622  0.1668  0.1584
 1317POPC   PO415794   1.899  22.212  19.466 -0.3862  0.1791  0.1775
 1317POPC   GL115795   1.683  21.924  19.176 -0.0509 -0.1562  0.2186
 1317POPC   GL215796   1.667  21.954  18.912  0.0025  0.2762  0.0486
 1317POPC   C1A15797   1.451  21.551  19.015 -0.0668  0.3627  0.2078
 1317POPC   D2A15798   1.018  21.386  18.941 -0.1492 -0.0860 -0.3586
 1317POPC   C3A15799   0.897  21.342  18.492  0.2793  0.2096  0.0923
 1317POPC   C4A15800   1.054  21.159  18.059 -0.1854 -0.3681  0.2612
 1317POPC   C1B15801   1.429  21.734  18.493 -0.0316 -0.1265 -0.3571
 1317POPC   C2B15802   1.455  21.508  18.066 -0.0390  0.0484  0.0070
 1317POPC   C3B15803   1.325  21.309  17.673  0.1627  0.2637 -0.1160
 1317POPC   C4B15804   1.249  21.016  17.332  0.2080  0.0795 -0.4024
 1318POPC   NC315805  18.425   3.999  19.155  0.2974 -0.0259 -0.1402
 1318POPC   PO415806  18.128   4.255  19.118 -0.1976  0.3602  0.0727
 1318POPC   GL115807  18.244   4.393  18.754  0.3443 -0.1722 -0.1434
 1318POPC   GL215808  18.534   4.376  18.761  0.0799 -0.2950  0.1789
 1318POPC   C1A15809  18.033   4.445  18.346 -0.0525 -0.0719  0.0015
 1318POPC   D2A15810  17.630   4.626  18.166 -0.2064 -0.0682 -0.1787
 1318POPC   C3A15811  17.213   4.627  18.411  0.0947  0.3273 -0.0826
 1318POPC   C4A15812  16.771   4.471  18.305 -0.1987  0.1331 -0.1381
 1318POPC   C1B15813  18.460   4.164  18.328  0.0137  0.2552  0.1816
 1318POPC   C2B15814  18.498   3.745  18.171 -0.1001  0.0023 -0.0138
 1318POPC   C3B15815  18.696   3.366  17.996  0.2709 -0.0236  0.2032
 1318POPC   C4B15816  19.029   3.102  17.835 -0.1875 -0.0677  0.4377
 1319POPC   NC315817  23.900  11.752  19.446 -0.2535  0.1038  0.2305
 1319POPC   PO415818  23.764  11.430  19.575 -0.1991 -0.3320 -0.0539
 1319POPC   GL115819  23.704  11.261  19.307 -0.0744 -0.0543 -0.4449
 1319POPC   GL215820  23.488  11.066  19.307  0.0600  0.3066 -0.2168
 1319POPC   C1A15821  23.894  11.350  18.912  0.5134 -0.3708  0.2379
 1319POPC   D2A15822  23.690  11.396  18.466  0.2312 -0.0210 -0.0624
 1319POPC   C3A15823  23.873  11.527  18.083 -0.2777 -0.0420  0.1855
 1319POPC   C4A15824  24.116  11.839  17.789 -0.2735  0.2978  0.1471
 1319POPC   C1B15825  23.233  11.395  19.084 -0.1059  0.2767 -0.0239
 1319POPC   C2B15826  23.178  11.555  18.625 -0.2976 -0.2171 -0.2809
 1319POPC   C3B15827  22.948  11.855  18.308 -0.0977 -0.4319  0.1504
 1319POPC   C4B15828  22.556  12.135  18.093  0.0561 -0.0712  0.0267
 1320POPC   NC315829  11.316  29.552  19.232 -0.1997 -0.0284  0.1053
 1320POPC   PO415830  11.306  29.947  19.251 -0.1950 -0.3357 -0.1775
 1320POPC   GL115831  11.288  29.964  18.870  0.0987  0.0920 -0.4205
 1320POPC   GL215832  11.067  30.225  18.832  0.1735 -0.0006 -0.0193
 1320POPC   C1A15833  10.960  29.863  18.540  0.1169  0.2438  0.1550
 1320POPC   D2A15834  10.599  29.782  18.231  0.0669 -0.1256 -0.2807
 1320POPC   C3A15835  10.588  29.812  17.723 -0.3444 -0.2612 -0.1581
 1320POPC   C4A15836  10.433  29.810  17.319  0.2731 -0.3916 -0.3883
 1320POPC   C1B15837  11.079  30.287  18.388 -0.1470 -0.0166 -0.4084
 1320POPC   C2B15838  11.182  30.474  17.990 -0.0819  0.1751  0.0256
 1320POPC   C3B15839  11.366  30.572  17.601 -0.4505  0.1127  0.0120
 1320POPC   C4B15840  11.850  30.757  17.503  0.1468 -0.1421 -0.3141
 1321POPC   NC315841  14.778   7.625  19.636 -0.1549 -0.1937  0.1935
 1321POPC   PO415842  14.852   7.751  19.251 -0.1333 -0.3831 -0.0257
 1321POPC   GL115843  15.164   7.695  18.928  0.0190 -0.1422  0.1736
 1321POPC   GL215844  15.416   7.835  18.971  0.1869  0.2059  0.2341
 1321POPC   C1A15845  14.984   7.666  18.550  0.2565 -0.1902  0.0060
 1321POPC   D2A15846  15.036   7.455  18.155 -0.2169 -0.0347  0.3781
 1321POPC   C3A15847  15.387   7.331  17.955 -0.0617 -0.1484 -0.2853
 1321POPC   C4A15848  15.560   7.358  17.507  0.0180 -0.0048  0.2784
 1321POPC   C1B15849  15.330   8.018  18.565 -0.0388 -0.1240 -0.4466
 1321POPC   C2B15850  15.368   7.870  18.129 -0.1201  0.0161 -0.0587
 1321POPC   C3B15851  15.316   7.793  17.703  0.0481 -0.0756 -0.0903
 1321POPC   C4B15852  15.400   7.777  17.263  0.1240 -0.1009 -0.1328
 1322POPC   NC315853   6.986  28.635  18.676 -0.2786  0.2784 -0.2777
 1322POPC   PO415854   7.099  28.364  18.967  0.0082  0.1745 -0.0119
 1322POPC   GL115855   7.302  28.299  18.646 -0.1595  0.1655 -0.0682
 1322POPC   GL215856   7.483  28.106  18.484  0.0626  0.1593 -0.1481
 1322POPC   C1A15857   7.037  28.268  18.265 -0.2661 -0.0750  0.0001
 1322POPC   D2A15858   6.784  28.586  17.923  0.2672 -0.1517  0.1813
 1322POPC   C3A15859   7.046  28.628  17.533 -0.2675 -0.2353  0.0307
 1322POPC   C4A15860   7.212  28.369  17.235 -0.1739  0.4470  0.0704
 1322POPC   C1B15861   7.426  28.091  18.031  0.2631  0.5419  0.3028
 1322POPC   C2B15862   7.114  28.137  17.719  0.2007  0.0863 -0.1153
 1322POPC   C3B15863   6.737  28.213  17.526  0.4499  0.0221 -0.0411
 1322POPC   C4B15864   6.421  27.905  17.517 -0.1358  0.0237 -0.0143
 1323POPC   NC315865  29.400   5.090  19.247 -0.0765 -0.0029  0.0006
 1323POPC   PO415866  29.748   4.966  19.320 -0.1773  0.1046  0.2236
 1323POPC   GL115867  29.959   5.071  18.993 -0.1915  0.1081 -0.1089
 1323POPC   GL215868  30.235   5.127  19.066  0.1016 -0.1248 -0.0928
 1323POPC   C1A15869  30.158   4.696  18.796 -0.1610  0.0993  0.1254
 1323POPC   D2A15870  30.006   4.419  18.428 -0.1252 -0.2301 -0.1516
 1323POPC   C3A15871  30.231   4.428  18.042  0.2155 -0.1247  0.1968
 1323POPC   C4A15872  30.398   4.281  17.672 -0.1154  0.0743 -0.0677
 1323POPC   C1B15873  30.439   5.067  18.652 -0.0821  0.1557 -0.2668
 1323POPC   C2B15874  30.471   4.794  18.342  0.2288 -0.0679 -0.0505
 1323POPC   C3B15875  30.810   4.586  18.056  0.1125 -0.3794 -0.0110
 1323POPC   C4B15876  31.049   4.615  17.633  0.1396 -0.0482  0.2290
 1324POPC   NC315877  29.176  30.861  18.557  0.3620  0.1765 -0.1213
 1324POPC   PO415878  29.235  30.992  18.914 -0.0378  0.1452  0.0156
 1324POPC   GL115879  29.107  31.271  18.820  0.2185  0.0169 -0.2955
 1324POPC   GL215880  29.120  31.401  18.556 -0.1125 -0.1922 -0.2458
 1324POPC   C1A15881  28.977  31.744  18.882  0.1242 -0.0727 -0.1776
 1324POPC   D2A15882  28.647  32.025  18.700 -0.1500  0.3028 -0.0912
 1324POPC   C3A15883  28.521  32.093  18.267 -0.0701  0.2877  0.0240
 1324POPC   C4A15884  28.734  32.007  17.847 -0.4690 -0.2179  0.5971
 1324POPC   C1B15885  29.009  31.554  18.161  0.0661 -0.0036  0.2062
 1324POPC   C2B15886  28.978  31.345  17.719  0.1365  0.0220  0.3746
 1324POPC   C3B15887  28.746  31.155  17.379 -0.2104  0.1015  0.1862
 1324POPC   C4B15888  28.616  30.951  16.972 -0.1387  0.0625  0.1850
 1325POPC   NC315889  11.159  23.274  19.004  0.2721 -0.3740 -0.2437
 1325POPC   PO415890  10.914  23.552  19.099 -0.1760  0.3133  0.1294
 1325POPC   GL115891  10.766  23.526  18.768  0.0486 -0.0522  0.4232
 1325POPC   GL215892  10.950  23.415  18.553  0.2314  0.0431 -0.2044
 1325POPC   C1A15893  10.394  23.636  18.550  0.3087 -0.0046  0.1320
 1325POPC   D2A15894  10.217  24.039  18.491 -0.1779 -0.2949 -0.3143
 1325POPC   C3A15895  10.262  24.350  18.188  0.4053  0.0765  0.0084
 1325POPC   C4A15896  10.476  24.424  17.796 -0.0916 -0.1213 -0.1437
 1325POPC   C1B15897  11.199  23.141  18.213  0.2806  0.2796  0.0176
 1325POPC   C2B15898  11.198  22.756  17.904  0.1308  0.3759  0.1540
 1325POPC   C3B15899  11.376  22.450  17.616 -0.1198 -0.3533 -0.1636
 1325POPC   C4B15900  11.400  22.393  17.131 -0.0932  0.1781  0.1722
 1326POPC   NC315901   8.965  30.039  19.482 -0.0665 -0.2470 -0.1715
 1326POPC   PO415902   8.772  30.333  19.558  0.0299 -0.4713 -0.3209
 1326POPC   GL115903   8.841  30.374  19.145  0.1149 -0.1203 -0.0737
 1326POPC   GL215904   8.864  30.603  19.069  0.1318  0.0503 -0.1596
 1326POPC   C1A15905   8.401  30.296  18.895 -0.3921  0.0382 -0.3521
 1326POPC   D2A15906   8.290  30.289  18.452  0.0262  0.1068 -0.1017
 1326POPC   C3A15907   8.591  29.942  18.184  0.2470  0.0727  0.1943
 1326POPC   C4A15908   8.688  29.748  17.800 -0.2917 -0.0880  0.0446
 1326POPC   C1B15909   8.648  30.674  18.666 -0.1381 -0.2422 -0.1126
 1326POPC   C2B15910   8.403  30.843  18.286 -0.0836  0.4216  0.0002
 1326POPC   C3B15911   8.171  31.159  18.029 -0.1018  0.0911  0.1128
 1326POPC   C4B15912   7.948  31.490  17.752 -0.0250  0.2240  0.1849
 1327POPC   NC315913  14.668   1.528  19.129  0.2289  0.2548 -0.1429
 1327POPC   PO415914  14.566   1.183  18.980 -0.3111  0.1324 -0.1237
 1327POPC   GL115915  14.529   1.199  18.564  0.1155 -0.0806 -0.1244
 1327POPC   GL215916  14.838   1.296  18.559 -0.1568  0.1559  0.0593
 1327POPC   C1A15917  14.167   1.340  18.294  0.2643  0.0637 -0.3895
 1327POPC   D2A15918  13.717   1.394  18.066 -0.1443  0.0839  0.1126
 1327POPC   C3A15919  13.642   1.433  17.618  0.0272  0.0229 -0.2271
 1327POPC   C4A15920  13.395   1.215  17.296 -0.1519 -0.2909  0.2438
 1327POPC   C1B15921  14.853   1.085  18.175 -0.0276 -0.2421  0.0867
 1327POPC   C2B15922  15.014   1.049  17.744 -0.1975  0.0557  0.1444
 1327POPC   C3B15923  15.025   1.048  17.316 -0.0377 -0.0771  0.2663
 1327POPC   C4B15924  14.845   0.804  16.941 -0.0117 -0.1607 -0.1803
 1328POPC   NC315925   9.818  24.571  19.362 -0.1879 -0.1135  0.0805
 1328POPC   PO415926   9.497  24.720  19.185 -0.1363 -0.2041  0.1414
 1328POPC   GL115927   9.664  24.776  18.842  0.4967 -0.2689 -0.0629
 1328POPC   GL215928   9.942  24.725  18.896 -0.0375 -0.0104  0.0375
 1328POPC   C1A15929   9.878  25.159  18.635 -0.4162 -0.5449  0.0407
 1328POPC   D2A15930   9.824  25.600  18.437  0.0956 -0.0073 -0.4265
 1328POPC   C3A15931   9.941  25.778  17.994  0.3057 -0.0483 -0.0751
 1328POPC   C4A15932  10.062  25.766  17.563 -0.1044  0.5323  0.0473
 1328POPC   C1B15933   9.993  24.754  18.447 -0.0176  0.0356 -0.0970
 1328POPC   C2B15934   9.850  24.710  18.036 -0.1477  0.2824  0.1169
 1328POPC   C3B15935   9.954  24.468  17.694 -0.1927 -0.2368  0.2983
 1328POPC   C4B15936  10.276  24.632  17.405  0.2093 -0.3407  0.0023
 1329POPC   NC315937  11.914   0.311  19.104 -0.0384  0.1066  0.0241
 1329POPC   PO415938  12.116   0.640  19.204 -0.0006  0.1531 -0.0626
 1329POPC   GL115939  11.965   0.756  18.837 -0.1091  0.1093 -0.1308
 1329POPC   GL215940  11.935   0.484  18.614 -0.0171  0.2163 -0.3159
 1329POPC   C1A15941  12.081   1.046  18.481 -0.0460 -0.1727 -0.0035
 1329POPC   D2A15942  12.026   1.121  18.003 -0.1415  0.0339 -0.4285
 1329POPC   C3A15943  12.106   1.245  17.603  0.0266 -0.0002  0.0680
 1329POPC   C4A15944  12.294   1.397  17.230 -0.0233  0.2521 -0.1524
 1329POPC   C1B15945  11.734   0.210  18.307  0.0664 -0.1060  0.0197
 1329POPC   C2B15946  11.751   0.171  17.831 -0.2698 -0.0676  0.0482
 1329POPC   C3B15947  11.856   0.269  17.404  0.1666  0.1113  0.0166
 1329POPC   C4B15948  11.941   0.547  17.001 -0.1819  0.0896 -0.0937
 1330POPC   NC315949  30.447  23.967  18.969 -0.0481  0.1441 -0.1375
 1330POPC   PO415950  30.422  23.563  19.002  0.1763  0.0973 -0.1450
 1330POPC   GL115951  30.175  23.642  18.662 -0.0695  0.2571  0.2252
 1330POPC   GL215952  30.272  23.868  18.530  0.0052  0.0364 -0.1131
 1330POPC   C1A15953  30.008  23.377  18.300  0.0103  0.1546 -0.2824
 1330POPC   D2A15954  29.913  23.308  17.889 -0.0731  0.2491  0.0816
 1330POPC   C3A15955  30.055  23.051  17.556 -0.1339 -0.0961  0.1155
 1330POPC   C4A15956  29.873  22.653  17.423  0.0012 -0.0004 -0.2834
 1330POPC   C1B15957  30.308  24.174  18.155 -0.2526 -0.0750  0.1533
 1330POPC   C2B15958  30.110  24.261  17.756  0.0381  0.2557 -0.3932
 1330POPC   C3B15959  30.047  24.424  17.320 -0.2776 -0.0786  0.0089
 1330POPC   C4B15960  30.275  24.294  16.972 -0.0447  0.1531 -0.1006
 1331POPC   NC315961   1.023  26.608  19.290  0.2529 -0.0832 -0.3723
 1331POPC   PO415962   1.038  26.934  19.519  0.2000  0.0722  0.0093
 1331POPC   GL115963   1.116  27.091  19.176 -0.4346  0.1633  0.0289
 1331POPC   GL215964   1.132  26.910  18.907 -0.1160 -0.1593  0.2894
 1331POPC   C1A15965   0.793  27.445  19.141 -0.6953  0.0616 -0.0361
 1331POPC   D2A15966   0.334  27.470  19.193  0.2456  0.0480 -0.1479
 1331POPC   C3A15967   0.083  27.477  18.833  0.1777  0.1266 -0.1244
 1331POPC   C4A15968  -0.004  27.675  18.422 -0.0553  0.1097 -0.0880
 1331POPC   C1B15969   1.226  26.598  18.547  0.1705 -0.2041 -0.2064
 1331POPC   C2B15970   1.180  26.516  18.061 -0.1367  0.0166 -0.2529
 1331POPC   C3B15971   1.067  26.524  17.631 -0.0074 -0.1124  0.1037
 1331POPC   C4B15972   1.063  26.933  17.402  0.1865  0.1042  0.0774
 1332POPC   NC315973   1.055   9.717  19.166 -0.1527  0.3594 -0.0221
 1332POPC   PO415974   1.362   9.554  19.384  0.0846 -0.0733  0.1640
 1332POPC   GL115975   1.533   9.676  19.007 -0.0995  0.0504 -0.1635
 1332POPC   GL215976   1.449   9.924  18.951 -0.0166 -0.1001  0.2316
 1332POPC   C1A15977   1.878   9.643  18.641 -0.0729 -0.0633  0.1150
 1332POPC   D2A15978   1.811   9.743  18.195 -0.0197 -0.2037  0.0594
 1332POPC   C3A15979   1.699   9.561  17.757  0.3507 -0.0806  0.2290
 1332POPC   C4A15980   1.992   9.357  17.453  0.0189 -0.1921 -0.0728
 1332POPC   C1B15981   1.377   9.838  18.521 -0.0635  0.0015  0.0973
 1332POPC   C2B15982   1.307   9.564  18.129 -0.0429 -0.2343 -0.1012
 1332POPC   C3B15983   1.221   9.223  17.800  0.4588 -0.3318 -0.0225
 1332POPC   C4B15984   0.986   8.991  17.476 -0.4221  0.1214 -0.0388
 1333POPC   NC315985  26.293  29.090  19.355  0.0026 -0.2427 -0.2190
 1333POPC   PO415986  26.225  28.740  19.443  0.0417  0.0051 -0.4524
 1333POPC   GL115987  26.242  28.540  19.070  0.2219 -0.1712 -0.2169
 1333POPC   GL215988  26.502  28.413  19.015 -0.1633 -0.1527 -0.0022
 1333POPC   C1A15989  26.411  28.871  18.759 -0.1008  0.2566  0.0857
 1333POPC   D2A15990  26.827  29.026  18.722  0.0824  0.1132  0.1390
 1333POPC   C3A15991  27.219  28.890  18.463  0.2009  0.1609  0.0859
 1333POPC   C4A15992  27.382  28.561  18.216  0.0957  0.0784 -0.1848
 1333POPC   C1B15993  26.328  28.422  18.604  0.1637  0.1399 -0.1611
 1333POPC   C2B15994  26.345  28.726  18.246  0.0648  0.2169 -0.1845
 1333POPC   C3B15995  26.296  28.693  17.761 -0.0850  0.3120  0.0699
 1333POPC   C4B15996  26.362  28.777  17.329 -0.1039  0.1661  0.0080
 1334POPC   NC315997  12.477  16.924  19.508 -0.2385  0.1493 -0.1604
 1334POPC   PO415998  12.765  16.674  19.325  0.0980 -0.1762  0.1933
 1334POPC   GL115999  12.909  16.572  19.024 -0.3041 -0.1680 -0.2834
 1334POPC   GL216000  13.250  16.679  18.961 -0.0238  0.1151 -0.0447
 1334POPC   C1A16001  12.758  16.459  18.614  0.1197 -0.3447 -0.2769
 1334POPC   D2A16002  12.588  16.427  18.206  0.1423 -0.2270 -0.1175
 1334POPC   C3A16003  12.293  16.370  17.893  0.0728  0.0186 -0.0350
 1334POPC   C4A16004  12.235  16.339  17.430 -0.2741 -0.1576 -0.2717
 1334POPC   C1B16005  13.189  16.586  18.489 -0.2210 -0.1731  0.1527
 1334POPC   C2B16006  12.992  16.668  18.062 -0.0845 -0.0271 -0.1332
 1334POPC   C3B16007  13.251  16.555  17.728  0.0910 -0.0345 -0.1128
 1334POPC   C4B16008  13.623  16.414  17.471  0.1654 -0.3145 -0.0052
 1335POPC   NC316009  19.229  16.461  18.931  0.2732  0.1917 -0.1569
 1335POPC   PO416010  19.570  16.340  19.117  0.0939 -0.0302 -0.0357
 1335POPC   GL116011  19.583  16.398  18.655 -0.0972 -0.1148 -0.1115
 1335POPC   GL216012  19.797  16.314  18.573  0.1114 -0.0608  0.0888
 1335POPC   C1A16013  19.237  16.327  18.372 -0.2536  0.1303  0.0922
 1335POPC   D2A16014  19.090  16.594  18.004 -0.2725 -0.2806 -0.2312
 1335POPC   C3A16015  19.149  16.576  17.514  0.3380 -0.1225 -0.2635
 1335POPC   C4A16016  18.903  16.287  17.258 -0.1464  0.0149 -0.0502
 1335POPC   C1B16017  19.869  16.308  18.090  0.3257 -0.1512 -0.0783
 1335POPC   C2B16018  20.035  16.497  17.711 -0.1004  0.2259  0.0603
 1335POPC   C3B16019  20.044  16.445  17.270  0.1792 -0.0261 -0.0821
 1335POPC   C4B16020  19.805  16.520  16.886 -0.0650  0.1226 -0.0118
 1336POPC   NC316021  24.015   3.621  19.282 -0.2305  0.0169  0.0315
 1336POPC   PO416022  24.023   4.007  19.371  0.0501 -0.1180 -0.0599
 1336POPC   GL116023  24.045   3.992  19.066 -0.1228  0.5555  0.3131
 1336POPC   GL216024  23.930   4.146  18.917  0.3297 -0.1303 -0.0934
 1336POPC   C1A16025  24.215   3.608  18.803 -0.1816  0.0210 -0.0269
 1336POPC   D2A16026  24.371   3.622  18.395 -0.1042  0.1585  0.1924
 1336POPC   C3A16027  24.271   3.999  18.320 -0.0252 -0.0605 -0.0225
 1336POPC   C4A16028  23.928   4.306  18.408  0.0881  0.4490  0.1052
 1336POPC   C1B16029  23.781   3.807  18.598  0.2502  0.1631  0.2321
 1336POPC   C2B16030  23.837   3.739  18.135 -0.2471 -0.1523 -0.2751
 1336POPC   C3B16031  23.791   3.832  17.713  0.1712  0.0935 -0.3005
 1336POPC   C4B16032  24.038   3.906  17.316 -0.0243 -0.0218 -0.1802
 1337POPC   NC316033  25.671  11.719  19.296 -0.2641  0.0255  0.0032
 1337POPC   PO416034  25.294  11.808  19.236  0.2439  0.2079 -0.3266
 1337POPC   GL116035  25.256  11.967  18.850 -0.0540 -0.1408 -0.0120
 1337POPC   GL216036  25.502  11.906  18.653  0.2524  0.2403  0.0327
 1337POPC   C1A16037  25.019  12.157  18.553 -0.1214  0.1831  0.0092
 1337POPC   D2A16038  24.939  12.229  18.112 -0.2724 -0.0049 -0.3168
 1337POPC   C3A16039  24.888  12.673  17.962 -0.2132  0.0778  0.1216
 1337POPC   C4A16040  24.856  12.913  17.591 -0.2998 -0.1298 -0.1013
 1337POPC   C1B16041  25.285  11.795  18.215 -0.0660 -0.0480 -0.1617
 1337POPC   C2B16042  24.951  11.612  17.929 -0.1092  0.1403 -0.1918
 1337POPC   C3B16043  24.515  11.457  17.717 -0.3696  0.0276 -0.1923
 1337POPC   C4B16044  24.109  11.294  17.623 -0.0219  0.1676  0.0312
 1338POPC   NC316045  13.475  13.827  19.307  0.1474  0.2341  0.2754
 1338POPC   PO416046  13.715  14.155  19.291 -0.1258  0.2031  0.1559
 1338POPC   GL116047  13.756  14.033  18.909 -0.0969  0.1899  0.2322
 1338POPC   GL216048  13.878  13.760  18.976  0.0042 -0.2457  0.0762
 1338POPC   C1A16049  14.144  13.974  18.654 -0.0348  0.1917  0.1959
 1338POPC   D2A16050  14.502  14.200  18.449 -0.2094  0.0801  0.1341
 1338POPC   C3A16051  14.283  14.055  18.046 -0.3262  0.0056 -0.0343
 1338POPC   C4A16052  14.162  14.024  17.560 -0.1021 -0.1714  0.0440
 1338POPC   C1B16053  13.727  13.724  18.542  0.1047  0.2244 -0.3106
 1338POPC   C2B16054  13.585  13.591  18.072  0.0218  0.1742  0.0534
 1338POPC   C3B16055  13.633  13.843  17.631 -0.1260  0.2789 -0.1476
 1338POPC   C4B16056  13.521  13.953  17.255 -0.0714  0.0046 -0.1195
 1339POPC   NC316057  14.557  20.511  19.565 -0.1944  0.4363 -0.1298
 1339POPC   PO416058  14.517  20.859  19.712  0.0419  0.1902 -0.0702
 1339POPC   GL116059  14.584  21.023  19.309  0.0559  0.3842  0.4840
 1339POPC   GL216060  14.722  20.817  19.256  0.1779 -0.0642 -0.2886
 1339POPC   C1A16061  14.413  21.058  18.846 -0.1758 -0.4946 -0.2490
 1339POPC   D2A16062  14.417  21.335  18.482 -0.0817  0.1006 -0.2588
 1339POPC   C3A16063  14.524  21.153  18.048  0.0588  0.1118 -0.0122
 1339POPC   C4A16064  14.520  21.199  17.554  0.0812 -0.0656 -0.1908
 1339POPC   C1B16065  14.861  20.861  18.861  0.1310  0.0587 -0.1878
 1339POPC   C2B16066  14.905  21.018  18.499 -0.1088  0.2431  0.0554
 1339POPC   C3B16067  15.021  21.221  18.086 -0.1622  0.0449 -0.1082
 1339POPC   C4B16068  14.910  21.416  17.764 -0.3351 -0.0506  0.2563
 1340POPC   NC316069  27.051  29.130  19.166 -0.3925 -0.1103 -0.3701
 1340POPC   PO416070  26.708  29.395  19.223  0.1679  0.3471 -0.3601
 1340POPC   GL116071  26.533  29.442  18.828 -0.3803 -0.2452 -0.1365
 1340POPC   GL216072  26.392  29.659  18.897 -0.1413 -0.1533 -0.1542
 1340POPC   C1A16073  26.692  29.364  18.396  0.0227  0.2116  0.2086
 1340POPC   D2A16074  26.869  29.025  18.135  0.3096  0.1244  0.0162
 1340POPC   C3A16075  27.347  28.974  17.917  0.3221  0.3228 -0.2533
 1340POPC   C4A16076  27.609  28.810  17.583 -0.2014 -0.2338 -0.2123
 1340POPC   C1B16077  26.184  29.631  18.474 -0.0433  0.1826 -0.1135
 1340POPC   C2B16078  26.049  29.731  18.035 -0.2926 -0.0460  0.0489
 1340POPC   C3B16079  26.252  29.857  17.639 -0.0784  0.2922 -0.2714
 1340POPC   C4B16080  26.439  29.919  17.268 -0.0023 -0.0471 -0.1201
 1341POPC   NC316081   6.037  11.541  19.317  0.1397 -0.2158  0.0248
 1341POPC   PO416082   5.786  11.741  19.082 -0.0601 -0.1213 -0.0064
 1341POPC   GL116083   5.647  11.744  18.675 -0.3933 -0.3098 -0.3164
 1341POPC   GL216084   5.909  11.769  18.552  0.0785  0.0632  0.1551
 1341POPC   C1A16085   5.543  12.126  18.493  0.1524 -0.3262 -0.0955
 1341POPC   D2A16086   5.524  12.295  18.064 -0.1652  0.0661 -0.2556
 1341POPC   C3A16087   5.569  12.343  17.571  0.1481  0.0167 -0.0513
 1341POPC   C4A16088   5.491  12.568  17.183  0.0101 -0.0787  0.0463
 1341POPC   C1B16089   6.051  11.668  18.182  0.0425 -0.3657  0.0113
 1341POPC   C2B16090   6.176  11.741  17.758  0.2849  0.1502  0.1714
 1341POPC   C3B16091   6.394  11.875  17.423 -0.3899 -0.2828  0.2356
 1341POPC   C4B16092   6.285  12.023  16.991  0.1286  0.1000  0.0156
 1342POPC   NC316093  31.313   3.316  19.880  0.1345  0.1244 -0.1708
 1342POPC   PO416094  31.204   3.663  19.682 -0.2588 -0.4939 -0.1382
 1342POPC   GL116095  31.347   3.812  19.322 -0.2180 -0.1980  0.1970
 1342POPC   GL216096  31.228   3.540  19.138 -0.0180  0.0210  0.2004
 1342POPC   C1A16097  31.440   4.063  18.993  0.2664 -0.1599  0.1044
 1342POPC   D2A16098  31.283   4.395  18.831 -0.0565  0.0332 -0.0113
 1342POPC   C3A16099  31.233   4.574  18.418  0.2234 -0.2867  0.3865
 1342POPC   C4A16100  31.345   4.793  18.038 -0.2247 -0.0525 -0.2951
 1342POPC   C1B16101  31.174   3.612  18.703  0.0794 -0.0515 -0.1695
 1342POPC   C2B16102  31.263   3.716  18.271 -0.1381  0.3668 -0.0310
 1342POPC   C3B16103  31.401   3.990  17.908  0.5229  0.0345 -0.2523
 1342POPC   C4B16104  31.554   4.418  17.865 -0.4570 -0.2350 -0.0082
 1343POPC   NC316105   2.597  27.485  19.231 -0.0272  0.0504  0.1029
 1343POPC   PO416106   3.016  27.503  19.310  0.2828  0.0526 -0.0107
 1343POPC   GL116107   3.011  27.464  19.050  0.3341  0.1067  0.1192
 1343POPC   GL216108   2.862  27.186  18.929  0.2132 -0.0261 -0.1026
 1343POPC   C1A16109   2.668  27.546  18.736 -0.0512  0.1352 -0.0258
 1343POPC   D2A16110   2.582  27.492  18.271  0.1452  0.0633 -0.2983
 1343POPC   C3A16111   2.458  27.095  18.072  0.1729 -0.0132  0.0020
 1343POPC   C4A16112   2.434  26.913  17.653 -0.3018  0.0042 -0.3100
 1343POPC   C1B16113   2.938  27.094  18.430 -0.0344  0.2268  0.1447
 1343POPC   C2B16114   2.902  27.290  17.980  0.0763 -0.0998 -0.0703
 1343POPC   C3B16115   2.803  27.605  17.660  0.1674  0.0586  0.0811
 1343POPC   C4B16116   2.515  27.801  17.360  0.0592  0.0813  0.1164
 1344POPC   NC316117  20.007   3.826  19.420  0.0134 -0.1649  0.0735
 1344POPC   PO416118  19.931   4.171  19.268  0.0790  0.1085  0.1901
 1344POPC   GL116119  19.723   4.140  18.925  0.3427 -0.2086  0.3669
 1344POPC   GL216120  19.907   4.058  18.755 -0.2243  0.1202  0.1322
 1344POPC   C1A16121  19.493   4.297  18.572 -0.0017 -0.0883  0.2263
 1344POPC   D2A16122  19.543   4.518  18.230  0.0335  0.1457 -0.2315
 1344POPC   C3A16123  19.293   4.346  17.828  0.0373  0.0215 -0.1547
 1344POPC   C4A16124  18.962   4.440  17.431 -0.1775  0.1018 -0.0821
 1344POPC   C1B16125  19.871   4.086  18.256 -0.1547  0.0401  0.2654
 1344POPC   C2B16126  19.851   4.233  17.809  0.1060  0.0438  0.2083
 1344POPC   C3B16127  19.848   4.060  17.417 -0.1096  0.0929  0.0337
 1344POPC   C4B16128  19.869   4.117  16.950 -0.0290  0.0011 -0.2410
 1345POPC   NC316129  26.631  28.113  20.063  0.1145  0.0464 -0.0243
 1345POPC   PO416130  26.750  27.944  19.713 -0.3081 -0.2525  0.0052
 1345POPC   GL116131  26.721  27.775  19.361 -0.0053 -0.1496 -0.0870
 1345POPC   GL216132  26.972  27.738  19.274 -0.0009  0.0405 -0.2397
 1345POPC   C1A16133  26.797  28.035  18.950  0.1431 -0.1899 -0.0004
 1345POPC   D2A16134  27.152  28.142  18.608 -0.1195  0.1344  0.1605
 1345POPC   C3A16135  27.053  28.135  18.151  0.1381  0.3461  0.2837
 1345POPC   C4A16136  27.008  28.102  17.667  0.2296 -0.0553 -0.2854
 1345POPC   C1B16137  27.226  27.685  18.865  0.2139  0.2906  0.0543
 1345POPC   C2B16138  27.408  27.719  18.469 -0.0965 -0.2050  0.1341
 1345POPC   C3B16139  27.496  27.912  18.023 -0.2996  0.0837  0.0483
 1345POPC   C4B16140  27.478  28.315  17.833  0.1623 -0.2923  0.3166
 1346POPC   NC316141  28.344   9.578  19.056  0.1805 -0.0399 -0.3473
 1346POPC   PO416142  28.668   9.738  19.218  0.1968  0.0093  0.2442
 1346POPC   GL116143  28.711   9.879  18.867 -0.3467 -0.1129 -0.0915
 1346POPC   GL216144  28.649   9.776  18.573 -0.2781 -0.4138  0.0826
 1346POPC   C1A16145  28.926  10.241  18.665  0.3134 -0.1020  0.1494
 1346POPC   D2A16146  28.948  10.404  18.216 -0.2026 -0.0761 -0.0225
 1346POPC   C3A16147  29.271  10.207  18.012  0.1905 -0.0870  0.5553
 1346POPC   C4A16148  29.559   9.849  17.866  0.2225  0.1855  0.0540
 1346POPC   C1B16149  28.476   9.665  18.167  0.1239  0.0386  0.1684
 1346POPC   C2B16150  28.491   9.668  17.726  0.0238 -0.3731  0.1124
 1346POPC   C3B16151  28.677   9.925  17.399  0.0818 -0.1244 -0.0580
 1346POPC   C4B16152  29.106   9.965  17.252 -0.0588 -0.0157 -0.1533
 1347POPC   NC316153   6.327   1.378  19.589 -0.1974 -0.0020 -0.0152
 1347POPC   PO416154   6.312   1.499  19.238  0.2305 -0.1513  0.0699
 1347POPC   GL116155   6.355   1.399  18.826  0.0703 -0.3911 -0.1940
 1347POPC   GL216156   6.533   1.592  18.671 -0.1842  0.0442  0.0187
 1347POPC   C1A16157   6.330   1.310  18.353 -0.1339 -0.1334 -0.0439
 1347POPC   D2A16158   6.076   1.469  18.069  0.1070 -0.1362  0.1544
 1347POPC   C3A16159   6.088   1.426  17.604 -0.1715  0.0248 -0.0023
 1347POPC   C4A16160   6.046   1.278  17.212 -0.3826 -0.2121  0.3363
 1347POPC   C1B16161   6.400   1.781  18.268  0.1922 -0.1264  0.0156
 1347POPC   C2B16162   6.448   1.760  17.751 -0.0131  0.1674  0.0572
 1347POPC   C3B16163   6.601   2.025  17.502 -0.1034 -0.1834  0.1607
 1347POPC   C4B16164   6.642   2.485  17.507 -0.0935 -0.1846 -0.1525
 1348POPC   NC316165  18.518   6.322  19.236  0.3577 -0.3915 -0.1499
 1348POPC   PO416166  18.374   6.671  19.315 -0.0195 -0.2659 -0.1684
 1348POPC   GL116167  18.547   6.639  18.927 -0.0434 -0.3628  0.2442
 1348POPC   GL216168  18.522   6.913  18.822 -0.0949 -0.0380  0.2472
 1348POPC   C1A16169  18.679   6.543  18.441 -0.0302  0.0375  0.0348
 1348POPC   D2A16170  18.667   6.533  17.921 -0.0420  0.1430  0.2268
 1348POPC   C3A16171  18.914   6.302  17.638  0.1467  0.1509  0.0163
 1348POPC   C4A16172  19.224   6.187  17.287  0.1047  0.0497 -0.1931
 1348POPC   C1B16173  18.210   6.826  18.458 -0.1473 -0.0259 -0.1373
 1348POPC   C2B16174  18.164   6.776  18.004 -0.1350  0.1683  0.3264
 1348POPC   C3B16175  18.112   6.343  17.831  0.3219  0.2952 -0.1365
 1348POPC   C4B16176  17.997   5.958  18.064  0.0894  0.4360 -0.0818
 1349POPC   NC316177   0.148  11.538  19.796 -0.0067 -0.3340 -0.2689
 1349POPC   PO416178   0.488  11.778  19.704  0.0213  0.2378  0.0196
 1349POPC   GL116179   0.457  11.905  19.345  0.1768  0.3519 -0.2141
 1349POPC   GL216180   0.225  11.713  19.295 -0.0761  0.2880 -0.0498
 1349POPC   C1A16181   0.657  11.552  19.038 -0.1703 -0.0600  0.2961
 1349POPC   D2A16182   0.930  11.241  18.798  0.1132 -0.0798  0.2334
 1349POPC   C3A16183   0.764  11.071  18.370  0.0579  0.0557  0.1488
 1349POPC   C4A16184   0.654  10.737  18.072  0.0884  0.3152 -0.1856
 1349POPC   C1B16185   0.187  12.009  19.008 -0.3163 -0.0084  0.3081
 1349POPC   C2B16186   0.107  12.079  18.552  0.4197  0.0725 -0.1197
 1349POPC   C3B16187   0.145  11.988  18.104 -0.0867 -0.2230 -0.0531
 1349POPC   C4B16188   0.286  11.892  17.671 -0.0590  0.0662 -0.1833
 1350POPC   NC316189  28.253   6.591  18.708  0.2766 -0.3223  0.2065
 1350POPC   PO416190  28.377   6.257  18.871 -0.2514  0.0850  0.1376
 1350POPC   GL116191  28.236   6.092  18.581 -0.3117  0.3261 -0.2654
 1350POPC   GL216192  28.365   6.203  18.319 -0.0468  0.0059  0.0089
 1350POPC   C1A16193  28.142   5.648  18.440 -0.0448  0.0202 -0.1832
 1350POPC   D2A16194  28.098   5.443  18.062 -0.0979  0.2092 -0.2825
 1350POPC   C3A16195  28.013   5.279  17.659  0.4477 -0.1165 -0.1490
 1350POPC   C4A16196  28.328   5.104  17.432  0.0091 -0.0966 -0.2740
 1350POPC   C1B16197  28.442   6.150  17.864  0.1819  0.1279  0.0051
 1350POPC   C2B16198  28.418   6.300  17.426 -0.1429  0.0132 -0.2121
 1350POPC   C3B16199  28.590   6.524  17.011  0.1961 -0.0520 -0.1301
 1350POPC   C4B16200  29.045   6.641  16.798 -0.0773  0.3552 -0.3377
 1351POPC   NC316201  27.683  30.397  19.112 -0.1239 -0.1404  0.1034
 1351POPC   PO416202  27.596  30.008  19.129  0.2036  0.3763 -0.3163
 1351POPC   GL116203  27.457  29.979  18.821  0.0825  0.1644  0.2622
 1351POPC   GL216204  27.542  30.206  18.669  0.0000  0.0742 -0.0788
 1351POPC   C1A16205  27.587  29.721  18.488  0.3557 -0.0710 -0.1748
 1351POPC   D2A16206  27.666  29.739  17.993  0.3140 -0.0818  0.3031
 1351POPC   C3A16207  27.452  29.968  17.670  0.1680 -0.1549  0.1923
 1351POPC   C4A16208  27.310  30.156  17.241  0.2580 -0.2584 -0.0434
 1351POPC   C1B16209  27.441  30.187  18.218 -0.4779 -0.0483 -0.2873
 1351POPC   C2B16210  27.331  30.513  17.847 -0.0166 -0.0977 -0.1705
 1351POPC   C3B16211  27.154  30.637  17.462 -0.1087  0.2895  0.1316
 1351POPC   C4B16212  27.141  30.629  16.998 -0.0733  0.0471  0.2970
 1352POPC   NC316213   8.092  26.507  19.440  0.0511 -0.0742 -0.3035
 1352POPC   PO416214   8.445  26.397  19.489  0.0579  0.3058 -0.1363
 1352POPC   GL116215   8.325  26.400  19.069 -0.0356 -0.0039 -0.0028
 1352POPC   GL216216   8.115  26.300  18.944  0.3006  0.1047  0.1691
 1352POPC   C1A16217   8.536  26.280  18.674  0.0495 -0.0862  0.0081
 1352POPC   D2A16218   8.776  26.419  18.322  0.0789  0.1050  0.0028
 1352POPC   C3A16219   8.952  26.313  17.903  0.0556  0.0095 -0.0641
 1352POPC   C4A16220   9.112  26.082  17.475  0.2353  0.0492 -0.3861
 1352POPC   C1B16221   7.889  26.063  18.598  0.4588 -0.0385 -0.1165
 1352POPC   C2B16222   7.747  26.028  18.135  0.1264  0.0649 -0.1937
 1352POPC   C3B16223   7.559  25.839  17.772 -0.1567  0.3514  0.2894
 1352POPC   C4B16224   7.426  25.666  17.338 -0.4926 -0.0321 -0.2514
 1353POPC   NC316225  10.083  13.472  18.971  0.4591 -0.0351  0.1982
 1353POPC   PO416226   9.887  13.198  19.152  0.1653 -0.0628 -0.3414
 1353POPC   GL116227  10.000  12.988  18.928 -0.1150  0.4454 -0.0276
 1353POPC   GL216228  10.106  12.749  19.065 -0.0281  0.1995 -0.1419
 1353POPC   C1A16229  10.089  13.215  18.515 -0.0564 -0.1873  0.1559
 1353POPC   D2A16230  10.185  13.208  18.050 -0.2937  0.4559 -0.1806
 1353POPC   C3A16231   9.850  13.277  17.752  0.0718  0.0425  0.1720
 1353POPC   C4A16232   9.526  13.098  17.448  0.2437  0.1178 -0.0407
 1353POPC   C1B16233  10.074  12.667  18.574 -0.1611 -0.1129  0.1010
 1353POPC   C2B16234   9.998  12.681  18.105  0.1375 -0.0625 -0.2290
 1353POPC   C3B16235   9.997  12.801  17.651 -0.0524  0.1006  0.1335
 1353POPC   C4B16236   9.946  12.994  17.265 -0.1932 -0.3087 -0.1790
 1354POPC   NC316237   0.437  20.738  19.135 -0.0983 -0.0812  0.1454
 1354POPC   PO416238   0.427  21.070  19.312  0.0622 -0.0542 -0.1569
 1354POPC   GL116239   0.541  21.218  18.983 -0.1107 -0.3113  0.0148
 1354POPC   GL216240   0.683  21.022  18.837  0.1674 -0.0297  0.2298
 1354POPC   C1A16241   0.397  21.370  18.535  0.1576  0.0238  0.2069
 1354POPC   D2A16242   0.322  21.518  18.159 -0.0260 -0.2476 -0.1212
 1354POPC   C3A16243   0.603  21.524  17.800 -0.1200  0.1041  0.0360
 1354POPC   C4A16244   0.780  21.127  17.550  0.0131  0.1629  0.1739
 1354POPC   C1B16245   0.639  20.898  18.350  0.0597 -0.1434 -0.1153
 1354POPC   C2B16246   0.475  20.986  17.935 -0.1867  0.1031 -0.0117
 1354POPC   C3B16247   0.277  21.259  17.609  0.0559 -0.1700 -0.1358
 1354POPC   C4B16248   0.164  21.704  17.505 -0.0109  0.2099 -0.2430
 1355POPC   NC316249  24.943  19.660  18.950 -0.1514 -0.0645 -0.2306
 1355POPC   PO416250  24.637  19.578  19.216 -0.0523 -0.1305  0.2144
 1355POPC   GL116251  24.333  19.560  18.979 -0.0905 -0.1733 -0.1763
 1355POPC   GL216252  24.325  19.355  18.845 -0.1702 -0.1347 -0.0147
 1355POPC   C1A16253  24.033  19.723  18.620 -0.1198 -0.1489 -0.0428
 1355POPC   D2A16254  23.950  19.631  18.207  0.1821  0.1124 -0.1534
 1355POPC   C3A16255  23.666  19.293  18.079  0.3073  0.0700  0.0746
 1355POPC   C4A16256  23.220  19.133  17.878 -0.0759 -0.2506 -0.0465
 1355POPC   C1B16257  24.379  19.202  18.427 -0.1586 -0.0840  0.3233
 1355POPC   C2B16258  24.143  18.958  18.028  0.0320  0.0471  0.0712
 1355POPC   C3B16259  23.894  18.727  17.718 -0.2244  0.0931 -0.0429
 1355POPC   C4B16260  23.470  18.729  17.613  0.0034 -0.3756 -0.1494
 1356POPC   NC316261  22.040   1.826  19.207  0.1506 -0.1509 -0.0166
 1356POPC   PO416262  22.009   2.161  19.071  0.1231 -0.1379  0.0766
 1356POPC   GL116263  22.102   2.326  18.714 -0.2325 -0.1520  0.1991
 1356POPC   GL216264  21.857   2.506  18.679  0.0740  0.1022 -0.0035
 1356POPC   C1A16265  22.030   2.099  18.319  0.2533  0.2547  0.2511
 1356POPC   D2A16266  21.809   2.223  17.923  0.1476 -0.3013  0.0766
 1356POPC   C3A16267  21.793   2.170  17.469 -0.1754 -0.2019 -0.2550
 1356POPC   C4A16268  21.889   2.073  17.011  0.2055 -0.2823  0.0859
 1356POPC   C1B16269  21.581   2.400  18.337 -0.1765  0.0758 -0.1272
 1356POPC   C2B16270  21.451   2.569  17.878  0.1659  0.0199  0.1129
 1356POPC   C3B16271  21.593   2.662  17.406  0.0512  0.0262 -0.0396
 1356POPC   C4B16272  21.993   2.583  17.183  0.0624  0.0505 -0.3464
 1357POPC   NC316273   4.173   6.632  19.301 -0.0362  0.0407 -0.0529
 1357POPC   PO416274   4.312   7.002  19.262  0.0086 -0.0892  0.3695
 1357POPC   GL116275   4.183   6.967  18.903 -0.2818 -0.0883 -0.1909
 1357POPC   GL216276   3.876   6.873  18.951 -0.0844  0.1033 -0.0995
 1357POPC   C1A16277   4.230   7.005  18.457 -0.1960  0.2567  0.2764
 1357POPC   D2A16278   3.981   6.852  18.073  0.1684  0.0642  0.0495
 1357POPC   C3A16279   3.795   6.468  17.959 -0.1849  0.4951 -0.2249
 1357POPC   C4A16280   3.351   6.250  17.912 -0.1434 -0.0960 -0.2201
 1357POPC   C1B16281   3.849   6.551  18.713  0.1346 -0.0160 -0.1317
 1357POPC   C2B16282   4.015   6.265  18.409  0.0948  0.0502 -0.3705
 1357POPC   C3B16283   3.851   5.980  18.047 -0.0348 -0.1129  0.0420
 1357POPC   C4B16284   3.705   5.517  18.035 -0.2517  0.1197  0.1812
 1358POPC   NC316285  14.633  10.384  19.338  0.4540  0.0950 -0.0364
 1358POPC   PO416286  14.493  10.686  19.112  0.1002  0.1025  0.1566
 1358POPC   GL116287  14.632  10.815  18.689 -0.2428  0.4306 -0.3189
 1358POPC   GL216288  14.307  10.866  18.669 -0.1516  0.0655  0.3012
 1358POPC   C1A16289  14.621  10.915  18.242  0.1188 -0.1727  0.0490
 1358POPC   D2A16290  14.841  10.970  17.760  0.0203  0.4474 -0.1444
 1358POPC   C3A16291  14.694  11.073  17.350 -0.1637 -0.2199 -0.0040
 1358POPC   C4A16292  14.400  11.067  16.979 -0.0745 -0.1064 -0.1235
 1358POPC   C1B16293  14.179  11.061  18.254 -0.0922  0.0398 -0.1090
 1358POPC   C2B16294  13.811  11.263  17.990  0.3653 -0.0772 -0.2023
 1358POPC   C3B16295  13.549  11.477  17.622 -0.1676 -0.2147  0.0809
 1358POPC   C4B16296  13.189  11.369  17.317  0.3339 -0.2712 -0.1069
 1359POPC   NC316297  10.693   3.973  19.107 -0.1377 -0.1294 -0.2004
 1359POPC   PO416298  10.937   4.166  19.279  0.1869 -0.3740  0.2545
 1359POPC   GL116299  10.942   4.339  18.916  0.0317  0.2297 -0.1621
 1359POPC   GL216300  10.964   4.190  18.635  0.0822 -0.1617  0.1388
 1359POPC   C1A16301  10.653   4.686  18.803 -0.2208  0.0654 -0.2885
 1359POPC   D2A16302  10.219   4.854  18.866 -0.0493  0.0069  0.0270
 1359POPC   C3A16303  10.182   4.705  18.459  0.2990 -0.1179 -0.0138
 1359POPC   C4A16304  10.192   4.354  18.122  0.2083  0.1415  0.1942
 1359POPC   C1B16305  11.230   4.257  18.259  0.0042 -0.0263  0.0339
 1359POPC   C2B16306  11.026   4.261  17.814 -0.0092  0.2329  0.0556
 1359POPC   C3B16307  10.814   4.483  17.451 -0.0293 -0.0644 -0.0386
 1359POPC   C4B16308  10.655   4.120  17.140  0.1599 -0.0752 -0.2831
 1360POPC   NC316309  16.232  21.933  19.236 -0.0374  0.3907  0.0777
 1360POPC   PO416310  16.121  21.612  19.042  0.1590  0.3409 -0.0695
 1360POPC   GL116311  16.111  21.385  18.763  0.3184 -0.0137  0.4689
 1360POPC   GL216312  15.773  21.392  18.701 -0.2025 -0.1147 -0.1178
 1360POPC   C1A16313  16.299  21.020  18.613 -0.1165  0.2238 -0.2733
 1360POPC   D2A16314  16.623  20.715  18.598 -0.2331 -0.0593 -0.1888
 1360POPC   C3A16315  16.922  20.528  18.294 -0.0177 -0.0001  0.1154
 1360POPC   C4A16316  17.219  20.267  18.068 -0.0373 -0.0034 -0.1507
 1360POPC   C1B16317  15.876  21.194  18.312 -0.2170 -0.2587  0.0007
 1360POPC   C2B16318  16.152  20.946  18.050  0.2195  0.2539  0.1085
 1360POPC   C3B16319  16.176  20.621  17.708 -0.3448 -0.0012  0.0072
 1360POPC   C4B16320  15.961  20.419  17.328  0.2050 -0.0602 -0.0715
 1361POPC   NC316321  30.252  25.358  18.707  0.0286  0.0417  0.1784
 1361POPC   PO416322  30.282  25.745  18.854  0.0431  0.0036 -0.2567
 1361POPC   GL116323  30.278  25.825  18.481 -0.2004 -0.0685  0.2673
 1361POPC   GL216324  30.459  25.648  18.367  0.1726  0.0288 -0.1675
 1361POPC   C1A16325  29.997  26.126  18.289 -0.1357 -0.0494  0.0900
 1361POPC   D2A16326  29.699  26.331  18.028  0.1078 -0.0360  0.0078
 1361POPC   C3A16327  29.812  26.041  17.692 -0.2778 -0.0689 -0.0176
 1361POPC   C4A16328  30.028  25.981  17.253  0.2526 -0.5629 -0.2427
 1361POPC   C1B16329  30.268  25.834  18.010  0.0932 -0.0158  0.2511
 1361POPC   C2B16330  30.282  26.129  17.680  0.0374 -0.1913 -0.2546
 1361POPC   C3B16331  30.336  26.342  17.254 -0.0430 -0.0791 -0.2376
 1361POPC   C4B16332  30.680  26.522  16.979  0.0358 -0.0785  0.1921
 1362POPC   NC316333  23.624   4.349  19.294  0.0399  0.0023 -0.2058
 1362POPC   PO416334  23.588   4.739  19.359  0.1662  0.3527 -0.2724
 1362POPC   GL116335  23.533   4.794  18.936 -0.0353 -0.5990 -0.0522
 1362POPC   GL216336  23.611   4.528  18.784  0.1040 -0.3757 -0.1518
 1362POPC   C1A16337  23.571   5.107  18.591 -0.0185 -0.1558 -0.1193
 1362POPC   D2A16338  23.650   5.115  18.104  0.2394 -0.0893 -0.0124
 1362POPC   C3A16339  23.579   5.467  17.765 -0.0129 -0.0726 -0.0149
 1362POPC   C4A16340  23.166   5.557  17.576  0.1730 -0.4164  0.0373
 1362POPC   C1B16341  23.552   4.576  18.249  0.1785  0.1749 -0.0860
 1362POPC   C2B16342  23.792   4.278  17.924 -0.1361 -0.1506 -0.0568
 1362POPC   C3B16343  24.138   4.326  17.630 -0.0359 -0.0011 -0.1800
 1362POPC   C4B16344  24.472   4.176  17.383  0.4955 -0.1503 -0.0906
 1363POPC   NC316345  27.610  20.908  19.248  0.0687 -0.2159 -0.1584
 1363POPC   PO416346  27.728  21.277  19.282  0.2926  0.0318 -0.1768
 1363POPC   GL116347  27.731  21.337  18.978 -0.0563 -0.1530 -0.2763
 1363POPC   GL216348  27.789  21.104  18.751  0.1198 -0.0623  0.0580
 1363POPC   C1A16349  27.484  21.505  18.628 -0.1765  0.0507  0.0354
 1363POPC   D2A16350  27.408  21.437  18.175 -0.1409  0.0157  0.0779
 1363POPC   C3A16351  27.563  21.651  17.780  0.0686 -0.2567 -0.2880
 1363POPC   C4A16352  27.628  21.859  17.370  0.0105 -0.0935 -0.1693
 1363POPC   C1B16353  27.640  21.036  18.269 -0.0206  0.1893 -0.0853
 1363POPC   C2B16354  27.606  21.104  17.804  0.0139  0.0609  0.1317
 1363POPC   C3B16355  27.888  20.942  17.429 -0.0144  0.3777  0.0709
 1363POPC   C4B16356  28.147  20.910  17.049 -0.1665 -0.2224 -0.2432
 1364POPC   NC316357  18.827  18.240  18.914  0.0463 -0.1782  0.0148
 1364POPC   PO416358  18.904  18.445  19.247  0.1448 -0.1432 -0.0717
 1364POPC   GL116359  19.033  18.668  19.010  0.3131  0.3683 -0.1904
 1364POPC   GL216360  19.304  18.853  19.073  0.5185  0.1661 -0.0489
 1364POPC   C1A16361  19.129  18.613  18.585  0.1868  0.0049 -0.0848
 1364POPC   D2A16362  19.252  18.558  18.149 -0.0613  0.3816 -0.1523
 1364POPC   C3A16363  19.181  18.813  17.797  0.0552  0.0486  0.1041
 1364POPC   C4A16364  19.269  18.939  17.374  0.1446 -0.1322 -0.0966
 1364POPC   C1B16365  19.524  18.807  18.686  0.0187 -0.1357  0.1634
 1364POPC   C2B16366  19.987  18.766  18.507 -0.1696  0.1030  0.1635
 1364POPC   C3B16367  20.312  18.578  18.239 -0.2353 -0.0979  0.0599
 1364POPC   C4B16368  20.679  18.561  17.983  0.2192 -0.1565 -0.1926
 1365POPC   NC316369  11.622  17.040  19.348  0.1310 -0.0978  0.1991
 1365POPC   PO416370  11.677  17.437  19.336 -0.0417  0.0097 -0.0750
 1365POPC   GL116371  11.642  17.354  18.976  0.0401  0.2180  0.0950
 1365POPC   GL216372  11.858  17.396  18.825 -0.1111 -0.0920 -0.0823
 1365POPC   C1A16373  11.408  17.399  18.557 -0.2106 -0.0638 -0.1960
 1365POPC   D2A16374  11.349  17.145  18.191  0.1390  0.3554 -0.3378
 1365POPC   C3A16375  11.415  17.315  17.742 -0.1947 -0.0466  0.1941
 1365POPC   C4A16376  11.370  17.121  17.343 -0.1777  0.0062 -0.0398
 1365POPC   C1B16377  11.818  17.039  18.515 -0.2693 -0.0867  0.0397
 1365POPC   C2B16378  11.863  16.884  18.077 -0.2087  0.2113  0.0243
 1365POPC   C3B16379  11.550  16.817  17.710  0.2475 -0.0460 -0.0103
 1365POPC   C4B16380  11.492  16.537  17.363  0.0641  0.1390 -0.0945
 1366POPC   NC316381  21.184  27.585  19.393 -0.5949 -0.0881 -0.1582
 1366POPC   PO416382  21.445  27.742  19.181  0.1123 -0.1173  0.0797
 1366POPC   GL116383  21.424  27.939  18.825 -0.1443 -0.0925 -0.0282
 1366POPC   GL216384  21.274  28.152  18.829  0.1709 -0.1693  0.2291
 1366POPC   C1A16385  21.796  27.825  18.522  0.1674  0.2362 -0.1847
 1366POPC   D2A16386  21.812  27.781  18.064 -0.1056 -0.0719  0.2580
 1366POPC   C3A16387  21.438  27.855  17.762  0.1156 -0.0100 -0.0476
 1366POPC   C4A16388  21.184  27.921  17.349  0.0378 -0.0224 -0.1864
 1366POPC   C1B16389  21.031  28.072  18.449 -0.1227  0.3769  0.0518
 1366POPC   C2B16390  20.853  27.991  18.051 -0.1654  0.1787 -0.0426
 1366POPC   C3B16391  20.955  27.632  17.747  0.2025 -0.0968 -0.2244
 1366POPC   C4B16392  20.723  27.483  17.386 -0.4544 -0.1515 -0.2401
 1367POPC   NC316393   7.734   1.009  19.594 -0.1329 -0.3396 -0.1761
 1367POPC   PO416394   7.422   0.804  19.555 -0.0493  0.0978  0.1207
 1367POPC   GL116395   7.804   0.626  19.391  0.0945 -0.3165  0.0053
 1367POPC   GL216396   7.722   0.503  19.137 -0.0598  0.0079  0.2244
 1367POPC   C1A16397   8.242   0.633  19.240 -0.0142 -0.2248  0.2138
 1367POPC   D2A16398   8.398   0.925  18.926 -0.0714  0.2460  0.3879
 1367POPC   C3A16399   8.431   0.719  18.500 -0.0944  0.0620  0.0842
 1367POPC   C4A16400   8.395   0.404  18.141 -0.2585  0.0285  0.0245
 1367POPC   C1B16401   7.877   0.830  18.829 -0.0610  0.0412  0.2647
 1367POPC   C2B16402   7.909   0.953  18.393  0.1849  0.1071  0.0125
 1367POPC   C3B16403   8.247   1.094  18.087 -0.1644 -0.2019 -0.0172
 1367POPC   C4B16404   8.417   0.943  17.712  0.3075  0.4344 -0.1861
 1368POPC   NC316405  12.251  27.228  19.773 -0.0192 -0.1255  0.3330
 1368POPC   PO416406  12.032  27.389  19.493 -0.0747 -0.0659  0.0831
 1368POPC   GL116407  11.966  27.465  19.161 -0.3039  0.0699  0.0077
 1368POPC   GL216408  12.024  27.224  18.994  0.3307  0.4727 -0.0697
 1368POPC   C1A16409  12.126  27.664  18.724 -0.1512  0.0591  0.3856
 1368POPC   D2A16410  12.117  28.026  18.406  0.1607  0.1260 -0.1900
 1368POPC   C3A16411  11.986  28.026  17.959 -0.1057 -0.1005 -0.1110
 1368POPC   C4A16412  11.910  28.261  17.543 -0.0019  0.2125  0.3427
 1368POPC   C1B16413  12.175  27.207  18.523  0.3643  0.1485 -0.3393
 1368POPC   C2B16414  12.349  27.211  18.054 -0.0129  0.0408 -0.0263
 1368POPC   C3B16415  12.674  27.205  17.754 -0.0904 -0.0508  0.2986
 1368POPC   C4B16416  13.162  27.145  17.746  0.0257 -0.1350 -0.1006
 1369POPC   NC316417  15.498  30.136  19.490  0.0395 -0.1238  0.0899
 1369POPC   PO416418  15.606  29.762  19.456  0.2587  0.0268  0.3697
 1369POPC   GL116419  15.563  29.799  19.035 -0.0721  0.0596  0.0702
 1369POPC   GL216420  15.422  30.134  18.946 -0.3875 -0.1273 -0.3139
 1369POPC   C1A16421  15.235  29.726  18.742 -0.1471 -0.3072  0.0922
 1369POPC   D2A16422  15.065  29.725  18.315  0.0916  0.0625  0.0051
 1369POPC   C3A16423  15.346  29.795  17.999 -0.0598  0.3854  0.1856
 1369POPC   C4A16424  15.275  29.951  17.559  0.1412  0.1557 -0.4310
 1369POPC   C1B16425  15.771  30.033  18.709  0.1128  0.1428 -0.0044
 1369POPC   C2B16426  16.063  30.148  18.390  0.2373 -0.0066  0.2927
 1369POPC   C3B16427  16.171  30.017  17.934 -0.0321 -0.1744  0.0761
 1369POPC   C4B16428  16.232  30.045  17.492 -0.3910 -0.1570  0.1856
 1370POPC   NC316429   6.162   8.185  18.637 -0.0188 -0.0400 -0.0946
 1370POPC   PO416430   6.052   8.262  18.997  0.1009  0.1670 -0.0646
 1370POPC   GL116431   5.719   8.146  18.689 -0.1415 -0.1275 -0.1536
 1370POPC   GL216432   5.680   7.958  18.821 -0.2665 -0.0353 -0.1530
 1370POPC   C1A16433   5.376   8.116  18.366  0.0688 -0.0318  0.0956
 1370POPC   D2A16434   5.155   8.395  18.080 -0.0748 -0.0477 -0.0126
 1370POPC   C3A16435   5.427   8.334  17.674 -0.0251 -0.0693  0.0385
 1370POPC   C4A16436   5.320   8.123  17.308  0.1632  0.1356 -0.0089
 1370POPC   C1B16437   5.801   7.811  18.433 -0.1058 -0.0471  0.0547
 1370POPC   C2B16438   5.898   7.677  17.983  0.0999  0.1248  0.0581
 1370POPC   C3B16439   6.139   7.598  17.628 -0.2412 -0.0748 -0.0430
 1370POPC   C4B16440   6.042   7.777  17.248  0.0759  0.2191  0.0275
 1371POPC   NC316441  22.119  24.606  19.144 -0.2088  0.0243  0.2529
 1371POPC   PO416442  21.985  24.950  18.997 -0.1288 -0.0749  0.0272
 1371POPC   GL116443  22.039  24.974  18.598  0.0386 -0.0079  0.0616
 1371POPC   GL216444  21.886  24.760  18.524 -0.0539 -0.0027 -0.1540
 1371POPC   C1A16445  21.854  25.275  18.318 -0.0279 -0.5068  0.0012
 1371POPC   D2A16446  21.916  25.477  17.893 -0.1065 -0.1051 -0.0055
 1371POPC   C3A16447  21.830  25.350  17.418  0.0506  0.0852  0.1737
 1371POPC   C4A16448  21.588  25.167  17.024  0.0991  0.3535  0.0189
 1371POPC   C1B16449  21.502  24.950  18.282 -0.0533 -0.1303  0.0171
 1371POPC   C2B16450  21.520  25.185  17.909 -0.0066  0.0221  0.0004
 1371POPC   C3B16451  21.298  25.264  17.569  0.0309  0.2884  0.1263
 1371POPC   C4B16452  20.915  25.228  17.270 -0.1128 -0.0570 -0.0758
 1372POPC   NC316453  31.121  14.045  19.675  0.4363 -0.4276  0.1189
 1372POPC   PO416454  30.764  13.899  19.595  0.2710  0.1290  0.3012
 1372POPC   GL116455  31.045  13.872  19.194 -0.0138 -0.0981 -0.0699
 1372POPC   GL216456  31.079  13.587  19.084 -0.1881  0.1601 -0.1470
 1372POPC   C1A16457  30.936  13.870  18.709  0.2296 -0.2232  0.1302
 1372POPC   D2A16458  31.198  13.930  18.340  0.1141 -0.0551 -0.1847
 1372POPC   C3A16459  31.263  13.815  17.911  0.2348  0.1157  0.2084
 1372POPC   C4A16460  31.515  13.879  17.496  0.0829 -0.0064  0.0086
 1372POPC   C1B16461  31.375  13.479  18.755  0.4274  0.4830 -0.5124
 1372POPC   C2B16462  31.569  13.496  18.320 -0.0496 -0.0935 -0.0981
 1372POPC   C3B16463  31.641  13.510  17.877  0.0708  0.1681 -0.2444
 1372POPC   C4B16464  31.853  13.332  17.506  0.0031  0.0738 -0.1790
 1373POPC   NC316465  19.006   8.413  19.370  0.1396 -0.0740  0.1767
 1373POPC   PO416466  18.934   7.980  19.329 -0.2681 -0.2999 -0.2660
 1373POPC   GL116467  18.854   8.039  18.954  0.1116  0.1101  0.2295
 1373POPC   GL216468  18.676   8.142  18.814 -0.2320  0.3562  0.6787
 1373POPC   C1A16469  19.076   7.774  18.634  0.0325 -0.1255 -0.0800
 1373POPC   D2A16470  18.966   7.308  18.555  0.1808 -0.0499  0.1280
 1373POPC   C3A16471  19.009   7.263  18.103 -0.0574 -0.0939  0.0601
 1373POPC   C4A16472  19.395   7.307  17.863 -0.3439  0.1995  0.1511
 1373POPC   C1B16473  18.919   8.181  18.387 -0.0238 -0.1846 -0.1014
 1373POPC   C2B16474  18.990   8.175  17.929 -0.2008 -0.1253  0.0560
 1373POPC   C3B16475  19.184   8.259  17.508  0.1746 -0.0401 -0.0934
 1373POPC   C4B16476  19.231   8.204  17.053  0.1588  0.2288  0.1061
 1374POPC   NC316477  21.331   0.685  19.116  0.1505  0.0481  0.4309
 1374POPC   PO416478  21.376   0.496  18.791 -0.0356 -0.1627  0.0400
 1374POPC   GL116479  21.373   0.526  18.357  0.3311  0.2536  0.4123
 1374POPC   GL216480  21.293   0.203  18.348  0.1100 -0.0543  0.2175
 1374POPC   C1A16481  21.123   0.792  18.112 -0.0039  0.1032  0.3439
 1374POPC   D2A16482  21.109   1.177  17.803  0.0876  0.1084 -0.2191
 1374POPC   C3A16483  21.033   1.211  17.381  0.0257 -0.2542 -0.3246
 1374POPC   C4A16484  21.149   0.953  17.011 -0.0446 -0.2604 -0.1159
 1374POPC   C1B16485  21.280   0.380  17.932 -0.2613  0.2880 -0.1113
 1374POPC   C2B16486  20.990   0.567  17.580 -0.0869 -0.1954  0.2886
 1374POPC   C3B16487  20.629   0.819  17.364  0.1084 -0.0450 -0.1070
 1374POPC   C4B16488  20.606   1.204  17.146  0.1240 -0.1552 -0.1584
 1375POPC   NC316489  20.048   7.975  19.160 -0.1300  0.3767  0.4356
 1375POPC   PO416490  20.194   8.322  19.139 -0.0021  0.0315  0.2299
 1375POPC   GL116491  20.359   8.254  18.806 -0.1533  0.3715  0.0943
 1375POPC   GL216492  20.097   8.063  18.705  0.0308  0.0672  0.4095
 1375POPC   C1A16493  20.812   8.067  18.779 -0.0853  0.0007 -0.1907
 1375POPC   D2A16494  21.008   8.073  18.351  0.0569 -0.2269  0.0631
 1375POPC   C3A16495  21.287   8.087  18.002 -0.1294  0.0870 -0.1154
 1375POPC   C4A16496  21.715   8.142  18.104 -0.2408 -0.0412  0.4954
 1375POPC   C1B16497  19.847   7.881  18.331 -0.2233 -0.0648 -0.2210
 1375POPC   C2B16498  20.020   7.674  17.965  0.0854 -0.2057  0.0729
 1375POPC   C3B16499  20.373   7.510  17.708  0.1479  0.1332  0.0819
 1375POPC   C4B16500  20.655   7.189  17.887 -0.1089 -0.0571  0.0522
 1376POPC   NC316501   9.845  18.643  19.376  0.0471 -0.1315 -0.3327
 1376POPC   PO416502   9.745  18.266  19.340 -0.2559  0.1096 -0.0212
 1376POPC   GL116503   9.898  18.186  19.055 -0.0673 -0.0619 -0.0371
 1376POPC   GL216504  10.197  18.173  19.030  0.1366  0.0618  0.2744
 1376POPC   C1A16505   9.639  17.998  18.680  0.0026 -0.2163 -0.0937
 1376POPC   D2A16506   9.714  17.930  18.321  0.0831  0.6193  0.3595
 1376POPC   C3A16507   9.822  18.272  18.036 -0.0167  0.0556 -0.0242
 1376POPC   C4A16508   9.776  18.690  17.796 -0.2404 -0.1582  0.1461
 1376POPC   C1B16509  10.511  18.183  18.680 -0.2414 -0.1600  0.1338
 1376POPC   C2B16510  10.447  18.260  18.227  0.0584  0.1906  0.3076
 1376POPC   C3B16511  10.224  18.457  17.875 -0.0338 -0.3508 -0.0989
 1376POPC   C4B16512  10.093  18.508  17.448  0.1227 -0.0678 -0.2262
 1377POPC   NC316513  13.143  29.422  19.842  0.0002  0.0188 -0.2809
 1377POPC   PO416514  13.110  29.282  19.468 -0.0695  0.1001 -0.3578
 1377POPC   GL116515  13.244  29.110  19.090  0.4074  0.1213 -0.2640
 1377POPC   GL216516  13.009  28.918  19.113  0.0355  0.1673 -0.1000
 1377POPC   C1A16517  13.386  28.979  18.675  0.0996 -0.1518 -0.1228
 1377POPC   D2A16518  13.326  28.881  18.201  0.0938  0.1132 -0.0665
 1377POPC   C3A16519  13.508  29.097  17.838 -0.2050  0.2947  0.2536
 1377POPC   C4A16520  13.352  29.469  17.665 -0.2373  0.1187  0.1212
 1377POPC   C1B16521  12.912  28.715  18.726  0.0199 -0.1235 -0.0280
 1377POPC   C2B16522  12.885  28.674  18.255  0.0343  0.0950 -0.0642
 1377POPC   C3B16523  12.813  28.573  17.800 -0.0280  0.0059  0.0535
 1377POPC   C4B16524  12.841  28.558  17.327  0.0462 -0.2269  0.3340
 1378POPC   NC316525  13.705   9.197  18.831 -0.0110 -0.1269  0.0722
 1378POPC   PO416526  13.492   9.112  19.142  0.1969  0.3272  0.1944
 1378POPC   GL116527  13.101   8.946  18.998 -0.4644  0.3377  0.1205
 1378POPC   GL216528  13.217   9.023  18.707  0.2807 -0.1965  0.0086
 1378POPC   C1A16529  12.777   8.705  18.780 -0.0548  0.4182 -0.2199
 1378POPC   D2A16530  12.476   8.371  18.854  0.1466 -0.0152 -0.1711
 1378POPC   C3A16531  12.314   8.128  18.468 -0.1567  0.0909  0.0965
 1378POPC   C4A16532  12.263   7.976  17.992 -0.1170  0.0439  0.0284
 1378POPC   C1B16533  13.236   9.079  18.258 -0.0344 -0.2093 -0.2585
 1378POPC   C2B16534  13.024   8.893  17.843  0.0429 -0.0562 -0.1594
 1378POPC   C3B16535  12.916   8.571  17.475 -0.0900  0.1799  0.3758
 1378POPC   C4B16536  12.722   8.201  17.197  0.0447  0.2642 -0.2278
 1379POPC   NC316537  18.452   9.177  19.295 -0.1200 -0.0005 -0.3239
 1379POPC   PO416538  18.617   9.165  18.939  0.0265  0.0674  0.0350
 1379POPC   GL116539  18.458   9.246  18.634  0.0709  0.3762 -0.0448
 1379POPC   GL216540  18.396   9.547  18.603  0.2164  0.1795 -0.3468
 1379POPC   C1A16541  18.624   9.000  18.286  0.0005 -0.0138 -0.0303
 1379POPC   D2A16542  18.980   8.665  18.169  0.0970  0.0305 -0.2478
 1379POPC   C3A16543  19.177   8.739  17.757  0.0647 -0.0580 -0.2361
 1379POPC   C4A16544  19.340   8.739  17.295  0.2353  0.0903  0.0329
 1379POPC   C1B16545  18.234   9.379  18.217 -0.1511 -0.0726 -0.0402
 1379POPC   C2B16546  18.347   9.278  17.793 -0.0028  0.0661 -0.0323
 1379POPC   C3B16547  18.306   8.968  17.385  0.1132  0.0053 -0.3445
 1379POPC   C4B16548  18.362   8.641  16.990  0.0757 -0.0076  0.0843
 1380POPC   NC316549   1.704   2.574  19.698 -0.3959  0.3112 -0.2718
 1380POPC   PO416550   1.859   2.634  19.326 -0.0763 -0.0636  0.1931
 1380POPC   GL116551   1.888   2.644  18.896 -0.0410  0.4004  0.0784
 1380POPC   GL216552   2.157   2.498  18.680 -0.3926 -0.0692 -0.0398
 1380POPC   C1A16553   2.001   2.911  18.521  0.0625 -0.0154 -0.2771
 1380POPC   D2A16554   2.388   2.899  18.230  0.0382  0.4278 -0.2719
 1380POPC   C3A16555   2.566   3.148  17.922  0.1602  0.0235 -0.0984
 1380POPC   C4A16556   2.810   3.417  17.598  0.0975 -0.1968 -0.1327
 1380POPC   C1B16557   2.100   2.514  18.199 -0.1812 -0.1916  0.1026
 1380POPC   C2B16558   2.146   2.716  17.772  0.3235  0.2959  0.0941
 1380POPC   C3B16559   2.526   2.849  17.514  0.1584 -0.4298  0.1407
 1380POPC   C4B16560   2.695   2.651  17.139 -0.0411  0.0533  0.1017
 1381POPC   NC316561   6.314  10.573  19.253  0.1791  0.0658 -0.0467
 1381POPC   PO416562   6.199  10.478  18.921 -0.1515 -0.0849  0.0564
 1381POPC   GL116563   6.350  10.209  18.592  0.0593  0.0808  0.1849
 1381POPC   GL216564   6.089  10.307  18.461 -0.3927  0.0910 -0.0021
 1381POPC   C1A16565   6.471  10.245  18.133 -0.2004 -0.0529  0.0053
 1381POPC   D2A16566   6.630  10.395  17.730  0.2278  0.0083  0.0813
 1381POPC   C3A16567   6.696  10.888  17.793  0.0675  0.2863 -0.0056
 1381POPC   C4A16568   6.548  11.159  18.100  0.1789 -0.0890 -0.1083
 1381POPC   C1B16569   5.904  10.392  18.043  0.1898  0.0139  0.3040
 1381POPC   C2B16570   6.152  10.442  17.639  0.0168 -0.3390 -0.2340
 1381POPC   C3B16571   6.410  10.490  17.263  0.2000 -0.2340 -0.2479
 1381POPC   C4B16572   6.536  10.513  16.804  0.0975  0.1088  0.1968
 1382POPC   NC316573   4.772  17.221  19.382 -0.1334  0.0047 -0.3668
 1382POPC   PO416574   5.031  17.490  19.503  0.0706 -0.2103  0.1666
 1382POPC   GL116575   4.948  17.473  19.029  0.3954 -0.4505  0.2412
 1382POPC   GL216576   5.129  17.223  18.989  0.1805 -0.1419  0.0191
 1382POPC   C1A16577   4.942  17.883  18.780  0.0542 -0.3064  0.1518
 1382POPC   D2A16578   5.119  18.180  18.474 -0.1905 -0.1612 -0.0810
 1382POPC   C3A16579   4.845  18.547  18.437 -0.1217  0.0601  0.0043
 1382POPC   C4A16580   4.408  18.648  18.420  0.0788  0.1642  0.1044
 1382POPC   C1B16581   5.155  17.453  18.617 -0.1470 -0.3675 -0.0313
 1382POPC   C2B16582   5.318  17.759  18.271 -0.2430  0.3755  0.0504
 1382POPC   C3B16583   5.581  17.926  17.940  0.1703 -0.2050 -0.1508
 1382POPC   C4B16584   5.749  18.077  17.526  0.1828 -0.0341  0.1269
 1383POPC   NC316585  25.333  15.619  19.612  0.0396 -0.0112  0.0960
 1383POPC   PO416586  25.190  15.549  19.253 -0.2754 -0.0989  0.0488
 1383POPC   GL116587  25.229  15.606  18.823  0.0186  0.0602 -0.2709
 1383POPC   GL216588  24.908  15.494  18.765 -0.2099 -0.1230  0.0590
 1383POPC   C1A16589  25.092  15.841  18.422  0.0888  0.4729 -0.3363
 1383POPC   D2A16590  24.742  15.983  18.156  0.4033 -0.1486  0.0785
 1383POPC   C3A16591  24.813  16.134  17.724  0.0199  0.1313 -0.0526
 1383POPC   C4A16592  24.821  15.929  17.296  0.0171 -0.1352 -0.1316
 1383POPC   C1B16593  24.595  15.383  18.362  0.3689  0.0602  0.2618
 1383POPC   C2B16594  24.353  15.322  17.954  0.0429  0.0485  0.1638
 1383POPC   C3B16595  23.926  15.177  17.994  0.0477  0.1179 -0.0150
 1383POPC   C4B16596  23.451  15.123  18.143 -0.2856  0.0476  0.2694
 1384POPC   NC316597   7.596  30.386  19.407 -0.0796  0.0820 -0.0698
 1384POPC   PO416598   7.820  30.066  19.473  0.1326  0.1470 -0.0315
 1384POPC   GL116599   7.766  30.057  19.101 -0.0167  0.3214  0.1609
 1384POPC   GL216600   7.488  30.007  19.051  0.0328  0.0560 -0.0932
 1384POPC   C1A16601   7.900  30.405  18.819 -0.0304  0.2796 -0.2656
 1384POPC   D2A16602   8.052  30.767  18.642 -0.2527 -0.1217 -0.1401
 1384POPC   C3A16603   7.912  30.746  18.202  0.0537  0.0324  0.0297
 1384POPC   C4A16604   7.995  30.663  17.746 -0.0042  0.1315 -0.0619
 1384POPC   C1B16605   7.111  29.823  18.909 -0.2410 -0.1777 -0.1603
 1384POPC   C2B16606   6.885  29.805  18.495 -0.0144  0.2456  0.0593
 1384POPC   C3B16607   6.690  29.882  18.085  0.2892  0.0884  0.0597
 1384POPC   C4B16608   6.437  29.952  17.694  0.2800 -0.1107 -0.0421
 1385POPC   NC316609  11.081  25.554  19.118 -0.0416  0.0213 -0.1576
 1385POPC   PO416610  10.945  25.178  19.109  0.0951 -0.1373  0.0904
 1385POPC   GL116611  11.118  25.034  18.822  0.4460  0.0750 -0.2330
 1385POPC   GL216612  11.326  24.994  18.652  0.0408 -0.0268  0.1707
 1385POPC   C1A16613  10.963  25.192  18.408 -0.0024 -0.2210  0.0881
 1385POPC   D2A16614  10.710  25.260  18.028  0.1595 -0.0236  0.0300
 1385POPC   C3A16615  10.362  25.542  17.975 -0.1188  0.0187 -0.0363
 1385POPC   C4A16616  10.279  25.805  18.362 -0.1043  0.0600 -0.0013
 1385POPC   C1B16617  11.384  25.007  18.189 -0.1293  0.0737  0.0952
 1385POPC   C2B16618  11.310  25.284  17.835 -0.2949  0.0243  0.0968
 1385POPC   C3B16619  11.003  25.314  17.475 -0.0876 -0.0779  0.3428
 1385POPC   C4B16620  10.845  25.357  17.039 -0.0913  0.1177 -0.1250
 1386POPC   NC316621  16.561  20.920  19.233 -0.1119 -0.0844 -0.2418
 1386POPC   PO416622  16.942  20.919  19.300 -0.0035 -0.1749  0.0009
 1386POPC   GL116623  17.214  20.891  19.006  0.0961  0.0722 -0.2534
 1386POPC   GL216624  17.367  21.075  18.943 -0.1249 -0.2034 -0.1779
 1386POPC   C1A16625  17.040  20.926  18.544  0.1626  0.2777 -0.0587
 1386POPC   D2A16626  16.793  21.109  18.260 -0.1761 -0.1329  0.0350
 1386POPC   C3A16627  16.614  20.788  17.970 -0.2639 -0.2460  0.1320
 1386POPC   C4A16628  16.737  20.362  17.825  0.0774  0.3068  0.3096
 1386POPC   C1B16629  17.298  21.332  18.624  0.1113 -0.2750 -0.1676
 1386POPC   C2B16630  17.346  21.261  18.186 -0.0399  0.5167 -0.2115
 1386POPC   C3B16631  17.456  21.242  17.755  0.1063  0.1699 -0.0321
 1386POPC   C4B16632  17.742  21.347  17.377  0.1913 -0.0878  0.0886
 1387POPC   NC316633   5.836  28.149  19.504  0.2110 -0.0536  0.0052
 1387POPC   PO416634   5.527  28.160  19.297 -0.1224  0.2915 -0.2413
 1387POPC   GL116635   5.258  28.370  18.930  0.1049 -0.1055 -0.2710
 1387POPC   GL216636   5.463  28.158  18.783 -0.1083  0.2594  0.0901
 1387POPC   C1A16637   5.090  28.486  18.516 -0.2564  0.1264 -0.0755
 1387POPC   D2A16638   4.820  28.519  18.133  0.2315 -0.0794  0.0438
 1387POPC   C3A16639   4.847  28.247  17.730 -0.1080 -0.0105  0.2488
 1387POPC   C4A16640   4.931  27.995  17.353  0.2153  0.1215 -0.3176
 1387POPC   C1B16641   5.576  28.328  18.372  0.0252  0.0692 -0.3478
 1387POPC   C2B16642   5.386  28.512  18.021 -0.2547 -0.0408 -0.1670
 1387POPC   C3B16643   5.341  28.536  17.542  0.1604  0.2762  0.0496
 1387POPC   C4B16644   5.249  28.617  17.056 -0.1463  0.0663  0.2264
 1388POPC   NC316645  14.055  25.937  19.087 -0.0248 -0.3759 -0.0603
 1388POPC   PO416646  13.807  26.209  19.188  0.1149 -0.0776 -0.2494
 1388POPC   GL116647  13.777  26.240  18.758 -0.2078 -0.1640  0.0443
 1388POPC   GL216648  13.587  25.913  18.850 -0.2452  0.0382 -0.0324
 1388POPC   C1A16649  13.785  26.425  18.298  0.0542 -0.0555 -0.1360
 1388POPC   D2A16650  13.917  26.524  17.842 -0.1703 -0.1108 -0.1085
 1388POPC   C3A16651  13.875  26.141  17.546 -0.0321 -0.1197  0.1574
 1388POPC   C4A16652  13.848  26.145  17.031  0.2218  0.0950 -0.1838
 1388POPC   C1B16653  13.582  25.864  18.405  0.1133 -0.0391 -0.0393
 1388POPC   C2B16654  13.594  25.927  17.941 -0.0229 -0.2326 -0.2936
 1388POPC   C3B16655  13.336  25.765  17.585  0.0961  0.3149  0.2102
 1388POPC   C4B16656  12.989  25.897  17.296  0.1139 -0.1016 -0.1114
 1389POPC   NC316657  15.453  14.465  19.681  0.2924 -0.0317 -0.1204
 1389POPC   PO416658  15.341  14.707  19.385  0.0546  0.2419  0.4963
 1389POPC   GL116659  15.219  14.397  19.063 -0.0056  0.1111  0.1098
 1389POPC   GL216660  14.885  14.519  18.937 -0.0985  0.0071 -0.4162
 1389POPC   C1A16661  15.188  14.441  18.578  0.0124 -0.0291 -0.0846
 1389POPC   D2A16662  15.045  14.192  18.177 -0.2440 -0.1063  0.1492
 1389POPC   C3A16663  14.897  13.932  17.851  0.0901  0.0561 -0.0965
 1389POPC   C4A16664  14.772  13.787  17.438  0.0392 -0.0728  0.2404
 1389POPC   C1B16665  14.960  14.060  18.861 -0.1722 -0.0852 -0.0851
 1389POPC   C2B16666  14.997  13.753  18.460  0.0110  0.1102 -0.1261
 1389POPC   C3B16667  15.328  13.725  18.115 -0.5153  0.0246 -0.0183
 1389POPC   C4B16668  15.762  13.648  18.139 -0.1085 -0.1486  0.0706
 1390POPC   NC316669  25.756  15.783  19.414  0.1136  0.1626 -0.3308
 1390POPC   PO416670  25.784  15.439  19.316  0.2173  0.0837 -0.0093
 1390POPC   GL116671  25.612  15.584  19.025  0.0596  0.0649 -0.0603
 1390POPC   GL216672  25.659  15.763  18.911 -0.2610 -0.1085 -0.1092
 1390POPC   C1A16673  25.521  15.467  18.528  0.2083  0.0461  0.0657
 1390POPC   D2A16674  25.110  15.284  18.328 -0.2847  0.3012 -0.0156
 1390POPC   C3A16675  24.978  15.560  17.990  0.1513  0.1621 -0.1793
 1390POPC   C4A16676  24.673  15.621  17.642 -0.2082 -0.1266  0.2301
 1390POPC   C1B16677  25.799  16.003  18.456  0.1582  0.2918  0.1164
 1390POPC   C2B16678  25.635  16.166  18.041 -0.4045  0.0014  0.1603
 1390POPC   C3B16679  25.452  16.167  17.586  0.1288 -0.1167 -0.2672
 1390POPC   C4B16680  25.162  16.303  17.248  0.1359 -0.2837  0.1289
 1391POPC   NC316681  21.172  14.682  19.477 -0.1345  0.0177  0.0523
 1391POPC   PO416682  21.001  14.778  19.122 -0.0190  0.2374 -0.2751
 1391POPC   GL116683  21.083  14.698  18.746 -0.1431  0.0281 -0.0755
 1391POPC   GL216684  21.278  14.883  18.627  0.0216  0.0766 -0.1756
 1391POPC   C1A16685  20.918  14.717  18.337  0.1160 -0.2067 -0.0487
 1391POPC   D2A16686  20.887  14.723  17.862 -0.1476  0.0667  0.1877
 1391POPC   C3A16687  21.110  14.606  17.400  0.1330 -0.2504 -0.0971
 1391POPC   C4A16688  21.456  14.817  17.138 -0.3594  0.0055  0.0682
 1391POPC   C1B16689  21.302  15.099  18.232 -0.2394 -0.0910 -0.2438
 1391POPC   C2B16690  21.279  15.015  17.799 -0.1059  0.1713 -0.0103
 1391POPC   C3B16691  21.389  15.271  17.421 -0.0950  0.0777 -0.2572
 1391POPC   C4B16692  21.703  15.520  17.236  0.0301  0.1051  0.1630
 1392POPC   NC316693  25.116  18.082  19.349 -0.0919 -0.3974 -0.0422
 1392POPC   PO416694  24.872  18.161  19.634 -0.0402  0.1504  0.0421
 1392POPC   GL116695  24.538  18.121  19.708  0.4089  0.1328  0.0268
 1392POPC   GL216696  24.471  17.872  19.822 -0.2033  0.3263 -0.0355
 1392POPC   C1A16697  24.051  18.134  19.698  0.1274 -0.1976 -0.0124
 1392POPC   D2A16698  23.665  17.977  19.505  0.3112  0.0317  0.0486
 1392POPC   C3A16699  23.242  18.183  19.553  0.0705  0.3126  0.0522
 1392POPC   C4A16700  22.783  18.118  19.699 -0.1407 -0.0183 -0.1951
 1392POPC   C1B16701  24.223  17.638  20.150 -0.1507  0.1426  0.2186
 1392POPC   C2B16702  23.857  17.267  20.177 -0.0673 -0.2375  0.1701
 1392POPC   C3B16703  23.438  17.307  20.361 -0.0540  0.2235  0.1552
 1392POPC   C4B16704  23.133  17.618  20.271  0.2803  0.1672  0.1515
 1393POPC   NC316705  26.158  14.382  19.264 -0.2851  0.2537  0.0602
 1393POPC   PO416706  26.185  14.693  19.036  0.2386 -0.1965 -0.0683
 1393POPC   GL116707  26.013  14.699  18.709  0.0686 -0.0638 -0.0114
 1393POPC   GL216708  26.012  14.445  18.607 -0.0653  0.2416  0.0549
 1393POPC   C1A16709  25.734  14.896  18.449 -0.2306  0.3825 -0.1273
 1393POPC   D2A16710  25.585  15.183  18.078 -0.1665  0.0797 -0.0859
 1393POPC   C3A16711  25.492  15.645  18.045  0.0000  0.1665 -0.1660
 1393POPC   C4A16712  25.207  16.024  17.973 -0.3056  0.1892 -0.0283
 1393POPC   C1B16713  25.746  14.387  18.196 -0.1773 -0.4431  0.1734
 1393POPC   C2B16714  25.561  14.476  17.802  0.0283 -0.0696 -0.1060
 1393POPC   C3B16715  25.477  14.515  17.338 -0.0553 -0.4109  0.0580
 1393POPC   C4B16716  25.385  14.577  16.861 -0.0018 -0.0063 -0.1772
 1394POPC   NC316717   8.684   3.673  19.215 -0.2524  0.1471 -0.1782
 1394POPC   PO416718   9.036   3.779  19.046 -0.2078  0.0193 -0.3764
 1394POPC   GL116719   9.211   3.561  18.736  0.0341 -0.1275  0.1103
 1394POPC   GL216720   8.909   3.495  18.657 -0.3664 -0.2114  0.2051
 1394POPC   C1A16721   9.174   3.122  18.521  0.4294  0.1104 -0.2233
 1394POPC   D2A16722   9.444   2.822  18.360  0.2249  0.1517 -0.1182
 1394POPC   C3A16723   9.178   2.810  17.994  0.0694  0.1028 -0.0766
 1394POPC   C4A16724   9.119   2.584  17.560 -0.0072  0.0905 -0.0394
 1394POPC   C1B16725   8.862   3.468  18.223  0.1316  0.2698 -0.1230
 1394POPC   C2B16726   8.692   3.356  17.832  0.1985  0.0903  0.0611
 1394POPC   C3B16727   8.534   3.312  17.383 -0.1097 -0.2193  0.2062
 1394POPC   C4B16728   8.330   3.325  17.017  0.2551  0.0985  0.0663
 1395POPC   NC316729  16.909  23.160  19.274  0.0674  0.0165  0.0100
 1395POPC   PO416730  16.993  22.883  19.083 -0.4717  0.0113  0.3337
 1395POPC   GL116731  16.908  22.613  18.801 -0.0451 -0.0510  0.0333
 1395POPC   GL216732  17.150  22.658  18.671 -0.0337  0.3552  0.5868
 1395POPC   C1A16733  16.589  22.554  18.457 -0.1410 -0.2390  0.0871
 1395POPC   D2A16734  16.603  22.370  18.097  0.1198  0.0242  0.0163
 1395POPC   C3A16735  16.286  22.302  17.754  0.1768  0.0620 -0.0683
 1395POPC   C4A16736  16.245  22.256  17.298  0.2829  0.6471  0.0088
 1395POPC   C1B16737  16.994  22.239  18.511 -0.0904 -0.1154 -0.2860
 1395POPC   C2B16738  16.957  22.003  18.122  0.3065 -0.2905 -0.1816
 1395POPC   C3B16739  16.941  21.922  17.629  0.0444  0.0639 -0.1074
 1395POPC   C4B16740  17.124  22.026  17.221  0.1098 -0.3835 -0.3591
 1396POPC   NC316741   5.890  17.342  19.401 -0.4230 -0.2569  0.1947
 1396POPC   PO416742   5.569  17.391  19.190 -0.3987 -0.0517  0.2840
 1396POPC   GL116743   5.630  17.070  19.022  0.2476 -0.0662  0.2173
 1396POPC   GL216744   5.589  17.118  18.728  0.0979 -0.0766 -0.0876
 1396POPC   C1A16745   5.575  16.603  18.839  0.0135 -0.3018 -0.0338
 1396POPC   D2A16746   5.810  16.242  18.573  0.3195  0.1249  0.0198
 1396POPC   C3A16747   5.706  16.185  18.140  0.0928  0.0886 -0.1412
 1396POPC   C4A16748   5.857  16.075  17.706  0.0339  0.0863  0.0529
 1396POPC   C1B16749   5.530  17.209  18.312 -0.0199  0.1178 -0.1978
 1396POPC   C2B16750   5.560  17.403  17.893  0.0586 -0.0793  0.0876
 1396POPC   C3B16751   5.391  17.488  17.448 -0.1407  0.0718 -0.1204
 1396POPC   C4B16752   5.246  17.360  17.011 -0.1363  0.0573  0.0233
 1397POPC   NC316753  16.132   4.722  19.659 -0.0352 -0.1944  0.1617
 1397POPC   PO416754  15.962   4.370  19.467 -0.1310  0.0313  0.4266
 1397POPC   GL116755  15.728   4.333  19.134  0.2274  0.1531  0.0876
 1397POPC   GL216756  15.687   4.571  19.022  0.1686  0.2459  0.0471
 1397POPC   C1A16757  15.873   4.157  18.773 -0.0592  0.0450  0.0333
 1397POPC   D2A16758  16.087   3.975  18.422  0.1185  0.1866 -0.0156
 1397POPC   C3A16759  15.923   3.950  17.983 -0.2235 -0.0463 -0.0779
 1397POPC   C4A16760  15.714   3.921  17.556  0.3264  0.0092 -0.2121
 1397POPC   C1B16761  15.696   4.635  18.594 -0.0289 -0.3564  0.2197
 1397POPC   C2B16762  15.565   4.780  18.232  0.0198 -0.4608 -0.1660
 1397POPC   C3B16763  15.393   4.699  17.832  0.1563 -0.1759 -0.1293
 1397POPC   C4B16764  15.272   4.447  17.448 -0.1550  0.0152  0.3203
 1398POPC   NC316765  15.040  30.638  19.098  0.1771  0.0779 -0.3387
 1398POPC   PO416766  15.426  30.575  19.257 -0.0734  0.0461 -0.0503
 1398POPC   GL116767  15.457  30.633  18.834 -0.0381  0.2217  0.0593
 1398POPC   GL216768  15.312  30.793  18.691 -0.1299 -0.2377 -0.0987
 1398POPC   C1A16769  15.705  30.574  18.416  0.1276 -0.0982 -0.0028
 1398POPC   D2A16770  15.935  30.521  17.968 -0.4839 -0.0444  0.4285
 1398POPC   C3A16771  15.696  30.731  17.676 -0.0053  0.2127 -0.1709
 1398POPC   C4A16772  15.427  31.040  17.439  0.3710 -0.0365  0.4951
 1398POPC   C1B16773  15.265  30.708  18.185  0.1637  0.3504 -0.0186
 1398POPC   C2B16774  15.312  30.383  17.825 -0.0877 -0.0326 -0.0696
 1398POPC   C3B16775  15.427  30.450  17.373  0.0090  0.3073  0.4418
 1398POPC   C4B16776  15.170  30.732  17.176 -0.0787 -0.0064  0.2584
 1399POPC   NC316777   1.630  11.269  19.762  0.1470 -0.4384  0.2377
 1399POPC   PO416778   1.350  11.562  19.615  0.0535 -0.1383 -0.2765
 1399POPC   GL116779   1.450  11.627  19.233 -0.2305 -0.4502  0.1738
 1399POPC   GL216780   1.539  11.429  19.201 -0.1652  0.0654  0.1261
 1399POPC   C1A16781   1.114  11.676  18.895 -0.0797 -0.2377 -0.1210
 1399POPC   D2A16782   0.952  11.679  18.487  0.2760 -0.0803  0.1257
 1399POPC   C3A16783   1.003  11.474  18.064 -0.1677 -0.0295 -0.2693
 1399POPC   C4A16784   1.293  11.526  17.716  0.2647  0.0810  0.1526
 1399POPC   C1B16785   1.989  11.414  19.006  0.0876 -0.2212  0.4349
 1399POPC   C2B16786   2.305  11.344  18.684 -0.0626 -0.0405  0.1516
 1399POPC   C3B16787   2.756  11.154  18.619 -0.1032  0.3116 -0.0771
 1399POPC   C4B16788   3.150  10.943  18.520 -0.0073 -0.0197  0.1148
 1400POPC   NC316789  28.694  31.435  19.189  0.1596 -0.0907 -0.0110
 1400POPC   PO416790  28.426  31.156  19.098  0.0177 -0.1196 -0.2111
 1400POPC   GL116791  28.407  31.125  18.812 -0.0514  0.0031 -0.2052
 1400POPC   GL216792  28.705  31.112  18.727  0.3071 -0.0903  0.2532
 1400POPC   C1A16793  28.271  31.319  18.420  0.0553 -0.1402  0.2469
 1400POPC   D2A16794  28.203  31.019  18.091 -0.0679  0.0390 -0.3193
 1400POPC   C3A16795  28.259  31.130  17.651  0.0123  0.1367 -0.1787
 1400POPC   C4A16796  28.068  31.192  17.255  0.1765  0.0527 -0.3089
 1400POPC   C1B16797  28.761  31.141  18.304 -0.4251  0.2081 -0.1485
 1400POPC   C2B16798  28.688  30.923  17.873 -0.2178  0.0906  0.3665
 1400POPC   C3B16799  28.601  30.654  17.436  0.1679 -0.1386 -0.1536
 1400POPC   C4B16800  28.515  30.326  17.117 -0.3819  0.2555  0.1908
 1401POPC   NC316801  14.326  13.851  19.641 -0.0774 -0.1827 -0.2742
 1401POPC   PO416802  13.953  13.734  19.554 -0.1237  0.1743 -0.0927
 1401POPC   GL116803  13.742  13.437  19.241 -0.5701 -0.6356  0.3044
 1401POPC   GL216804  13.632  13.154  19.206 -0.0043  0.2622 -0.0482
 1401POPC   C1A16805  13.498  13.456  18.834  0.1979  0.0927  0.2179
 1401POPC   D2A16806  13.422  13.293  18.440 -0.0593  0.2629  0.1647
 1401POPC   C3A16807  13.045  13.564  18.505  0.2992  0.0100 -0.0859
 1401POPC   C4A16808  12.947  13.777  18.898 -0.4087  0.3177 -0.2325
 1401POPC   C1B16809  13.470  12.971  18.861 -0.0012 -0.0475  0.4713
 1401POPC   C2B16810  13.357  12.804  18.443 -0.0936 -0.1621 -0.2017
 1401POPC   C3B16811  13.232  12.766  18.005  0.1067 -0.0703  0.0247
 1401POPC   C4B16812  12.915  12.531  17.707 -0.2008 -0.0710 -0.1947
 1402POPC   NC316813  19.424  19.615  19.231 -0.1798  0.0554 -0.0271
 1402POPC   PO416814  19.422  19.988  19.375 -0.1144 -0.1703 -0.2205
 1402POPC   GL116815  19.658  19.956  19.039 -0.0589  0.1873 -0.1978
 1402POPC   GL216816  19.976  19.869  18.980 -0.2905  0.1765  0.0836
 1402POPC   C1A16817  19.364  19.850  18.704 -0.0684  0.0510  0.2091
 1402POPC   D2A16818  19.112  19.686  18.393 -0.1082  0.3351  0.0071
 1402POPC   C3A16819  19.012  19.753  17.943  0.0963  0.1031  0.0609
 1402POPC   C4A16820  19.075  19.977  17.579  0.0994  0.2031 -0.2781
 1402POPC   C1B16821  19.850  19.827  18.528  0.0240  0.1470  0.2788
 1402POPC   C2B16822  19.897  19.878  18.062  0.1345  0.2460 -0.2775
 1402POPC   C3B16823  20.237  19.936  17.710  0.2625 -0.2176  0.1250
 1402POPC   C4B16824  20.483  20.124  17.295 -0.0608  0.2716  0.0388
 1403POPC   NC316825  31.554  13.765  19.159  0.3202 -0.0656 -0.0562
 1403POPC   PO416826  31.443  14.138  19.291  0.0174  0.0652 -0.2501
 1403POPC   GL116827  31.357  14.068  18.921  0.3014  0.0787 -0.1556
 1403POPC   GL216828  31.355  14.348  18.857 -0.0978 -0.0107  0.1791
 1403POPC   C1A16829  31.620  13.930  18.550  0.0921  0.2260  0.2138
 1403POPC   D2A16830  31.703  13.919  18.127  0.3172  0.2133  0.1281
 1403POPC   C3A16831  31.981  13.948  17.772  0.1594 -0.2240  0.4430
 1403POPC   C4A16832  32.026  13.776  17.343  0.1320 -0.3662 -0.0044
 1403POPC   C1B16833  31.440  14.350  18.393  0.1354 -0.0404 -0.2373
 1403POPC   C2B16834  31.422  14.367  17.977 -0.2565 -0.1786 -0.3251
 1403POPC   C3B16835  31.210  14.246  17.578  0.4794 -0.2705  0.0775
 1403POPC   C4B16836  31.188  14.046  17.148  0.0213  0.0300 -0.0056
 1404POPC   NC316837  16.532  23.538  19.372  0.0685 -0.1289 -0.0191
 1404POPC   PO416838  16.160  23.495  19.373  0.1576  0.2078  0.1179
 1404POPC   GL116839  16.265  23.431  18.965 -0.0971 -0.0870  0.4319
 1404POPC   GL216840  16.054  23.237  18.885 -0.1176 -0.0745 -0.0513
 1404POPC   C1A16841  16.402  23.770  18.669  0.2358  0.0600 -0.1356
 1404POPC   D2A16842  16.316  24.073  18.351  0.0004  0.1269 -0.0703
 1404POPC   C3A16843  16.227  24.025  17.888  0.0911 -0.0432 -0.2407
 1404POPC   C4A16844  16.360  23.776  17.522 -0.0237  0.0513  0.0721
 1404POPC   C1B16845  15.829  23.427  18.549 -0.1706  0.2041  0.1481
 1404POPC   C2B16846  15.818  23.583  18.125 -0.2477  0.1382 -0.0132
 1404POPC   C3B16847  15.838  23.652  17.708 -0.1256 -0.1681 -0.1097
 1404POPC   C4B16848  15.706  23.534  17.261 -0.1702 -0.2662 -0.1607
 1405POPC   NC316849  11.597  21.220  19.752  0.0522  0.3038  0.1188
 1405POPC   PO416850  11.797  21.335  19.454  0.1912 -0.0044  0.2327
 1405POPC   GL116851  12.100  21.369  19.161 -0.0780  0.1157 -0.4235
 1405POPC   GL216852  12.001  21.150  19.043  0.0930  0.1389 -0.1353
 1405POPC   C1A16853  12.171  21.428  18.706 -0.1653 -0.3601  0.2222
 1405POPC   D2A16854  12.409  21.613  18.391  0.1481  0.1301  0.1139
 1405POPC   C3A16855  12.409  21.494  17.942  0.0639  0.2312 -0.2720
 1405POPC   C4A16856  12.289  21.579  17.519 -0.1056 -0.0689  0.1456
 1405POPC   C1B16857  11.690  21.043  18.678 -0.0221 -0.0396  0.1838
 1405POPC   C2B16858  11.565  21.066  18.189  0.0838 -0.1247 -0.4938
 1405POPC   C3B16859  11.683  20.849  17.818  0.1128  0.0270 -0.1097
 1405POPC   C4B16860  11.624  20.963  17.407 -0.0141  0.0309  0.0998
 1406POPC   NC316861  12.279  25.192  19.569  0.0785 -0.0889  0.1299
 1406POPC   PO416862  12.386  25.514  19.357  0.0615  0.1321 -0.1279
 1406POPC   GL116863  12.204  25.786  19.141 -0.0560  0.1606  0.0669
 1406POPC   GL216864  12.451  25.795  18.953  0.0401  0.1635 -0.2417
 1406POPC   C1A16865  11.990  25.887  18.719 -0.1259 -0.2012 -0.2639
 1406POPC   D2A16866  11.679  25.965  18.383 -0.0253  0.1792 -0.0691
 1406POPC   C3A16867  11.830  25.862  17.940  0.1133 -0.1698 -0.1905
 1406POPC   C4A16868  11.852  26.094  17.538 -0.0358 -0.1692 -0.1126
 1406POPC   C1B16869  12.571  25.841  18.564  0.0842  0.0073 -0.3323
 1406POPC   C2B16870  12.676  25.866  18.130 -0.2753  0.1581  0.0551
 1406POPC   C3B16871  12.657  25.789  17.659 -0.0648  0.2636 -0.1421
 1406POPC   C4B16872  12.500  25.423  17.364  0.1349 -0.0825 -0.2930
 1407POPC   NC316873  20.109  16.686  18.483  0.2234 -0.1023 -0.1305
 1407POPC   PO416874  20.313  16.502  18.747  0.1387 -0.1034  0.0707
 1407POPC   GL116875  20.536  16.291  18.464 -0.0773 -0.0167 -0.0219
 1407POPC   GL216876  20.775  16.309  18.559 -0.0893  0.0641 -0.1839
 1407POPC   C1A16877  20.569  16.623  18.186  0.0795  0.0574 -0.1757
 1407POPC   D2A16878  20.515  16.764  17.735 -0.0426  0.0804  0.0707
 1407POPC   C3A16879  20.317  16.832  17.336  0.0720 -0.1553  0.0744
 1407POPC   C4A16880  20.008  16.987  17.037  0.0918 -0.0158  0.1507
 1407POPC   C1B16881  20.832  16.152  18.122  0.2732  0.3478  0.1019
 1407POPC   C2B16882  21.056  16.169  17.738 -0.2034 -0.0550  0.1588
 1407POPC   C3B16883  21.453  16.367  17.647  0.2146 -0.0638  0.0585
 1407POPC   C4B16884  21.855  16.405  17.401  0.0851 -0.1371  0.1009
 1408POPC   NC316885  14.193   9.039  19.094 -0.0459 -0.2818 -0.2596
 1408POPC   PO416886  14.170   9.345  18.850 -0.0916  0.0581  0.0640
 1408POPC   GL116887  14.281   9.183  18.502  0.2396 -0.0564 -0.0718
 1408POPC   GL216888  14.444   8.968  18.428  0.2331  0.0471  0.1954
 1408POPC   C1A16889  14.382   9.298  18.053 -0.3211 -0.1894 -0.0248
 1408POPC   D2A16890  14.511   8.990  17.738  0.0967 -0.3596  0.0083
 1408POPC   C3A16891  14.701   8.813  17.373  0.1942 -0.1037  0.3422
 1408POPC   C4A16892  14.705   8.712  16.940 -0.1310 -0.0072 -0.0770
 1408POPC   C1B16893  14.184   8.748  18.091  0.1687  0.2693 -0.1926
 1408POPC   C2B16894  14.107   8.337  17.799 -0.1678  0.1083  0.3385
 1408POPC   C3B16895  13.875   8.328  17.394  0.0913  0.2075 -0.1296
 1408POPC   C4B16896  13.724   8.490  16.998 -0.0653 -0.1833 -0.0649
 1409POPC   NC316897   5.268   1.665  19.702  0.3238  0.0956 -0.1555
 1409POPC   PO416898   4.900   1.736  19.570  0.3107  0.2098 -0.1136
 1409POPC   GL116899   4.869   1.740  19.226 -0.4013 -0.0234  0.1421
 1409POPC   GL216900   5.217   1.592  19.195  0.2585 -0.2300  0.1658
 1409POPC   C1A16901   4.562   1.622  18.925 -0.1101 -0.4066 -0.1658
 1409POPC   D2A16902   4.453   1.797  18.511  0.0705  0.1431  0.2167
 1409POPC   C3A16903   4.189   1.681  18.131 -0.1377 -0.0199  0.2058
 1409POPC   C4A16904   4.169   1.710  17.639 -0.0971  0.0979 -0.0491
 1409POPC   C1B16905   5.076   1.632  18.717 -0.0423 -0.1960 -0.1487
 1409POPC   C2B16906   5.142   1.558  18.270 -0.0150 -0.0551  0.0037
 1409POPC   C3B16907   5.197   1.732  17.815  0.3033 -0.0593 -0.1625
 1409POPC   C4B16908   5.193   1.923  17.335 -0.0593  0.1040  0.0259
 1410POPC   NC316909  11.579  14.184  19.722 -0.1542  0.0001 -0.0284
 1410POPC   PO416910  11.508  14.202  19.337 -0.4124 -0.1819 -0.2605
 1410POPC   GL116911  11.346  14.002  19.013 -0.1035 -0.4354  0.4529
 1410POPC   GL216912  11.532  14.127  18.853 -0.3390 -0.3423 -0.0068
 1410POPC   C1A16913  11.042  14.236  18.700 -0.1769 -0.3379  0.3622
 1410POPC   D2A16914  10.863  14.290  18.258 -0.1342  0.4300 -0.0992
 1410POPC   C3A16915  10.968  14.306  17.782 -0.3257 -0.0767  0.3641
 1410POPC   C4A16916  11.257  14.571  17.513 -0.1984 -0.0310  0.1588
 1410POPC   C1B16917  11.432  13.926  18.485  0.1437 -0.0427 -0.0135
 1410POPC   C2B16918  11.560  13.624  18.138  0.1441 -0.3408 -0.1938
 1410POPC   C3B16919  11.512  13.290  17.842 -0.1854  0.2946  0.2439
 1410POPC   C4B16920  11.553  13.111  17.425  0.3429 -0.0578  0.0114
 1411POPC   NC316921   1.425  28.316  19.748 -0.1226  0.2146  0.1123
 1411POPC   PO416922   1.345  27.934  19.755 -0.1466 -0.0167 -0.0861
 1411POPC   GL116923   1.037  28.070  19.444 -0.1214 -0.1013 -0.1086
 1411POPC   GL216924   1.214  27.905  19.267  0.0144 -0.0585 -0.2554
 1411POPC   C1A16925   0.706  27.931  19.109 -0.1162  0.1926  0.0275
 1411POPC   D2A16926   0.597  27.664  18.773  0.3769  0.1535  0.0347
 1411POPC   C3A16927   0.535  27.987  18.489  0.0111  0.0386  0.2541
 1411POPC   C4A16928   0.550  28.185  18.075 -0.1781  0.0056 -0.0578
 1411POPC   C1B16929   1.091  27.848  18.777  0.0547 -0.1843 -0.3025
 1411POPC   C2B16930   1.205  28.067  18.389 -0.1785  0.3682 -0.0476
 1411POPC   C3B16931   0.980  27.948  17.958 -0.0658  0.2268 -0.0467
 1411POPC   C4B16932   0.795  27.884  17.565 -0.1782  0.3509  0.1978
 1412POPC   NC316933   8.231  22.434  19.690  0.1932 -0.2354  0.2820
 1412POPC   PO416934   8.567  22.601  19.878 -0.1213 -0.0543 -0.0419
 1412POPC   GL116935   8.653  22.494  19.504 -0.2078  0.0181 -0.1103
 1412POPC   GL216936   8.708  22.151  19.615 -0.0242 -0.1118 -0.1724
 1412POPC   C1A16937   8.344  22.235  19.248 -0.0665 -0.2812 -0.3250
 1412POPC   D2A16938   8.267  22.268  18.765  0.2305 -0.1394  0.1826
 1412POPC   C3A16939   8.302  22.502  18.347 -0.0139 -0.0536  0.0060
 1412POPC   C4A16940   8.015  22.630  17.986  0.0551 -0.2875 -0.1482
 1412POPC   C1B16941   8.662  21.891  19.237  0.0017  0.1931  0.0985
 1412POPC   C2B16942   8.581  21.865  18.789  0.0450  0.0679 -0.2687
 1412POPC   C3B16943   8.379  21.965  18.418 -0.0593 -0.3337  0.1177
 1412POPC   C4B16944   8.020  22.153  18.161 -0.1057 -0.5046 -0.1889
 1413POPC   NC316945  28.514  26.237  19.532  0.0018  0.2754 -0.2316
 1413POPC   PO416946  28.154  26.164  19.381 -0.1950  0.1620 -0.0142
 1413POPC   GL116947  28.223  26.405  19.019 -0.0471  0.3107  0.4753
 1413POPC   GL216948  28.266  26.714  19.053  0.2290 -0.1409 -0.1216
 1413POPC   C1A16949  28.295  26.260  18.593  0.3089 -0.1902  0.0779
 1413POPC   D2A16950  28.672  26.291  18.255  0.1630  0.4274  0.0353
 1413POPC   C3A16951  28.917  26.579  17.964  0.3592  0.0575  0.2924
 1413POPC   C4A16952  29.060  26.809  17.608  0.0314 -0.3767 -0.2658
 1413POPC   C1B16953  27.958  26.628  18.770 -0.0595 -0.1161 -0.0712
 1413POPC   C2B16954  27.871  26.435  18.368  0.2147  0.1123 -0.2103
 1413POPC   C3B16955  27.791  26.370  17.950  0.0594 -0.1667  0.2514
 1413POPC   C4B16956  27.654  26.565  17.548  0.1566 -0.0404  0.0178
 1414POPC   NC316957  28.537   2.358  19.894  0.2616 -0.4071  0.6184
 1414POPC   PO416958  28.624   2.090  19.627  0.0523 -0.1399  0.2113
 1414POPC   GL116959  28.485   2.156  19.346  0.0181  0.1576 -0.1464
 1414POPC   GL216960  28.586   2.012  19.084  0.2199  0.0255 -0.0923
 1414POPC   C1A16961  28.599   2.529  19.092  0.2645 -0.0447 -0.1152
 1414POPC   D2A16962  28.819   2.489  18.704 -0.1648 -0.0952 -0.1740
 1414POPC   C3A16963  28.809   2.808  18.373  0.0085  0.1667 -0.1927
 1414POPC   C4A16964  28.967   2.762  17.988 -0.2237 -0.0812  0.2091
 1414POPC   C1B16965  28.400   2.272  18.711  0.1280 -0.0073 -0.0434
 1414POPC   C2B16966  28.482   2.411  18.341  0.0970  0.4171 -0.2387
 1414POPC   C3B16967  28.374   2.686  17.931  0.3188 -0.1694 -0.1243
 1414POPC   C4B16968  28.481   2.811  17.538  0.0167  0.1000 -0.0856
 1415POPC   NC316969   5.191   2.697  19.111 -0.0020 -0.1872  0.0611
 1415POPC   PO416970   4.998   3.053  19.228 -0.0972 -0.1885  0.1200
 1415POPC   GL116971   4.970   3.166  18.841 -0.1172 -0.1933 -0.0884
 1415POPC   GL216972   5.080   3.486  18.929  0.0699  0.2312  0.1268
 1415POPC   C1A16973   5.161   2.931  18.485  0.1146  0.0255  0.1469
 1415POPC   D2A16974   5.388   2.845  18.089 -0.2068 -0.3081  0.1274
 1415POPC   C3A16975   5.119   2.639  17.757  0.1117  0.3484 -0.0688
 1415POPC   C4A16976   4.991   2.202  17.690  0.1163  0.0366 -0.1781
 1415POPC   C1B16977   5.226   3.453  18.482 -0.1223 -0.0775  0.0419
 1415POPC   C2B16978   5.362   3.383  18.070 -0.3061 -0.1919 -0.1658
 1415POPC   C3B16979   5.563   3.185  17.716 -0.0178 -0.1828 -0.0275
 1415POPC   C4B16980   5.608   2.905  17.323 -0.2321  0.1429  0.1663
 1416POPC   NC316981  28.246  12.637  19.571 -0.2607 -0.1870 -0.0741
 1416POPC   PO416982  27.959  12.893  19.636  0.3190  0.0695  0.0476
 1416POPC   GL116983  27.948  12.754  19.250  0.2310  0.0368  0.0653
 1416POPC   GL216984  27.673  12.582  19.206 -0.0344  0.1286  0.0354
 1416POPC   C1A16985  28.244  12.703  18.923 -0.0548  0.0038  0.2219
 1416POPC   D2A16986  28.527  13.028  18.827  0.1882 -0.3674 -0.1897
 1416POPC   C3A16987  28.699  13.428  18.700  0.1303 -0.0337  0.0286
 1416POPC   C4A16988  29.117  13.616  18.472 -0.0008 -0.0588 -0.2520
 1416POPC   C1B16989  27.699  12.844  18.766  0.1563  0.1466 -0.0457
 1416POPC   C2B16990  27.974  13.039  18.423  0.0050  0.1054  0.0864
 1416POPC   C3B16991  28.093  13.094  17.962  0.1438 -0.0489 -0.0253
 1416POPC   C4B16992  28.405  13.072  17.620  0.3916 -0.1131  0.4749
 1417POPC   NC316993  30.036   5.392  19.456 -0.0248 -0.0219 -0.0209
 1417POPC   PO416994  30.377   5.572  19.355 -0.1072 -0.0583 -0.0289
 1417POPC   GL116995  30.390   5.569  18.932  0.1136 -0.4846 -0.2242
 1417POPC   GL216996  30.226   5.848  18.867 -0.1760 -0.1505  0.1028
 1417POPC   C1A16997  30.673   5.595  18.602 -0.1633  0.0287 -0.0825
 1417POPC   D2A16998  30.840   5.932  18.372 -0.1303  0.3246  0.2943
 1417POPC   C3A16999  30.983   5.995  17.963 -0.3180  0.1601  0.2888
 1417POPC   C4A17000  31.412   6.083  17.795  0.0262 -0.0308 -0.1539
 1417POPC   C1B17001  30.345   5.912  18.483 -0.0750  0.2416 -0.0223
 1417POPC   C2B17002  30.449   5.761  18.049  0.2034  0.0484  0.1492
 1417POPC   C3B17003  30.661   5.493  17.820 -0.1695 -0.3579  0.2345
 1417POPC   C4B17004  30.828   5.159  17.517  0.1906 -0.1531  0.2786
 1418POPC   NC317005  24.072  14.958  20.017 -0.0176 -0.1446 -0.2068
 1418POPC   PO417006  24.164  14.723  19.695  0.0151 -0.3748 -0.3258
 1418POPC   GL117007  23.991  14.664  19.309 -0.4898  0.0031 -0.1629
 1418POPC   GL217008  23.916  14.478  19.095  0.1632  0.0987 -0.1265
 1418POPC   C1A17009  23.753  14.960  19.004 -0.0095  0.1494 -0.0069
 1418POPC   D2A17010  23.754  14.961  18.583 -0.0572  0.2893  0.1150
 1418POPC   C3A17011  23.819  14.691  18.227 -0.1554  0.2946 -0.0885
 1418POPC   C4A17012  24.181  14.305  18.221 -0.2427  0.1213  0.1010
 1418POPC   C1B17013  23.723  14.492  18.728  0.1716 -0.0354  0.2905
 1418POPC   C2B17014  23.594  14.285  18.413  0.1289  0.1950  0.2021
 1418POPC   C3B17015  23.571  14.286  17.915 -0.0561  0.0607 -0.1588
 1418POPC   C4B17016  23.779  14.302  17.466  0.0749 -0.1600 -0.1775
 1419POPC   NC317017   3.798  19.787  19.360  0.1952 -0.2336  0.4721
 1419POPC   PO417018   3.927  19.533  19.639 -0.1407 -0.2908 -0.2933
 1419POPC   GL117019   4.146  19.359  19.340  0.0879  0.0472  0.0801
 1419POPC   GL217020   4.442  19.368  19.360  0.0622  0.3280  0.1973
 1419POPC   C1A17021   4.045  19.440  18.849  0.1072 -0.2269 -0.0699
 1419POPC   D2A17022   3.957  19.607  18.467 -0.1653 -0.0422 -0.0478
 1419POPC   C3A17023   3.992  19.706  18.018 -0.0127 -0.1170  0.4264
 1419POPC   C4A17024   4.087  19.530  17.567 -0.0365  0.0441 -0.1009
 1419POPC   C1B17025   4.558  19.395  18.931 -0.1176  0.2531 -0.0660
 1419POPC   C2B17026   4.512  19.487  18.521 -0.2060 -0.2540  0.4518
 1419POPC   C3B17027   4.435  19.428  18.025  0.0799  0.0295  0.0718
 1419POPC   C4B17028   4.472  19.016  17.809 -0.2207 -0.1232  0.3581
 1420POPC   NC317029   6.770  16.220  20.058 -0.1925  0.1797  0.0894
 1420POPC   PO417030   6.457  16.136  19.888  0.2159  0.1273  0.0070
 1420POPC   GL117031   6.773  15.871  19.711  0.0700  0.1725 -0.4372
 1420POPC   GL217032   6.918  15.680  19.884  0.1657 -0.0707 -0.0821
 1420POPC   C1A17033   7.111  15.934  19.383 -0.3557 -0.2087 -0.1995
 1420POPC   D2A17034   7.551  16.021  19.455  0.1258  0.2718 -0.1056
 1420POPC   C3A17035   7.622  16.093  19.054 -0.1817  0.0298  0.1144
 1420POPC   C4A17036   7.706  15.874  18.635  0.1594  0.0601 -0.1138
 1420POPC   C1B17037   7.375  15.702  19.783  0.2869  0.0973  0.1570
 1420POPC   C2B17038   7.702  15.461  19.531  0.0866 -0.3739  0.2204
 1420POPC   C3B17039   8.121  15.376  19.459 -0.0438 -0.0457  0.1519
 1420POPC   C4B17040   8.490  15.150  19.588 -0.3367 -0.1712  0.0007
 1421POPC   NC317041  16.120  11.574  18.848 -0.0795  0.2561  0.0839
 1421POPC   PO417042  15.987  11.924  18.948  0.2728 -0.1069 -0.2044
 1421POPC   GL117043  16.119  11.954  18.545  0.4898 -0.0515  0.0351
 1421POPC   GL217044  16.430  11.926  18.638 -0.1990  0.0724  0.1266
 1421POPC   C1A17045  15.884  12.113  18.146 -0.0493  0.0139  0.1445
 1421POPC   D2A17046  15.732  12.096  17.745  0.1006 -0.1049  0.4489
 1421POPC   C3A17047  15.814  11.831  17.351 -0.0354 -0.0495  0.1986
 1421POPC   C4A17048  15.774  11.796  16.886  0.0723  0.0570  0.0720
 1421POPC   C1B17049  16.611  12.090  18.270 -0.3244 -0.0530  0.4397
 1421POPC   C2B17050  16.598  12.087  17.777  0.0016  0.0046 -0.0230
 1421POPC   C3B17051  16.278  12.177  17.475  0.0243 -0.0795 -0.0325
 1421POPC   C4B17052  15.874  12.369  17.322  0.1234 -0.0700  0.1070
 1422POPC   NC317053  28.092  20.925  19.170  0.0127 -0.1024 -0.0582
 1422POPC   PO417054  28.458  20.990  19.287 -0.2083  0.2050 -0.2141
 1422POPC   GL117055  28.534  21.050  18.980 -0.1776 -0.0019  0.1756
 1422POPC   GL217056  28.396  20.886  18.767  0.0156 -0.2176  0.2702
 1422POPC   C1A17057  28.733  21.280  18.607 -0.1213 -0.1271 -0.3537
 1422POPC   D2A17058  28.950  21.686  18.478 -0.1668 -0.0459 -0.0395
 1422POPC   C3A17059  29.075  21.760  18.084 -0.0777  0.0990 -0.2440
 1422POPC   C4A17060  29.430  21.781  17.816  0.1568  0.1231  0.0313
 1422POPC   C1B17061  28.120  20.786  18.438 -0.1932 -0.0729  0.0421
 1422POPC   C2B17062  27.970  20.629  17.977 -0.1323  0.0482  0.0312
 1422POPC   C3B17063  27.758  20.473  17.523  0.1079 -0.2640 -0.0610
 1422POPC   C4B17064  27.395  20.335  17.315  0.2057  0.0599  0.1746
 1423POPC   NC317065  16.854  15.485  19.498 -0.0344  0.2478 -0.2043
 1423POPC   PO417066  17.018  15.744  19.271  0.0030 -0.0892 -0.0391
 1423POPC   GL117067  17.361  15.783  19.060 -0.3121  0.0621 -0.0247
 1423POPC   GL217068  17.238  15.839  18.832 -0.0929  0.0760 -0.1288
 1423POPC   C1A17069  17.675  15.791  18.676  0.1805 -0.2357 -0.1641
 1423POPC   D2A17070  17.992  15.749  18.380 -0.3141  0.0467 -0.0773
 1423POPC   C3A17071  17.883  15.674  17.913  0.2952  0.3114 -0.1398
 1423POPC   C4A17072  17.569  15.688  17.572  0.1508 -0.3416  0.0009
 1423POPC   C1B17073  17.235  16.061  18.454  0.0349 -0.2080 -0.4231
 1423POPC   C2B17074  17.193  16.103  17.986 -0.0112 -0.0546 -0.0988
 1423POPC   C3B17075  17.111  15.868  17.514  0.0247 -0.1141 -0.3743
 1423POPC   C4B17076  16.887  15.728  17.119  0.1446  0.1601  0.2796
 1424POPC   NC317077  17.020  17.683  19.191 -0.1256 -0.3100 -0.2764
 1424POPC   PO417078  17.347  17.830  19.275  0.1612 -0.0293  0.0425
 1424POPC   GL117079  17.393  17.960  18.910 -0.1903 -0.0742  0.0473
 1424POPC   GL217080  17.530  17.831  18.679 -0.0408 -0.2759  0.2962
 1424POPC   C1A17081  17.176  18.166  18.570  0.0142  0.2425  0.2819
 1424POPC   D2A17082  17.066  18.082  18.129  0.0153 -0.1485 -0.0078
 1424POPC   C3A17083  17.362  18.352  17.932 -0.0357  0.0876 -0.0060
 1424POPC   C4A17084  17.443  18.384  17.471 -0.1754  0.2201  0.0718
 1424POPC   C1B17085  17.439  17.751  18.253  0.0914  0.0318 -0.0764
 1424POPC   C2B17086  17.140  17.503  18.111  0.0774  0.1726  0.0625
 1424POPC   C3B17087  16.842  17.307  17.831  0.0653  0.3672 -0.2061
 1424POPC   C4B17088  16.475  16.980  17.797  0.1100  0.1330  0.0299
 1425POPC   NC317089   2.797  24.826  19.310 -0.2535  0.0452 -0.0204
 1425POPC   PO417090   2.977  24.541  19.586  0.0110 -0.0587  0.0297
 1425POPC   GL117091   2.793  24.398  19.253 -0.1373 -0.0802 -0.0966
 1425POPC   GL217092   2.646  24.218  19.148 -0.1133 -0.3101  0.1807
 1425POPC   C1A17093   2.663  24.712  18.863 -0.1119  0.4082  0.2430
 1425POPC   D2A17094   2.612  24.985  18.462  0.0631  0.3113  0.2549
 1425POPC   C3A17095   2.962  25.028  18.179 -0.1831  0.0703 -0.1582
 1425POPC   C4A17096   3.057  25.085  17.738 -0.2376 -0.2917  0.0540
 1425POPC   C1B17097   3.024  24.336  18.860 -0.0866 -0.2464  0.0670
 1425POPC   C2B17098   2.976  24.493  18.417  0.0730  0.0944  0.0734
 1425POPC   C3B17099   2.928  24.563  17.983 -0.2806 -0.2502 -0.2907
 1425POPC   C4B17100   2.757  24.708  17.548 -0.1175 -0.2869  0.4554
 1426POPC   NC317101  31.439   7.247  19.154  0.0798 -0.3302 -0.5305
 1426POPC   PO417102  31.231   7.560  19.193  0.1353  0.1704 -0.2043
 1426POPC   GL117103  31.292   7.548  18.729 -0.0095 -0.1224  0.1645
 1426POPC   GL217104  31.097   7.297  18.690  0.1059 -0.2423  0.2343
 1426POPC   C1A17105  31.250   7.941  18.463  0.2172  0.4232 -0.1852
 1426POPC   D2A17106  30.999   8.191  18.227  0.2736  0.2171 -0.2588
 1426POPC   C3A17107  30.934   8.089  17.761 -0.1911 -0.3509 -0.0106
 1426POPC   C4A17108  30.843   7.715  17.456 -0.1319  0.1078 -0.0678
 1426POPC   C1B17109  31.217   7.461  18.291 -0.3118  0.0154  0.2614
 1426POPC   C2B17110  31.281   7.784  17.964 -0.0660  0.2274  0.1852
 1426POPC   C3B17111  31.443   7.685  17.525  0.3992  0.2002  0.0846
 1426POPC   C4B17112  31.694   7.392  17.247  0.0545  0.0597  0.0084
 1427POPC   NC317113  22.524  21.007  19.279  0.3468 -0.1664  0.0902
 1427POPC   PO417114  22.672  21.367  19.240 -0.1609 -0.2423 -0.0515
 1427POPC   GL117115  22.528  21.302  18.911  0.1307 -0.0492 -0.1322
 1427POPC   GL217116  22.208  21.268  19.018 -0.0971 -0.1428  0.5426
 1427POPC   C1A17117  22.404  21.423  18.457 -0.0967 -0.1664  0.2930
 1427POPC   D2A17118  22.302  21.302  17.975 -0.2850  0.0880  0.0275
 1427POPC   C3A17119  22.014  21.396  17.622 -0.1611 -0.0150 -0.1523
 1427POPC   C4A17120  21.769  21.514  17.214 -0.1768 -0.3276  0.0711
 1427POPC   C1B17121  22.070  21.019  18.692 -0.0417 -0.1337 -0.1999
 1427POPC   C2B17122  22.162  20.863  18.258  0.0518 -0.2874 -0.1900
 1427POPC   C3B17123  22.105  20.768  17.797 -0.4758 -0.0216  0.2139
 1427POPC   C4B17124  22.304  20.372  17.630 -0.0916  0.3181  0.4984
 1428POPC   NC317125   9.275  21.185  19.584  0.0250 -0.1215  0.0139
 1428POPC   PO417126   9.541  21.429  19.691 -0.1867  0.2888 -0.0230
 1428POPC   GL117127   9.397  21.427  19.190  0.0860 -0.1306  0.0844
 1428POPC   GL217128   9.458  21.691  19.003  0.1376 -0.0151 -0.3239
 1428POPC   C1A17129   9.585  21.178  18.775  0.1988 -0.2536 -0.3223
 1428POPC   D2A17130   9.534  20.891  18.410 -0.0081 -0.2776 -0.2393
 1428POPC   C3A17131   9.305  20.841  18.005  0.1770  0.0158  0.0762
 1428POPC   C4A17132   9.196  20.652  17.578  0.0856  0.2402 -0.1812
 1428POPC   C1B17133   9.487  21.667  18.535 -0.2715 -0.1842 -0.1964
 1428POPC   C2B17134   9.675  21.728  18.092  0.1270  0.1186  0.0967
 1428POPC   C3B17135  10.123  21.719  17.903 -0.0618  0.0658  0.2751
 1428POPC   C4B17136  10.404  21.844  17.538  0.0432  0.2994 -0.0474
 1429POPC   NC317137  14.452   2.820  19.311 -0.1514  0.0080  0.3190
 1429POPC   PO417138  14.551   3.137  19.416  0.1279 -0.2228  0.2063
 1429POPC   GL117139  14.614   3.183  19.054 -0.0802  0.0386 -0.1967
 1429POPC   GL217140  14.546   3.524  19.029  0.0946  0.5093 -0.0873
 1429POPC   C1A17141  14.495   3.109  18.624 -0.2508  0.1370  0.0761
 1429POPC   D2A17142  14.655   3.172  18.151  0.2261 -0.0433 -0.0356
 1429POPC   C3A17143  14.358   3.110  17.844  0.0944 -0.1376 -0.0547
 1429POPC   C4A17144  14.350   3.348  17.402 -0.2022 -0.2298 -0.0979
 1429POPC   C1B17145  14.192   3.411  18.759  0.0586 -0.2188 -0.0265
 1429POPC   C2B17146  13.862   3.308  18.474  0.0151  0.3034 -0.1125
 1429POPC   C3B17147  13.800   3.292  18.057  0.4002  0.0995  0.0162
 1429POPC   C4B17148  13.906   3.228  17.625  0.0887 -0.1747  0.1053
 1430POPC   NC317149   7.958   4.082  19.118 -0.1105  0.0038  0.1752
 1430POPC   PO417150   7.592   4.225  19.087  0.1748  0.1339 -0.0021
 1430POPC   GL117151   7.678   4.231  18.741  0.1164  0.1058  0.1643
 1430POPC   GL217152   7.381   4.181  18.615  0.0213 -0.0463 -0.1733
 1430POPC   C1A17153   7.649   4.016  18.301  0.2100 -0.3898 -0.3665
 1430POPC   D2A17154   7.433   3.921  17.954 -0.3332  0.2433  0.3591
 1430POPC   C3A17155   7.376   3.527  17.629  0.4035  0.0512  0.2101
 1430POPC   C4A17156   7.290   3.059  17.570  0.1359  0.0831  0.0363
 1430POPC   C1B17157   7.357   4.377  18.150 -0.1847 -0.4911  0.0383
 1430POPC   C2B17158   7.192   4.304  17.709 -0.1612 -0.4299  0.0016
 1430POPC   C3B17159   7.146   3.941  17.439  0.1196  0.0145 -0.1827
 1430POPC   C4B17160   7.200   3.516  17.156  0.1890  0.2093 -0.2418
 1431POPC   NC317161  27.405   8.612  19.548  0.2000  0.1119  0.0174
 1431POPC   PO417162  27.705   8.335  19.517 -0.2373 -0.0294  0.1410
 1431POPC   GL117163  27.944   8.283  19.228 -0.0018 -0.3260 -0.0289
 1431POPC   GL217164  28.074   8.075  19.118 -0.2578 -0.0071 -0.1367
 1431POPC   C1A17165  28.185   8.422  18.817  0.2578 -0.0067 -0.1283
 1431POPC   D2A17166  28.174   8.703  18.378 -0.0477 -0.0673 -0.1730
 1431POPC   C3A17167  28.240   8.573  17.928 -0.0495  0.0785 -0.1774
 1431POPC   C4A17168  28.274   8.451  17.447  0.0882 -0.3426  0.2650
 1431POPC   C1B17169  27.833   8.105  18.663 -0.0716 -0.0865 -0.1628
 1431POPC   C2B17170  27.783   8.318  18.199  0.1589 -0.0431  0.1117
 1431POPC   C3B17171  27.709   8.416  17.777 -0.1338 -0.3868 -0.2170
 1431POPC   C4B17172  27.724   8.451  17.360  0.3790 -0.1847 -0.1637
 1432POPC   NC317173   7.565  26.194  18.962 -0.1534 -0.2483 -0.1499
 1432POPC   PO417174   7.623  25.885  19.219  0.1618 -0.1386 -0.3052
 1432POPC   GL117175   7.802  25.708  18.844  0.2158 -0.4387 -0.4513
 1432POPC   GL217176   7.503  25.734  18.701 -0.1833 -0.0804  0.3102
 1432POPC   C1A17177   8.062  25.628  18.444  0.0554  0.0887 -0.2729
 1432POPC   D2A17178   8.378  25.481  18.240 -0.4721  0.0469 -0.0935
 1432POPC   C3A17179   8.580  25.564  17.804 -0.0930  0.2769 -0.0504
 1432POPC   C4A17180   8.792  25.672  17.423  0.2810  0.2220 -0.4210
 1432POPC   C1B17181   7.298  25.699  18.280  0.1821  0.0717 -0.0568
 1432POPC   C2B17182   7.071  25.594  17.869 -0.2856 -0.0695 -0.0736
 1432POPC   C3B17183   7.110  25.310  17.516  0.0471 -0.3938 -0.2081
 1432POPC   C4B17184   7.314  24.855  17.478 -0.1776 -0.0251 -0.0401
 1433POPC   NC317185  22.358   0.344  19.494 -0.0558  0.1174 -0.2513
 1433POPC   PO417186  22.524   0.011  19.350 -0.0475 -0.0032 -0.0447
 1433POPC   GL117187  22.597  -0.217  18.978  0.0734  0.0609  0.2763
 1433POPC   GL217188  22.346  -0.329  18.993  0.0160  0.1304 -0.0021
 1433POPC   C1A17189  22.435  -0.308  18.524  0.2224  0.2747  0.0349
 1433POPC   D2A17190  22.423  -0.413  18.076 -0.0323 -0.0090 -0.2263
 1433POPC   C3A17191  22.052  -0.416  17.822  0.4356 -0.0952 -0.1630
 1433POPC   C4A17192  21.580  -0.439  17.739 -0.1812  0.0500  0.0192
 1433POPC   C1B17193  21.932  -0.316  18.803  0.3883 -0.1958  0.0126
 1433POPC   C2B17194  21.622  -0.150  18.508 -0.0327  0.0783 -0.0494
 1433POPC   C3B17195  21.641  -0.068  18.039 -0.3029  0.1196  0.0434
 1433POPC   C4B17196  21.740   0.017  17.601 -0.2310 -0.0443  0.0384
 1434POPC   NC317197   7.264  24.057  19.738  0.1405 -0.2893  0.1647
 1434POPC   PO417198   7.530  23.789  19.624  0.1109  0.1296  0.0722
 1434POPC   GL117199   7.700  23.856  19.266  0.0152 -0.0681  0.0338
 1434POPC   GL217200   7.890  23.614  19.234  0.1302 -0.1196 -0.3077
 1434POPC   C1A17201   7.509  23.504  18.976  0.0001  0.0871 -0.0511
 1434POPC   D2A17202   7.361  23.237  18.636 -0.0779 -0.0883 -0.0626
 1434POPC   C3A17203   7.053  23.461  18.365 -0.0246 -0.0057 -0.1207
 1434POPC   C4A17204   6.778  23.770  18.246 -0.1208  0.0355  0.0042
 1434POPC   C1B17205   7.910  23.728  18.858  0.4194  0.3982  0.1862
 1434POPC   C2B17206   7.712  23.620  18.446 -0.1977  0.0817  0.1941
 1434POPC   C3B17207   7.460  23.324  18.156 -0.0104 -0.2933  0.0622
 1434POPC   C4B17208   7.065  23.118  17.977  0.0750  0.2326 -0.1854
 1435POPC   NC317209  29.940  26.158  18.930 -0.2605  0.0394 -0.0811
 1435POPC   PO417210  29.617  26.083  19.187 -0.0877 -0.1457 -0.1525
 1435POPC   GL117211  29.543  25.909  18.855  0.2275  0.3030 -0.0996
 1435POPC   GL217212  29.750  25.750  18.658 -0.1908 -0.0209  0.2622
 1435POPC   C1A17213  29.502  26.229  18.515  0.1380 -0.2133 -0.2782
 1435POPC   D2A17214  29.250  26.198  18.198  0.1317 -0.1083 -0.1226
 1435POPC   C3A17215  29.316  26.014  17.803 -0.5753  0.0262  0.0117
 1435POPC   C4A17216  29.120  25.884  17.407 -0.1583 -0.0411  0.0039
 1435POPC   C1B17217  29.958  25.529  18.266 -0.3027 -0.0126  0.0122
 1435POPC   C2B17218  29.820  25.560  17.804 -0.2598  0.1038  0.0118
 1435POPC   C3B17219  29.854  25.456  17.337  0.0253  0.1321  0.3470
 1435POPC   C4B17220  30.167  25.330  17.010 -0.4318 -0.3689 -0.3032
 1436POPC   NC317221   1.342  15.514  18.954  0.2198 -0.4695 -0.1022
 1436POPC   PO417222   1.526  15.880  18.905 -0.0938 -0.0102 -0.1849
 1436POPC   GL117223   1.575  15.831  18.596  0.1778  0.1841  0.2043
 1436POPC   GL217224   1.656  15.980  18.360  0.0774  0.2262 -0.1958
 1436POPC   C1A17225   1.221  15.720  18.299 -0.1046  0.0464  0.3252
 1436POPC   D2A17226   1.029  15.791  17.879 -0.1120 -0.3439  0.0306
 1436POPC   C3A17227   0.520  15.807  17.875  0.1655  0.1054  0.3683
 1436POPC   C4A17228   0.215  16.156  18.052 -0.0036  0.3845  0.1567
 1436POPC   C1B17229   1.620  15.894  17.897 -0.0270  0.3175 -0.0038
 1436POPC   C2B17230   1.438  15.750  17.510 -0.2593 -0.0270  0.0206
 1436POPC   C3B17231   1.347  15.562  17.115  0.1264 -0.2727  0.1974
 1436POPC   C4B17232   1.699  15.606  16.860 -0.2592 -0.1180 -0.2093
 1437POPC   NC317233   4.867   6.326  19.742 -0.0260  0.0687  0.2385
 1437POPC   PO417234   4.742   6.744  19.733  0.0132  0.2176  0.0769
 1437POPC   GL117235   4.705   6.684  19.426 -0.1328  0.1022 -0.2817
 1437POPC   GL217236   4.845   6.903  19.239  0.1324  0.2083 -0.1884
 1437POPC   C1A17237   4.876   6.340  19.103 -0.2209 -0.2132  0.0630
 1437POPC   D2A17238   4.972   6.222  18.684  0.1539 -0.0926  0.1513
 1437POPC   C3A17239   4.608   6.208  18.420 -0.0589 -0.0979 -0.0156
 1437POPC   C4A17240   4.376   6.058  18.110  0.0724 -0.4619 -0.0064
 1437POPC   C1B17241   4.924   7.239  18.934  0.3140 -0.4278 -0.0582
 1437POPC   C2B17242   5.045   7.102  18.496 -0.1047 -0.1617  0.0743
 1437POPC   C3B17243   5.076   6.997  18.033  0.1869  0.0717 -0.0534
 1437POPC   C4B17244   5.146   6.780  17.650  0.0550  0.0120  0.0656
 1438POPC   NC317245  13.289  25.269  19.068 -0.0755 -0.0095  0.0513
 1438POPC   PO417246  12.933  25.183  19.214  0.0679 -0.0244  0.3581
 1438POPC   GL117247  12.837  25.145  18.786 -0.2203 -0.0608  0.1752
 1438POPC   GL217248  12.708  25.405  18.826 -0.2069 -0.2562  0.1028
 1438POPC   C1A17249  13.024  25.309  18.425 -0.1365  0.1366  0.2051
 1438POPC   D2A17250  12.812  25.258  17.999  0.1042 -0.1547  0.1656
 1438POPC   C3A17251  12.947  25.436  17.580  0.0681 -0.0169  0.0775
 1438POPC   C4A17252  13.033  25.411  17.171  0.1492  0.3414  0.3882
 1438POPC   C1B17253  12.511  25.398  18.342 -0.2368 -0.0552  0.0560
 1438POPC   C2B17254  12.343  25.070  18.132  0.0774  0.0661 -0.0527
 1438POPC   C3B17255  12.355  24.700  17.913  0.0406  0.1196 -0.3212
 1438POPC   C4B17256  12.488  24.303  17.699 -0.3037 -0.1979 -0.0393
 1439POPC   NC317257   1.047  10.588  19.370  0.1452 -0.0220  0.0528
 1439POPC   PO417258   0.773  10.330  19.496  0.1070  0.0564  0.0593
 1439POPC   GL117259   0.608  10.598  19.160  0.0875 -0.1442  0.0200
 1439POPC   GL217260   0.629  10.907  19.156 -0.0233  0.2280  0.3252
 1439POPC   C1A17261   0.904  10.720  18.800 -0.2550  0.0183 -0.1043
 1439POPC   D2A17262   1.108  10.758  18.422 -0.2408  0.0479 -0.0827
 1439POPC   C3A17263   1.089  10.865  17.982 -0.2578 -0.1952 -0.0013
 1439POPC   C4A17264   1.283  10.944  17.607  0.1129 -0.0346  0.0688
 1439POPC   C1B17265   0.407  11.115  18.795  0.2417  0.0974 -0.0431
 1439POPC   C2B17266   0.273  10.851  18.475  0.0146  0.0241 -0.1746
 1439POPC   C3B17267   0.268  11.127  18.156  0.2348  0.2493  0.0274
 1439POPC   C4B17268   0.595  11.187  17.886  0.0684  0.0804 -0.0463
 1440POPC   NC317269  18.452   5.039  19.249 -0.0634  0.0454 -0.0130
 1440POPC   PO417270  18.412   4.664  19.104  0.0063 -0.0780  0.0301
 1440POPC   GL117271  18.408   4.862  18.751  0.0491  0.7491 -0.3843
 1440POPC   GL217272  18.399   5.159  18.760  0.0353  0.0671 -0.2255
 1440POPC   C1A17273  18.454   4.721  18.297  0.4384 -0.0057  0.0994
 1440POPC   D2A17274  18.347   4.489  17.893 -0.1260 -0.2774  0.1460
 1440POPC   C3A17275  17.935   4.347  17.662  0.1145  0.1769 -0.3004
 1440POPC   C4A17276  17.530   4.197  17.790  0.3309 -0.0557  0.1396
 1440POPC   C1B17277  18.519   5.185  18.333 -0.0170 -0.3369  0.1153
 1440POPC   C2B17278  18.662   5.232  17.877  0.1520 -0.1903  0.3245
 1440POPC   C3B17279  19.008   5.225  17.609 -0.0114  0.0154 -0.2187
 1440POPC   C4B17280  19.251   4.806  17.640 -0.0118  0.0653 -0.0013
 1441POPC   NC317281  12.430   9.646  19.434 -0.0844  0.0484  0.0692
 1441POPC   PO417282  12.772   9.743  19.354  0.0411 -0.2073 -0.0562
 1441POPC   GL117283  12.643   9.604  18.990  0.1176  0.0299  0.0422
 1441POPC   GL217284  12.451   9.843  18.904  0.2579 -0.0870  0.2420
 1441POPC   C1A17285  12.750   9.189  18.754  0.0164 -0.3850  0.0245
 1441POPC   D2A17286  12.715   9.010  18.340  0.0194 -0.0951 -0.2670
 1441POPC   C3A17287  12.645   9.222  17.929 -0.3092 -0.1749 -0.0741
 1441POPC   C4A17288  12.568   9.507  17.566  0.0887  0.1013 -0.0922
 1441POPC   C1B17289  12.537  10.199  18.637 -0.3947 -0.5595  0.2336
 1441POPC   C2B17290  12.703  10.340  18.235 -0.1819  0.3437 -0.2188
 1441POPC   C3B17291  12.740  10.299  17.822  0.0261  0.1079 -0.0450
 1441POPC   C4B17292  12.825  10.268  17.320 -0.2332 -0.2835 -0.0252
 1442POPC   NC317293  29.121  22.908  18.844  0.4253  0.2029 -0.0348
 1442POPC   PO417294  28.771  22.789  19.006 -0.0887 -0.0397  0.0295
 1442POPC   GL117295  28.940  22.554  18.589  0.1774 -0.2655  0.1471
 1442POPC   GL217296  28.794  22.732  18.455 -0.0742 -0.3411 -0.0263
 1442POPC   C1A17297  28.751  22.202  18.306  0.4411 -0.1149 -0.2806
 1442POPC   D2A17298  28.779  22.100  17.854 -0.2602  0.1928 -0.2147
 1442POPC   C3A17299  28.405  22.036  17.627 -0.0611 -0.3233  0.2285
 1442POPC   C4A17300  28.161  21.906  17.230  0.0545  0.1208 -0.2778
 1442POPC   C1B17301  28.575  22.901  18.043  0.2849  0.3732  0.2035
 1442POPC   C2B17302  28.262  23.048  17.815 -0.2376  0.0636  0.0564
 1442POPC   C3B17303  28.161  23.361  17.479  0.0860 -0.1668  0.0088
 1442POPC   C4B17304  28.175  23.323  16.980  0.0031 -0.0166  0.2312
 1443POPC   NC317305   0.626  15.565  19.348  0.1305 -0.2872 -0.0708
 1443POPC   PO417306   0.328  15.471  19.117 -0.2632  0.1799  0.0644
 1443POPC   GL117307   0.150  15.556  18.841 -0.0773  0.1930  0.3046
 1443POPC   GL217308   0.060  15.290  18.690 -0.1547  0.0521 -0.1101
 1443POPC   C1A17309  -0.250  15.658  18.559  0.0363  0.2312  0.2106
 1443POPC   D2A17310  -0.494  15.707  18.179 -0.2171  0.1678 -0.0952
 1443POPC   C3A17311  -0.316  15.925  17.829  0.1039 -0.0911  0.2363
 1443POPC   C4A17312  -0.050  16.253  17.624  0.1498  0.2464  0.1131
 1443POPC   C1B17313  -0.151  15.217  18.289 -0.0707 -0.0721 -0.0817
 1443POPC   C2B17314  -0.303  15.376  17.861 -0.0151 -0.0085  0.1163
 1443POPC   C3B17315  -0.609  15.220  17.583 -0.0625  0.1035  0.3363
 1443POPC   C4B17316  -0.998  14.955  17.389  0.0019 -0.2519 -0.0299
 1444POPC   NC317317   7.806   2.599  19.223  0.1164 -0.0025  0.0933
 1444POPC   PO417318   8.095   2.375  19.376  0.2114 -0.0008  0.1863
 1444POPC   GL117319   8.122   2.264  19.007 -0.3320 -0.1211 -0.1613
 1444POPC   GL217320   7.995   2.408  18.789 -0.0888 -0.0319  0.1266
 1444POPC   C1A17321   8.058   1.840  18.823 -0.3547  0.2398  0.3938
 1444POPC   D2A17322   8.078   1.470  18.522  0.0514 -0.1956  0.1955
 1444POPC   C3A17323   7.785   1.401  18.126  0.0520 -0.1055 -0.2762
 1444POPC   C4A17324   7.670   1.755  17.894 -0.1978 -0.2834  0.2331
 1444POPC   C1B17325   8.025   2.381  18.361  0.1910  0.0766 -0.0597
 1444POPC   C2B17326   7.815   2.296  17.980  0.0887 -0.0939  0.2174
 1444POPC   C3B17327   7.592   2.212  17.577  0.2739  0.0521  0.0582
 1444POPC   C4B17328   7.524   2.250  17.185 -0.3700 -0.2688 -0.2162
 1445POPC   NC317329  27.534  24.844  19.283  0.2464  0.0649 -0.1277
 1445POPC   PO417330  27.893  24.921  19.155  0.1210  0.1085  0.0778
 1445POPC   GL117331  27.699  24.623  18.757 -0.3536  0.1174 -0.2154
 1445POPC   GL217332  27.443  24.790  18.764 -0.3264 -0.2551  0.2624
 1445POPC   C1A17333  27.680  24.704  18.278  0.0273  0.1626  0.0987
 1445POPC   D2A17334  27.463  24.979  17.977 -0.0680  0.0936  0.0647
 1445POPC   C3A17335  27.487  25.165  17.517  0.1902 -0.2265  0.1344
 1445POPC   C4A17336  27.877  25.229  17.261 -0.0153  0.3255  0.0959
 1445POPC   C1B17337  27.399  25.067  18.429 -0.2195 -0.0591 -0.0829
 1445POPC   C2B17338  27.013  25.172  18.202 -0.5533  0.4533  0.2521
 1445POPC   C3B17339  26.899  25.307  17.768  0.1585 -0.1122 -0.0219
 1445POPC   C4B17340  26.648  25.687  17.627  0.0300 -0.0554  0.0477
 1446POPC   NC317341  15.374  14.075  19.387 -0.0035 -0.1473  0.1287
 1446POPC   PO417342  15.225  13.718  19.409 -0.1351 -0.1293 -0.0363
 1446POPC   GL117343  15.381  13.860  18.984 -0.3739  0.0183  0.1026
 1446POPC   GL217344  15.298  13.598  18.841  0.0151 -0.0158 -0.1090
 1446POPC   C1A17345  15.675  14.243  18.889 -0.1589  0.0845  0.3532
 1446POPC   D2A17346  15.733  14.601  18.595 -0.1687  0.3326 -0.4357
 1446POPC   C3A17347  15.545  14.671  18.191 -0.0775 -0.1526  0.1923
 1446POPC   C4A17348  15.658  14.690  17.785  0.1262  0.1563 -0.1681
 1446POPC   C1B17349  15.594  13.830  18.597 -0.0040  0.2955 -0.1673
 1446POPC   C2B17350  15.573  14.174  18.341 -0.2248 -0.0304 -0.3236
 1446POPC   C3B17351  15.596  14.259  17.944 -0.0338  0.1090  0.1027
 1446POPC   C4B17352  15.590  14.362  17.433 -0.3992  0.0046 -0.2944
 1447POPC   NC317353  21.862  27.355  19.876  0.3735 -0.1811 -0.0471
 1447POPC   PO417354  21.858  27.552  19.541  0.1597 -0.1068 -0.2734
 1447POPC   GL117355  22.034  27.517  19.186 -0.0069  0.4252 -0.1708
 1447POPC   GL217356  21.900  27.595  18.973 -0.2186  0.1482  0.1155
 1447POPC   C1A17357  22.373  27.413  18.851  0.0462  0.1285  0.0686
 1447POPC   D2A17358  22.762  27.503  18.576  0.0064  0.0689  0.2531
 1447POPC   C3A17359  22.634  27.748  18.167  0.0005 -0.0131  0.2639
 1447POPC   C4A17360  22.541  27.548  17.760  0.0566 -0.3086  0.3885
 1447POPC   C1B17361  21.808  27.275  18.633  0.0726 -0.0494 -0.4152
 1447POPC   C2B17362  21.677  27.311  18.203 -0.0304  0.2177 -0.0516
 1447POPC   C3B17363  21.399  27.306  17.860  0.1704 -0.1851  0.1410
 1447POPC   C4B17364  21.203  27.346  17.456  0.0706  0.0942  0.2213
 1448POPC   NC317365  15.424  15.722  19.821  0.3136 -0.0262 -0.0674
 1448POPC   PO417366  15.348  15.729  19.404  0.1047  0.1936  0.0429
 1448POPC   GL117367  15.335  15.491  19.040  0.0293  0.2499  0.2328
 1448POPC   GL217368  15.601  15.516  19.049 -0.1865 -0.1391  0.0299
 1448POPC   C1A17369  15.207  15.426  18.624  0.0652  0.0575  0.0261
 1448POPC   D2A17370  15.149  15.227  18.171 -0.1667 -0.0281  0.1326
 1448POPC   C3A17371  15.341  15.107  17.716  0.1615  0.1421 -0.0359
 1448POPC   C4A17372  15.511  14.914  17.352 -0.0381 -0.1854  0.1214
 1448POPC   C1B17373  15.829  15.596  18.703 -0.2595  0.2329  0.1124
 1448POPC   C2B17374  15.861  15.626  18.276 -0.0486  0.1097  0.5033
 1448POPC   C3B17375  15.610  15.540  17.904  0.0344 -0.1218 -0.0204
 1448POPC   C4B17376  15.517  15.577  17.426  0.0300  0.1327  0.3891
 1449POPC   NC317377  19.508  25.665  19.255  0.0102 -0.1006 -0.1406
 1449POPC   PO417378  19.371  26.008  19.340  0.2156  0.2099 -0.3493
 1449POPC   GL117379  19.242  25.934  18.949  0.0634  0.4951 -0.0216
 1449POPC   GL217380  19.292  26.179  18.795 -0.3617 -0.1985  0.1289
 1449POPC   C1A17381  18.939  25.819  18.568  0.1328 -0.1261 -0.0316
 1449POPC   D2A17382  18.939  25.699  18.149  0.2566 -0.0389  0.2992
 1449POPC   C3A17383  18.862  26.052  17.809  0.0891  0.0243 -0.0832
 1449POPC   C4A17384  18.512  26.320  17.745  0.0359  0.0727  0.4198
 1449POPC   C1B17385  19.435  25.920  18.415 -0.2810 -0.0295  0.0012
 1449POPC   C2B17386  19.331  25.907  17.938  0.1364 -0.0299  0.1365
 1449POPC   C3B17387  19.398  25.951  17.444 -0.0938 -0.1071  0.0887
 1449POPC   C4B17388  19.414  25.661  17.101 -0.3525  0.3762 -0.1938
 1450POPC   NC317389  19.766  14.214  19.257 -0.0447 -0.2752 -0.2070
 1450POPC   PO417390  19.729  14.505  18.953  0.0174  0.1233 -0.0175
 1450POPC   GL117391  19.576  14.413  18.613 -0.0878 -0.0172 -0.0893
 1450POPC   GL217392  19.284  14.433  18.539 -0.0798 -0.3851 -0.0826
 1450POPC   C1A17393  19.761  14.547  18.201  0.1348 -0.2822 -0.3206
 1450POPC   D2A17394  19.801  14.520  17.732  0.0997 -0.1387 -0.0427
 1450POPC   C3A17395  19.600  14.834  17.452 -0.1338  0.1874 -0.1135
 1450POPC   C4A17396  19.561  15.095  17.096 -0.1687  0.3143 -0.0926
 1450POPC   C1B17397  19.256  14.250  18.116  0.0346  0.2214 -0.3066
 1450POPC   C2B17398  19.052  14.082  17.734 -0.3611 -0.0543  0.2232
 1450POPC   C3B17399  19.162  13.952  17.266 -0.2339 -0.2113  0.0066
 1450POPC   C4B17400  19.246  13.804  16.780 -0.0058  0.1353  0.1463
 1451POPC   NC317401  15.363   4.664  19.388 -0.0043 -0.1043 -0.1972
 1451POPC   PO417402  15.637   4.770  19.665  0.1168  0.1242  0.0586
 1451POPC   GL117403  15.690   5.036  19.341  0.1164 -0.0009  0.0187
 1451POPC   GL217404  15.910   4.940  19.192 -0.2205 -0.3914  0.2902
 1451POPC   C1A17405  15.497   5.021  18.878  0.3240  0.0408  0.1357
 1451POPC   D2A17406  15.205   5.096  18.515  0.2435  0.0683 -0.3801
 1451POPC   C3A17407  15.315   5.147  18.017  0.1373 -0.1984 -0.1040
 1451POPC   C4A17408  15.683   5.261  17.748 -0.1107  0.1215 -0.0830
 1451POPC   C1B17409  16.033   5.119  18.783 -0.2107  0.0827 -0.0227
 1451POPC   C2B17410  16.018   5.067  18.319 -0.1415 -0.2755  0.0767
 1451POPC   C3B17411  16.226   5.277  17.910  0.2994 -0.1415  0.0697
 1451POPC   C4B17412  16.325   5.632  17.652 -0.2732  0.0457 -0.1786
 1452POPC   NC317413  15.165  28.836  19.755  0.3265 -0.0627  0.3679
 1452POPC   PO417414  14.981  29.045  19.427  0.0498 -0.1352 -0.0021
 1452POPC   GL117415  15.025  28.943  19.038 -0.0250 -0.2875 -0.1786
 1452POPC   GL217416  14.926  29.225  18.936  0.0713  0.0624 -0.0535
 1452POPC   C1A17417  14.938  28.648  18.640  0.2431 -0.1707  0.1052
 1452POPC   D2A17418  14.840  28.407  18.233 -0.0708 -0.0214  0.0563
 1452POPC   C3A17419  14.990  28.495  17.801  0.3043  0.0009  0.0756
 1452POPC   C4A17420  15.170  28.170  17.563 -0.0136 -0.2454 -0.0619
 1452POPC   C1B17421  14.796  29.217  18.529  0.0242  0.2419 -0.1289
 1452POPC   C2B17422  14.902  29.314  18.112  0.2512  0.1933 -0.1363
 1452POPC   C3B17423  15.132  29.451  17.739  0.2652  0.0525 -0.1416
 1452POPC   C4B17424  15.511  29.485  17.496 -0.1738 -0.2701  0.1979
 1453POPC   NC317425   4.074  31.680  19.410  0.0974  0.1227 -0.1038
 1453POPC   PO417426   3.924  31.360  19.244  0.1390 -0.2311 -0.0102
 1453POPC   GL117427   3.972  31.618  18.887 -0.1227 -0.1175 -0.2964
 1453POPC   GL217428   3.924  31.941  18.993 -0.2484  0.1235 -0.0958
 1453POPC   C1A17429   3.943  31.591  18.420 -0.0002 -0.0863 -0.0563
 1453POPC   D2A17430   3.819  31.354  17.983  0.3073 -0.0803 -0.1269
 1453POPC   C3A17431   3.928  31.288  17.517 -0.1492 -0.0515 -0.1631
 1453POPC   C4A17432   4.255  30.977  17.385  0.1561  0.2921 -0.3379
 1453POPC   C1B17433   4.308  32.075  18.733 -0.3687 -0.1715 -0.1610
 1453POPC   C2B17434   4.769  32.084  18.614 -0.0889  0.0322  0.3406
 1453POPC   C3B17435   5.112  32.161  18.348  0.3406 -0.0202  0.4617
 1453POPC   C4B17436   5.497  31.972  18.185 -0.1920  0.0335  0.2087
 1454POPC   NC317437  31.402  19.448  19.686 -0.1837  0.0248  0.1860
 1454POPC   PO417438  31.416  19.265  19.320 -0.0797 -0.1036  0.2785
 1454POPC   GL117439  31.074  19.213  19.116  0.2822  0.2337  0.1205
 1454POPC   GL217440  30.866  19.365  19.124 -0.0822  0.3975  0.0324
 1454POPC   C1A17441  30.811  18.991  18.784  0.0308 -0.2128 -0.0626
 1454POPC   D2A17442  30.380  18.903  18.765 -0.0333  0.0310  0.2788
 1454POPC   C3A17443  29.983  18.656  18.877  0.0181  0.0529  0.1489
 1454POPC   C4A17444  29.874  18.323  18.617 -0.3812  0.3468  0.0624
 1454POPC   C1B17445  30.779  19.549  18.744  0.1318  0.2228 -0.1525
 1454POPC   C2B17446  30.731  19.363  18.289  0.2667  0.3447 -0.0293
 1454POPC   C3B17447  30.572  19.212  17.869  0.1877  0.2647 -0.1064
 1454POPC   C4B17448  30.568  19.135  17.394 -0.1820  0.0700 -0.1953
 1455POPC   NC317449  16.473  22.675  18.945  0.1493  0.1027  0.1889
 1455POPC   PO417450  16.467  23.007  19.122 -0.1570 -0.2660 -0.1851
 1455POPC   GL117451  16.703  23.017  18.769 -0.0486  0.0000 -0.0275
 1455POPC   GL217452  16.427  23.104  18.627 -0.1485 -0.0755 -0.1322
 1455POPC   C1A17453  16.850  22.950  18.349 -0.0053 -0.0978 -0.3516
 1455POPC   D2A17454  16.702  22.911  17.858 -0.0386 -0.3081 -0.0868
 1455POPC   C3A17455  17.109  22.961  17.636  0.2528 -0.1956  0.0473
 1455POPC   C4A17456  17.525  23.062  17.728 -0.0457  0.1679  0.2554
 1455POPC   C1B17457  16.288  23.422  18.268  0.0756  0.0801 -0.0635
 1455POPC   C2B17458  16.241  23.377  17.794  0.0406  0.3986 -0.1591
 1455POPC   C3B17459  16.142  23.362  17.366 -0.0715  0.1586  0.1234
 1455POPC   C4B17460  16.058  23.110  17.003  0.5292 -0.0033 -0.1532
 1456POPC   NC317461  30.188   1.890  19.681  0.3199  0.1888  0.0279
 1456POPC   PO417462  30.296   2.277  19.702  0.0573 -0.2060  0.2323
 1456POPC   GL117463  30.148   2.362  19.423 -0.3748 -0.2413 -0.3518
 1456POPC   GL217464  30.424   2.373  19.235  0.1076  0.0193  0.0307
 1456POPC   C1A17465  30.044   2.553  18.987 -0.2801  0.3017  0.3671
 1456POPC   D2A17466  30.189   2.537  18.548  0.1843 -0.1359 -0.0299
 1456POPC   C3A17467  30.022   2.485  18.151 -0.0788  0.0191  0.1251
 1456POPC   C4A17468  30.057   2.560  17.725  0.1038  0.0062  0.2048
 1456POPC   C1B17469  30.824   2.616  19.274 -0.0234 -0.3382  0.0672
 1456POPC   C2B17470  31.102   2.945  18.972 -0.2001  0.3620 -0.2323
 1456POPC   C3B17471  31.120   3.042  18.456  0.0536 -0.4919 -0.2857
 1456POPC   C4B17472  30.934   3.324  18.143  0.0625 -0.4863  0.1938
 1457POPC   NC317473  10.745  15.829  19.543 -0.0423 -0.3869 -0.2415
 1457POPC   PO417474  10.825  15.709  19.176  0.0112  0.1698  0.1508
 1457POPC   GL117475  10.990  15.562  18.964 -0.2435 -0.1543 -0.5026
 1457POPC   GL217476  11.096  15.364  18.861  0.1186 -0.0690  0.0777
 1457POPC   C1A17477  10.959  15.656  18.508  0.2358 -0.2241 -0.0500
 1457POPC   D2A17478  10.848  15.653  18.057 -0.0418 -0.0307 -0.2941
 1457POPC   C3A17479  10.799  15.928  17.699  0.1147  0.0635  0.2423
 1457POPC   C4A17480  10.634  15.956  17.270 -0.1692  0.1224  0.1779
 1457POPC   C1B17481  10.764  15.208  18.581 -0.2742  0.1370 -0.0081
 1457POPC   C2B17482  10.640  15.137  18.096  0.3172 -0.1616 -0.0398
 1457POPC   C3B17483  10.339  14.992  17.765 -0.1393  0.0344  0.0765
 1457POPC   C4B17484  10.370  14.582  17.579  0.0746  0.0080  0.3790
 1458POPC   NC317485  12.955   2.683  19.187  0.2006 -0.0846  0.0404
 1458POPC   PO417486  12.604   2.591  19.077  0.0885  0.2888  0.1140
 1458POPC   GL117487  12.708   2.575  18.724 -0.3312 -0.2583 -0.1487
 1458POPC   GL217488  12.962   2.422  18.706  0.2536  0.2168 -0.1815
 1458POPC   C1A17489  12.883   2.839  18.410  0.0242  0.1559 -0.1044
 1458POPC   D2A17490  13.282   3.031  18.190 -0.2043  0.0766 -0.0708
 1458POPC   C3A17491  13.332   3.328  17.871 -0.0619 -0.0009 -0.0497
 1458POPC   C4A17492  13.419   3.423  17.442  0.2803 -0.1977  0.1501
 1458POPC   C1B17493  12.701   2.391  18.296  0.2965 -0.2888  0.0735
 1458POPC   C2B17494  12.479   2.625  17.948 -0.2006  0.1070  0.1166
 1458POPC   C3B17495  12.248   3.008  17.752 -0.2244 -0.1661  0.1112
 1458POPC   C4B17496  12.376   3.452  17.832 -0.0465  0.0898 -0.0680
 1459POPC   NC317497   7.064  25.885  19.505 -0.2313 -0.0220 -0.0322
 1459POPC   PO417498   7.178  26.209  19.299 -0.1473  0.4307 -0.1585
 1459POPC   GL117499   7.136  26.319  18.932  0.1353 -0.0585  0.4661
 1459POPC   GL217500   7.214  26.576  18.795 -0.0534  0.3374 -0.0554
 1459POPC   C1A17501   7.253  26.197  18.478  0.0662 -0.0472 -0.0042
 1459POPC   D2A17502   7.354  26.255  18.056  0.0379 -0.1848  0.0668
 1459POPC   C3A17503   7.165  26.094  17.606  0.1244  0.0735 -0.0758
 1459POPC   C4A17504   6.934  25.793  17.443  0.3352 -0.2236  0.0666
 1459POPC   C1B17505   7.210  26.723  18.331 -0.1242 -0.2372 -0.1980
 1459POPC   C2B17506   7.054  26.654  17.864 -0.2773 -0.0431  0.1779
 1459POPC   C3B17507   7.025  26.773  17.454 -0.3458 -0.1537  0.2519
 1459POPC   C4B17508   6.986  26.760  16.990  0.1628 -0.2224  0.0162
 1460POPC   NC317509   7.010  27.962  19.713  0.2412  0.2046 -0.1206
 1460POPC   PO417510   7.009  27.916  19.320 -0.2263 -0.0373 -0.1074
 1460POPC   GL117511   6.921  27.656  18.984 -0.1689  0.0913 -0.1620
 1460POPC   GL217512   7.067  27.805  18.748 -0.0708  0.0304  0.1881
 1460POPC   C1A17513   6.703  27.437  18.631  0.0309 -0.0401  0.2011
 1460POPC   D2A17514   6.655  27.452  18.187 -0.1159  0.4628 -0.0358
 1460POPC   C3A17515   6.666  26.978  18.179  0.2200 -0.0966  0.0430
 1460POPC   C4A17516   6.265  26.748  18.093 -0.0125  0.1772 -0.1112
 1460POPC   C1B17517   7.146  27.758  18.317 -0.0785 -0.0495 -0.2033
 1460POPC   C2B17518   7.094  27.619  17.910  0.0404  0.2241  0.0198
 1460POPC   C3B17519   7.017  27.773  17.478 -0.0223  0.1749  0.0563
 1460POPC   C4B17520   7.210  27.733  17.089  0.0295  0.0974  0.2072
 1461POPC   NC317521   5.247  24.049  19.016 -0.1572  0.3653  0.0199
 1461POPC   PO417522   5.592  24.191  19.122  0.0706 -0.0349 -0.1286
 1461POPC   GL117523   5.647  23.899  18.895 -0.1818 -0.1244  0.2506
 1461POPC   GL217524   5.955  23.851  18.881  0.1735 -0.2137  0.1587
 1461POPC   C1A17525   5.668  23.762  18.407 -0.0570 -0.1023  0.0459
 1461POPC   D2A17526   5.708  23.867  17.959 -0.2939  0.1953  0.0250
 1461POPC   C3A17527   6.021  24.048  17.624  0.0402  0.0155 -0.0716
 1461POPC   C4A17528   6.362  24.339  17.544 -0.3030 -0.1393  0.0036
 1461POPC   C1B17529   6.185  23.711  18.469  0.2358 -0.0538 -0.3242
 1461POPC   C2B17530   6.229  23.535  18.077 -0.2337 -0.0546 -0.1478
 1461POPC   C3B17531   6.456  23.180  17.919 -0.1778  0.1264  0.2354
 1461POPC   C4B17532   6.435  22.802  17.620  0.0805  0.2093 -0.1777
 1462POPC   NC317533  25.725  11.396  18.907  0.0276 -0.1338  0.0217
 1462POPC   PO417534  25.437  11.260  19.154  0.0739  0.0372  0.1035
 1462POPC   GL117535  25.214  11.129  18.788 -0.3633 -0.0550 -0.2116
 1462POPC   GL217536  25.176  11.472  18.702 -0.0358 -0.0454 -0.3833
 1462POPC   C1A17537  25.046  10.837  18.432 -0.1368  0.0442  0.3364
 1462POPC   D2A17538  24.624  10.810  18.163 -0.0735 -0.0859 -0.1527
 1462POPC   C3A17539  24.666  10.718  17.663 -0.0470  0.0627 -0.0013
 1462POPC   C4A17540  24.788  10.541  17.275 -0.1995  0.1727  0.2190
 1462POPC   C1B17541  25.110  11.357  18.316  0.2747  0.2570  0.2295
 1462POPC   C2B17542  24.969  11.063  17.966  0.1096  0.1190 -0.0929
 1462POPC   C3B17543  25.057  11.234  17.593 -0.2378 -0.0047 -0.0914
 1462POPC   C4B17544  25.140  11.207  17.107  0.1964  0.0523 -0.0993
 1463POPC   NC317545  12.142   7.662  19.350  0.1581 -0.1034  0.1469
 1463POPC   PO417546  12.398   7.499  19.579  0.0562  0.1357 -0.0071
 1463POPC   GL117547  12.483   7.428  19.189  0.0651 -0.3868 -0.2354
 1463POPC   GL217548  12.685   7.613  19.050  0.0716  0.0745  0.1490
 1463POPC   C1A17549  12.407   7.401  18.742  0.0046 -0.0537 -0.1758
 1463POPC   D2A17550  12.222   7.559  18.395  0.1822 -0.0905 -0.1210
 1463POPC   C3A17551  11.899   7.585  18.023  0.1193  0.0285 -0.1681
 1463POPC   C4A17552  11.500   7.658  17.771 -0.0106  0.3226 -0.0469
 1463POPC   C1B17553  12.808   7.635  18.613 -0.1043 -0.2046  0.2633
 1463POPC   C2B17554  12.658   7.716  18.191  0.0998 -0.1077  0.1578
 1463POPC   C3B17555  12.395   7.535  17.835 -0.1907 -0.0901 -0.0963
 1463POPC   C4B17556  12.197   7.285  17.529 -0.0353 -0.0705  0.0708
 1464POPC   NC317557  19.022   1.734  19.679 -0.0369  0.0822 -0.1011
 1464POPC   PO417558  19.301   1.601  19.441 -0.0211  0.2342  0.0634
 1464POPC   GL117559  19.397   1.541  19.061 -0.2821 -0.2424 -0.3493
 1464POPC   GL217560  19.397   1.733  18.831 -0.1116  0.0059  0.1579
 1464POPC   C1A17561  19.056   1.312  18.837 -0.1052 -0.1604 -0.0525
 1464POPC   D2A17562  18.975   1.125  18.452 -0.2070 -0.1509 -0.2606
 1464POPC   C3A17563  19.142   0.926  18.030 -0.3831 -0.0437 -0.1006
 1464POPC   C4A17564  19.359   0.978  17.605  0.0160  0.0299  0.0571
 1464POPC   C1B17565  19.080   1.691  18.496  0.1317 -0.1651  0.0602
 1464POPC   C2B17566  18.867   1.537  18.121 -0.1015  0.0335 -0.2138
 1464POPC   C3B17567  18.898   1.262  17.756 -0.0137 -0.0807  0.1663
 1464POPC   C4B17568  18.940   1.279  17.305  0.0162 -0.1646 -0.2464
 1465POPC   NC317569   6.225  24.402  19.507  0.0941  0.0766  0.0662
 1465POPC   PO417570   6.431  24.068  19.415  0.0826  0.1010  0.2331
 1465POPC   GL117571   6.683  23.832  19.169  0.0872  0.0052  0.1802
 1465POPC   GL217572   6.492  23.884  18.921  0.1132  0.0664 -0.3661
 1465POPC   C1A17573   6.920  23.467  19.015  0.1483  0.0845 -0.0681
 1465POPC   D2A17574   7.183  23.114  19.093  0.0086  0.2609 -0.0548
 1465POPC   C3A17575   7.009  22.695  19.214 -0.3351  0.0028  0.0824
 1465POPC   C4A17576   6.680  22.365  19.407  0.5077 -0.2445  0.1304
 1465POPC   C1B17577   6.543  24.201  18.545 -0.1478  0.1543  0.2124
 1465POPC   C2B17578   6.505  24.498  18.210  0.2291  0.2850 -0.1650
 1465POPC   C3B17579   6.164  24.664  17.937  0.1454  0.2106  0.0793
 1465POPC   C4B17580   5.961  24.602  17.565  0.1319  0.1809 -0.0261
 1466POPC   NC317581   1.761  22.591  19.116 -0.0426 -0.1984  0.0748
 1466POPC   PO417582   1.541  22.878  19.240  0.2636 -0.1023 -0.0458
 1466POPC   GL117583   1.490  23.086  18.877 -0.0304  0.0508  0.1069
 1466POPC   GL217584   1.253  22.988  18.733 -0.1570  0.1417 -0.1090
 1466POPC   C1A17585   1.775  22.990  18.508 -0.1349 -0.0974  0.0928
 1466POPC   D2A17586   2.182  22.851  18.348 -0.3413 -0.2559 -0.0802
 1466POPC   C3A17587   2.323  23.021  17.912 -0.0277  0.1328 -0.1045
 1466POPC   C4A17588   2.368  23.000  17.411 -0.0919 -0.0167 -0.0159
 1466POPC   C1B17589   1.380  22.749  18.343  0.2435 -0.2672 -0.1890
 1466POPC   C2B17590   1.371  22.773  17.912  0.1128  0.0944 -0.0465
 1466POPC   C3B17591   1.386  22.795  17.493  0.0132  0.1888  0.2943
 1466POPC   C4B17592   1.130  22.704  17.112  0.0084 -0.0077 -0.1842
 1467POPC   NC317593   1.843  20.801  19.281 -0.2501 -0.4071  0.0803
 1467POPC   PO417594   1.508  20.684  19.313  0.0642  0.1608  0.0743
 1467POPC   GL117595   1.539  20.810  18.882  0.0231 -0.1716  0.0626
 1467POPC   GL217596   1.276  20.959  18.836 -0.0891 -0.0075 -0.1913
 1467POPC   C1A17597   1.573  20.702  18.416 -0.2745  0.0651  0.1812
 1467POPC   D2A17598   1.506  20.918  17.965  0.0201 -0.0279  0.3057
 1467POPC   C3A17599   1.107  20.743  17.757 -0.0182  0.1646 -0.0158
 1467POPC   C4A17600   0.683  20.659  17.490 -0.0313  0.1253  0.3797
 1467POPC   C1B17601   1.402  21.149  18.416 -0.1010  0.5759  0.0113
 1467POPC   C2B17602   1.831  21.181  18.377 -0.0507  0.3224  0.2346
 1467POPC   C3B17603   2.321  21.160  18.332 -0.0703  0.0976  0.1604
 1467POPC   C4B17604   2.717  21.401  18.343 -0.0105 -0.1239  0.3890
 1468POPC   NC317605  30.829  19.348  19.599  0.1105 -0.5916  0.1277
 1468POPC   PO417606  31.059  19.658  19.415 -0.1600  0.2641 -0.1235
 1468POPC   GL117607  31.139  19.750  18.935 -0.0739 -0.1963  0.3401
 1468POPC   GL217608  31.350  19.543  18.908  0.0584 -0.1653 -0.3275
 1468POPC   C1A17609  31.230  19.851  18.485  0.0265 -0.2166 -0.0617
 1468POPC   D2A17610  31.123  19.928  18.078  0.0822  0.0885 -0.1229
 1468POPC   C3A17611  31.287  19.835  17.667  0.0634  0.0853 -0.0239
 1468POPC   C4A17612  31.731  19.865  17.534  0.1187  0.0275 -0.1214
 1468POPC   C1B17613  31.170  19.332  18.586 -0.2518  0.2243  0.0133
 1468POPC   C2B17614  31.193  19.395  18.136  0.0516 -0.1175  0.0085
 1468POPC   C3B17615  31.272  19.291  17.725  0.0757  0.1806  0.1374
 1468POPC   C4B17616  31.089  19.292  17.293 -0.0889 -0.0408  0.0095
 1469POPC   NC317617  11.157  21.991  19.470 -0.1785 -0.3987 -0.1426
 1469POPC   PO417618  11.153  22.269  19.142  0.0794  0.0412 -0.1583
 1469POPC   GL117619  10.752  22.273  18.860 -0.0054  0.3432  0.3677
 1469POPC   GL217620  10.958  22.384  18.704  0.1713 -0.1450 -0.2220
 1469POPC   C1A17621  10.567  22.278  18.420 -0.0667 -0.2357  0.2344
 1469POPC   D2A17622  10.197  22.207  18.171 -0.2344  0.4330  0.5279
 1469POPC   C3A17623  10.000  21.870  18.424  0.1210  0.0641  0.3703
 1469POPC   C4A17624   9.921  21.662  18.819  0.1757  0.5386 -0.0893
 1469POPC   C1B17625  11.034  21.975  18.476  0.4040  0.1441 -0.0578
 1469POPC   C2B17626  11.300  21.695  18.214  0.0549  0.0053  0.2601
 1469POPC   C3B17627  11.725  21.626  17.980  0.3417 -0.1891 -0.1035
 1469POPC   C4B17628  11.981  21.262  17.761 -0.3413 -0.2681 -0.0310
 1470POPC   NC317629  19.689  26.458  19.216  0.1190  0.0650  0.0021
 1470POPC   PO417630  19.769  26.147  19.019 -0.1732  0.0601 -0.1957
 1470POPC   GL117631  19.669  25.798  18.818  0.2158  0.2756  0.1556
 1470POPC   GL217632  19.907  25.896  18.632 -0.2189  0.1333  0.2046
 1470POPC   C1A17633  19.735  25.507  18.411  0.1996  0.0393 -0.2037
 1470POPC   D2A17634  19.846  25.518  17.957 -0.0577 -0.2732 -0.2276
 1470POPC   C3A17635  19.562  25.473  17.592  0.1715  0.0600  0.0023
 1470POPC   C4A17636  19.398  25.202  17.239 -0.1151 -0.2211  0.0698
 1470POPC   C1B17637  19.943  25.956  18.174 -0.0207 -0.0521 -0.0148
 1470POPC   C2B17638  19.781  25.977  17.734 -0.0120  0.4151 -0.0326
 1470POPC   C3B17639  19.895  25.771  17.333  0.2968 -0.3530  0.0967
 1470POPC   C4B17640  19.882  25.373  17.123 -0.0426 -0.0176  0.1893
 1471POPC   NC317641   7.315  19.302  19.046  0.2816  0.0438  0.1331
 1471POPC   PO417642   7.526  19.602  19.227 -0.1358  0.2955 -0.0917
 1471POPC   GL117643   7.634  19.581  18.837  0.0178 -0.1156 -0.4504
 1471POPC   GL217644   7.728  19.835  18.873 -0.0702 -0.0137  0.0383
 1471POPC   C1A17645   7.616  19.622  18.397 -0.0042 -0.3780  0.1510
 1471POPC   D2A17646   7.835  19.804  18.068  0.2374 -0.1392  0.2901
 1471POPC   C3A17647   7.517  19.968  17.780 -0.1213  0.1523 -0.0539
 1471POPC   C4A17648   7.159  19.921  17.436 -0.1775  0.0873 -0.3112
 1471POPC   C1B17649   8.038  19.995  18.538 -0.1123  0.1753 -0.1427
 1471POPC   C2B17650   8.211  20.103  18.099 -0.0455 -0.0807  0.1080
 1471POPC   C3B17651   8.477  20.129  17.668  0.1239  0.2716 -0.0500
 1471POPC   C4B17652   8.838  20.262  17.477 -0.0786  0.0500  0.0013
 1472POPC   NC317653  17.524   6.317  19.786  0.2434  0.2412  0.3247
 1472POPC   PO417654  17.234   6.213  19.553 -0.2474 -0.2462  0.0511
 1472POPC   GL117655  17.532   6.337  19.252  0.3155 -0.0635  0.2707
 1472POPC   GL217656  17.340   6.644  19.291 -0.2005  0.4793  0.0132
 1472POPC   C1A17657  17.509   5.952  19.010  0.0062 -0.1803  0.0094
 1472POPC   D2A17658  17.591   5.782  18.611  0.0293  0.0346  0.2066
 1472POPC   C3A17659  17.379   5.699  18.225  0.1655  0.1991 -0.0069
 1472POPC   C4A17660  17.232   5.651  17.793  0.2167 -0.1033 -0.0985
 1472POPC   C1B17661  17.208   6.394  18.932  0.1350 -0.2206  0.2424
 1472POPC   C2B17662  17.194   6.500  18.466  0.1054  0.4065 -0.1854
 1472POPC   C3B17663  17.214   6.649  18.017  0.1453  0.2148 -0.3972
 1472POPC   C4B17664  17.206   6.678  17.562  0.0733  0.3250  0.1752
 1473POPC   NC317665  24.826   5.130  18.920  0.0822  0.2500 -0.2710
 1473POPC   PO417666  25.082   4.896  19.130  0.2594 -0.1037  0.2863
 1473POPC   GL117667  25.272   5.014  18.739  0.3774 -0.6628 -0.0439
 1473POPC   GL217668  25.536   4.934  18.782  0.3171  0.3040 -0.2454
 1473POPC   C1A17669  25.168   5.462  18.541  0.1560 -0.0562 -0.1463
 1473POPC   D2A17670  25.310   5.742  18.213 -0.3142  0.1084  0.0339
 1473POPC   C3A17671  25.178   5.840  17.786  0.2014 -0.0061  0.0708
 1473POPC   C4A17672  24.823   5.794  17.512 -0.2381  0.1192  0.0691
 1473POPC   C1B17673  25.681   4.863  18.310 -0.2671 -0.1577  0.0929
 1473POPC   C2B17674  25.834   4.846  17.903 -0.0543 -0.0645 -0.0686
 1473POPC   C3B17675  25.988   5.048  17.461 -0.3497 -0.1048 -0.1998
 1473POPC   C4B17676  25.912   5.380  17.149  0.3127  0.1283  0.3738
 1474POPC   NC317677  27.073  26.564  19.738  0.2034 -0.2054  0.0634
 1474POPC   PO417678  27.422  26.428  19.637 -0.5778 -0.0451 -0.3062
 1474POPC   GL117679  27.024  26.223  19.402 -0.1586 -0.0209 -0.3154
 1474POPC   GL217680  26.881  26.400  19.243  0.2121 -0.2258  0.3764
 1474POPC   C1A17681  26.795  25.815  19.295  0.0573 -0.0632 -0.0048
 1474POPC   D2A17682  27.059  25.832  18.915 -0.2502 -0.1185 -0.2684
 1474POPC   C3A17683  26.685  25.797  18.663 -0.2061  0.0443 -0.4279
 1474POPC   C4A17684  26.266  25.758  18.455 -0.0113 -0.0724  0.0745
 1474POPC   C1B17685  27.264  26.339  19.030  0.1730  0.4166  0.2333
 1474POPC   C2B17686  27.500  26.677  18.791 -0.2143 -0.0857 -0.1647
 1474POPC   C3B17687  27.655  26.967  18.488 -0.2372  0.1339  0.0866
 1474POPC   C4B17688  27.880  26.890  18.022  0.1592 -0.1404 -0.0279
 1475POPC   NC317689  12.990  21.384  19.234  0.1284  0.3031 -0.0993
 1475POPC   PO417690  12.863  21.341  19.634  0.1365 -0.2114  0.1087
 1475POPC   GL117691  12.519  21.392  19.302  0.0708 -0.3483 -0.2973
 1475POPC   GL217692  12.474  21.069  19.223  0.2059  0.1564  0.0762
 1475POPC   C1A17693  12.553  21.722  18.940 -0.1814 -0.1336  0.1443
 1475POPC   D2A17694  12.656  22.095  18.648 -0.0240 -0.4106  0.1969
 1475POPC   C3A17695  12.502  22.159  18.227  0.1136 -0.1760  0.0553
 1475POPC   C4A17696  12.314  22.417  17.888 -0.0390  0.2928 -0.2230
 1475POPC   C1B17697  12.699  21.257  18.845  0.1969 -0.0265 -0.3064
 1475POPC   C2B17698  12.778  21.236  18.349  0.1281 -0.0245 -0.2304
 1475POPC   C3B17699  12.482  20.991  18.007  0.2226 -0.0963 -0.0000
 1475POPC   C4B17700  12.475  21.099  17.588 -0.3069 -0.1470  0.0075
 1476POPC   NC317701  23.128   1.406  18.925  0.0349  0.2135  0.0130
 1476POPC   PO417702  22.872   1.684  18.954 -0.0166  0.1686 -0.0803
 1476POPC   GL117703  22.617   1.696  18.602  0.3295 -0.3298 -0.2808
 1476POPC   GL217704  22.688   1.514  18.404 -0.0597  0.0855  0.0901
 1476POPC   C1A17705  22.497   2.145  18.461  0.1832  0.3612 -0.1429
 1476POPC   D2A17706  22.725   2.483  18.311 -0.0145 -0.0366  0.1378
 1476POPC   C3A17707  22.731   2.512  17.855 -0.1155 -0.0211 -0.0537
 1476POPC   C4A17708  22.938   2.208  17.504  0.0426  0.2555 -0.3186
 1476POPC   C1B17709  22.676   1.512  17.919  0.3737  0.2579  0.2098
 1476POPC   C2B17710  22.624   1.325  17.521  0.1494 -0.0724  0.0058
 1476POPC   C3B17711  22.437   1.245  17.083 -0.0997  0.0015  0.0249
 1476POPC   C4B17712  22.511   1.338  16.624  0.0566 -0.0750  0.0895
 1477POPC   NC317713  19.258  18.036  19.255  0.0178 -0.3092 -0.0317
 1477POPC   PO417714  19.416  18.383  19.241  0.0960  0.3392  0.0886
 1477POPC   GL117715  19.361  18.387  18.856  0.3503  0.0573 -0.0695
 1477POPC   GL217716  19.279  18.179  18.740 -0.0128  0.2418 -0.4568
 1477POPC   C1A17717  19.616  18.376  18.405  0.1796  0.0081 -0.4316
 1477POPC   D2A17718  19.738  18.589  18.002  0.0384  0.0458  0.1331
 1477POPC   C3A17719  20.175  18.555  17.757  0.0743  0.2907  0.0964
 1477POPC   C4A17720  20.567  18.372  17.523  0.1593  0.2005  0.1577
 1477POPC   C1B17721  19.216  18.095  18.328 -0.0193 -0.1424 -0.1678
 1477POPC   C2B17722  18.981  18.152  17.941 -0.0750 -0.4581 -0.2575
 1477POPC   C3B17723  18.981  17.902  17.531 -0.3428  0.1550 -0.4702
 1477POPC   C4B17724  19.239  17.476  17.522  0.0967 -0.0799  0.1468
 1478POPC   NC317725  27.239  21.506  19.684 -0.1299  0.3316 -0.0456
 1478POPC   PO417726  27.228  21.156  19.485 -0.1945  0.0205 -0.2703
 1478POPC   GL117727  27.170  21.183  19.109 -0.3767 -0.4790  0.2853
 1478POPC   GL217728  27.338  21.153  18.936  0.2390  0.1665 -0.1121
 1478POPC   C1A17729  26.838  21.182  18.824 -0.1075 -0.0463  0.4320
 1478POPC   D2A17730  26.618  21.067  18.426 -0.0359  0.0877  0.2261
 1478POPC   C3A17731  26.703  21.008  18.015 -0.1454 -0.2608 -0.1605
 1478POPC   C4A17732  26.440  21.050  17.620  0.0267  0.1511 -0.0555
 1478POPC   C1B17733  27.195  21.081  18.506  0.0601 -0.0290 -0.1361
 1478POPC   C2B17734  27.198  20.944  18.098  0.2889 -0.1753 -0.2265
 1478POPC   C3B17735  27.083  21.116  17.689 -0.0310 -0.2499 -0.0476
 1478POPC   C4B17736  26.899  21.320  17.369  0.1151 -0.1833  0.2353
 1479POPC   NC317737  25.256  16.429  20.101  0.0924 -0.0553  0.0649
 1479POPC   PO417738  24.902  16.535  20.227 -0.1443 -0.2474  0.2370
 1479POPC   GL117739  24.535  16.691  20.128  0.1946 -0.2669 -0.1238
 1479POPC   GL217740  24.534  16.859  19.931 -0.1425  0.4223  0.0288
 1479POPC   C1A17741  24.118  16.839  20.305 -0.0975  0.0980  0.1253
 1479POPC   D2A17742  23.670  16.760  20.455  0.3131  0.0038  0.0220
 1479POPC   C3A17743  23.248  16.734  20.588  0.1034  0.2057  0.0610
 1479POPC   C4A17744  22.869  16.714  20.866 -0.0017  0.2886 -0.1749
 1479POPC   C1B17745  24.241  17.180  19.859  0.1866  0.1475  0.0597
 1479POPC   C2B17746  24.270  17.290  19.371 -0.0498 -0.1985 -0.0475
 1479POPC   C3B17747  24.474  17.389  18.967  0.1714 -0.2228 -0.1505
 1479POPC   C4B17748  24.445  17.458  18.518 -0.2654  0.0719 -0.1521
 1480POPC   NC317749  11.460   1.084  19.559 -0.0648 -0.0837  0.0491
 1480POPC   PO417750  11.740   1.071  19.246 -0.2613  0.1492  0.1672
 1480POPC   GL117751  11.513   0.828  19.072  0.1215 -0.3097 -0.0324
 1480POPC   GL217752  11.571   0.644  18.903 -0.0063  0.1212  0.0525
 1480POPC   C1A17753  11.196   0.978  18.748 -0.0063 -0.2488  0.3684
 1480POPC   D2A17754  10.938   1.030  18.378 -0.0090 -0.3051 -0.3672
 1480POPC   C3A17755  10.833   1.412  18.105  0.1054  0.0885  0.3170
 1480POPC   C4A17756  10.821   1.429  17.648 -0.1021 -0.0679  0.0483
 1480POPC   C1B17757  11.513   0.657  18.468 -0.0635 -0.0099 -0.1362
 1480POPC   C2B17758  11.528   0.617  17.986  0.0106  0.0294  0.0963
 1480POPC   C3B17759  11.390   0.618  17.570 -0.0143  0.2623 -0.2512
 1480POPC   C4B17760  11.179   0.370  17.218  0.1744  0.0494  0.0215
 1481POPC   NC317761   4.761  29.768  19.616  0.1186 -0.0166  0.1073
 1481POPC   PO417762   5.025  29.788  19.363  0.1867  0.0729  0.1364
 1481POPC   GL117763   5.236  29.934  19.088 -0.3508 -0.3977  0.0647
 1481POPC   GL217764   5.077  30.095  18.864  0.3750 -0.2907  0.2135
 1481POPC   C1A17765   5.586  30.088  18.888 -0.0348  0.0740  0.1691
 1481POPC   D2A17766   5.820  30.445  18.734  0.1890 -0.0991  0.0864
 1481POPC   C3A17767   5.546  30.700  18.587  0.2653 -0.0154 -0.2342
 1481POPC   C4A17768   5.058  30.665  18.539 -0.1994 -0.0700  0.3753
 1481POPC   C1B17769   5.310  30.171  18.514 -0.2786 -0.0671  0.2257
 1481POPC   C2B17770   5.566  30.201  18.152 -0.2091  0.0601 -0.1314
 1481POPC   C3B17771   5.499  30.358  17.695  0.0374  0.1286  0.2964
 1481POPC   C4B17772   5.615  30.383  17.284 -0.4093  0.0589 -0.1097
 1482POPC   NC317773  28.594  24.063  19.066 -0.0011  0.1015  0.1142
 1482POPC   PO417774  28.982  24.062  19.185 -0.3534 -0.2413  0.0159
 1482POPC   GL117775  29.166  24.000  18.873  0.0833  0.4504  0.2053
 1482POPC   GL217776  28.936  24.102  18.670  0.1313  0.1386  0.2113
 1482POPC   C1A17777  29.436  24.243  18.563  0.2414  0.0738  0.1379
 1482POPC   D2A17778  29.264  24.210  18.180  0.1152  0.0501  0.0811
 1482POPC   C3A17779  29.413  24.122  17.782 -0.2036 -0.0265 -0.1050
 1482POPC   C4A17780  29.485  24.174  17.339  0.0581 -0.2220  0.2513
 1482POPC   C1B17781  28.934  24.500  18.402 -0.0044  0.1138 -0.3843
 1482POPC   C2B17782  28.757  24.774  18.026 -0.2632  0.1873  0.0104
 1482POPC   C3B17783  28.629  24.712  17.575  0.1577  0.1456  0.0595
 1482POPC   C4B17784  28.224  24.878  17.378  0.0193  0.2488  0.0882
 1483POPC   NC317785   3.950  26.464  19.487  0.0616  0.2089  0.0348
 1483POPC   PO417786   4.088  26.801  19.599 -0.0575  0.2827 -0.0483
 1483POPC   GL117787   4.324  26.862  19.362  0.2937  0.1299 -0.1148
 1483POPC   GL217788   4.218  27.094  19.254  0.4149  0.0568 -0.1293
 1483POPC   C1A17789   4.455  26.780  18.963 -0.0467 -0.1648 -0.1648
 1483POPC   D2A17790   4.709  26.530  18.667 -0.1423  0.0469  0.0037
 1483POPC   C3A17791   4.555  26.423  18.239  0.0406  0.2970 -0.1526
 1483POPC   C4A17792   4.288  26.453  17.828  0.1714  0.4324 -0.1845
 1483POPC   C1B17793   4.401  27.308  18.903  0.1120  0.1056  0.3463
 1483POPC   C2B17794   4.433  27.269  18.452 -0.0605  0.0368 -0.1942
 1483POPC   C3B17795   4.611  27.347  18.044  0.2883 -0.3486 -0.0389
 1483POPC   C4B17796   4.600  27.244  17.584 -0.2316  0.4130  0.3258
 1484POPC   NC317797  26.994  15.013  18.921 -0.1286 -0.0349  0.1092
 1484POPC   PO417798  27.002  14.656  19.010 -0.0001  0.0695 -0.0709
 1484POPC   GL117799  26.983  14.642  18.571  0.0034 -0.1997 -0.2087
 1484POPC   GL217800  27.019  14.336  18.609  0.1487  0.1205 -0.0852
 1484POPC   C1A17801  27.078  14.594  18.136  0.0070 -0.0914 -0.3898
 1484POPC   D2A17802  27.177  14.399  17.723 -0.0063 -0.3102 -0.1766
 1484POPC   C3A17803  27.236  14.466  17.277 -0.0662 -0.1170 -0.3958
 1484POPC   C4A17804  27.341  14.449  16.844 -0.3499 -0.2342  0.1923
 1484POPC   C1B17805  27.145  14.112  18.257  0.0060 -0.2214 -0.3711
 1484POPC   C2B17806  27.220  13.734  17.962 -0.0483 -0.2637 -0.0601
 1484POPC   C3B17807  27.321  13.394  17.621  0.0665  0.2900  0.1807
 1484POPC   C4B17808  27.413  13.186  17.236  0.4984  0.1633  0.0024
 1485POPC   NC317809   7.172  10.429  18.876 -0.1214  0.2636 -0.0471
 1485POPC   PO417810   6.806  10.487  19.014  0.2604  0.0448 -0.0807
 1485POPC   GL117811   6.620  10.557  18.609 -0.0195  0.1901  0.1655
 1485POPC   GL217812   6.380  10.724  18.498  0.0861  0.0154  0.3485
 1485POPC   C1A17813   6.824  10.827  18.291 -0.2219 -0.1068 -0.1479
 1485POPC   D2A17814   7.296  10.957  18.117  0.1133  0.0048  0.0640
 1485POPC   C3A17815   7.236  10.890  17.654 -0.1954  0.2780 -0.0205
 1485POPC   C4A17816   6.944  10.655  17.457 -0.2700  0.1454 -0.0184
 1485POPC   C1B17817   6.294  10.717  18.016 -0.2058 -0.0697 -0.1061
 1485POPC   C2B17818   6.254  10.920  17.564  0.2206  0.0516 -0.2263
 1485POPC   C3B17819   5.896  11.126  17.408 -0.0127 -0.2893 -0.2533
 1485POPC   C4B17820   5.447  11.136  17.333  0.0528  0.1963  0.0704
 1486POPC   NC317821  30.854   1.398  19.483  0.0863 -0.1782 -0.1819
 1486POPC   PO417822  30.604   1.603  19.723 -0.0396 -0.1573 -0.2560
 1486POPC   GL117823  30.606   1.926  19.538 -0.2399  0.1774  0.0790
 1486POPC   GL217824  30.556   1.768  19.243  0.0793  0.0455 -0.1998
 1486POPC   C1A17825  30.857   2.134  19.184 -0.0631  0.1239  0.0926
 1486POPC   D2A17826  31.109   2.421  18.941  0.0400  0.0064 -0.0073
 1486POPC   C3A17827  31.086   2.609  18.551 -0.1432 -0.0128  0.2990
 1486POPC   C4A17828  30.902   2.769  18.134  0.0995  0.3157  0.1759
 1486POPC   C1B17829  30.388   2.026  18.848 -0.0848  0.2994  0.0217
 1486POPC   C2B17830  30.483   1.970  18.382  0.3454  0.1788  0.2356
 1486POPC   C3B17831  30.325   2.060  17.913 -0.0868 -0.0957 -0.2627
 1486POPC   C4B17832  30.208   1.940  17.469  0.0422 -0.0220  0.0246
 1487POPC   NC317833  27.076  27.569  19.814  0.0370 -0.1230 -0.3976
 1487POPC   PO417834  27.306  27.464  19.514  0.1170 -0.3036  0.0609
 1487POPC   GL117835  27.064  27.182  19.486 -0.1874  0.1854  0.1270
 1487POPC   GL217836  26.985  27.279  19.169  0.0061 -0.3825 -0.0156
 1487POPC   C1A17837  27.110  26.811  19.175 -0.2365  0.0977  0.0378
 1487POPC   D2A17838  26.999  26.650  18.785  0.0940  0.2376 -0.0118
 1487POPC   C3A17839  27.163  26.733  18.417 -0.2003  0.0849  0.1622
 1487POPC   C4A17840  27.421  26.796  18.012  0.0794 -0.1509 -0.1333
 1487POPC   C1B17841  26.712  27.097  18.807 -0.2516  0.0337 -0.3909
 1487POPC   C2B17842  26.713  27.148  18.331 -0.1900 -0.2307 -0.0510
 1487POPC   C3B17843  26.961  26.985  17.971 -0.2703 -0.1079  0.2518
 1487POPC   C4B17844  26.935  27.115  17.533  0.1388 -0.0693 -0.2438
 1488POPC   NC317845  15.953  21.152  19.841 -0.1287  0.3022  0.0053
 1488POPC   PO417846  16.295  21.008  19.694  0.0017 -0.0325 -0.3095
 1488POPC   GL117847  16.076  21.095  19.332 -0.1766 -0.0665  0.0744
 1488POPC   GL217848  16.078  20.948  19.064  0.2332  0.0334  0.1641
 1488POPC   C1A17849  15.664  21.148  19.170 -0.2179 -0.3649 -0.1925
 1488POPC   D2A17850  15.287  21.139  18.871  0.0107  0.0507  0.1091
 1488POPC   C3A17851  15.395  21.224  18.446  0.1906 -0.1015 -0.1098
 1488POPC   C4A17852  15.484  21.102  17.962 -0.0093 -0.0992 -0.0422
 1488POPC   C1B17853  15.725  20.896  18.708  0.0239  0.0329  0.1741
 1488POPC   C2B17854  15.407  20.748  18.464 -0.0646  0.0089 -0.0798
 1488POPC   C3B17855  15.174  20.776  18.035 -0.0291  0.1713 -0.1442
 1488POPC   C4B17856  14.922  20.929  17.669  0.3669  0.1567  0.0795
 1489POPC   NC317857   7.332   8.233  19.375  0.1161  0.0026  0.3219
 1489POPC   PO417858   6.948   8.364  19.200  0.3309  0.2073  0.0692
 1489POPC   GL117859   6.902   8.241  18.865  0.0431 -0.0109  0.2105
 1489POPC   GL217860   6.605   8.114  18.884  0.1067 -0.1363 -0.2256
 1489POPC   C1A17861   7.149   8.091  18.525 -0.1017 -0.0165  0.1697
 1489POPC   D2A17862   7.470   8.054  18.164 -0.0424  0.0838 -0.0365
 1489POPC   C3A17863   7.801   8.356  17.974  0.2195  0.2124 -0.1056
 1489POPC   C4A17864   8.060   8.702  18.064  0.2230  0.2389  0.0203
 1489POPC   C1B17865   6.651   8.395  18.517 -0.4780 -0.0713  0.0393
 1489POPC   C2B17866   6.789   8.310  18.069 -0.3571  0.0507 -0.0192
 1489POPC   C3B17867   7.091   8.234  17.744 -0.2287  0.1175 -0.4364
 1489POPC   C4B17868   7.440   8.109  17.465  0.1083 -0.3919  0.0753
 1490POPC   NC317869   2.431   3.643  19.554  0.0239  0.1344  0.1490
 1490POPC   PO417870   2.756   3.665  19.316 -0.1366  0.1339 -0.1499
 1490POPC   GL117871   2.906   3.559  18.947 -0.2376 -0.0889 -0.1489
 1490POPC   GL217872   2.961   3.888  18.917 -0.0812  0.0506  0.0986
 1490POPC   C1A17873   3.147   3.338  18.565  0.3453 -0.2897 -0.2929
 1490POPC   D2A17874   3.441   3.520  18.210 -0.1937  0.2691  0.0551
 1490POPC   C3A17875   3.774   3.684  17.955 -0.1861 -0.3684 -0.0199
 1490POPC   C4A17876   3.821   4.047  17.675 -0.0404  0.0731  0.0538
 1490POPC   C1B17877   2.736   3.869  18.488  0.2043 -0.0817  0.3444
 1490POPC   C2B17878   2.778   3.770  18.042  0.3212  0.2636 -0.0825
 1490POPC   C3B17879   3.124   3.857  17.793  0.0933 -0.1352 -0.0250
 1490POPC   C4B17880   3.433   3.792  17.447  0.0245 -0.0517 -0.0452
 1491POPC   NC317881  11.493   5.048  19.577  0.5502 -0.2266 -0.0951
 1491POPC   PO417882  11.455   4.902  19.202 -0.2195  0.1114  0.3384
 1491POPC   GL117883  11.292   4.867  18.770 -0.1118  0.0151  0.0742
 1491POPC   GL217884  11.378   4.600  18.761  0.1418 -0.2105 -0.1296
 1491POPC   C1A17885  10.980   4.762  18.415  0.2670 -0.3294  0.2866
 1491POPC   D2A17886  10.654   4.457  18.308 -0.1544 -0.0503  0.1578
 1491POPC   C3A17887  10.589   4.436  17.878 -0.1532 -0.0329  0.6170
 1491POPC   C4A17888  10.352   4.259  17.586  0.1072  0.1573 -0.2075
 1491POPC   C1B17889  11.519   4.682  18.327 -0.0652  0.1195 -0.4570
 1491POPC   C2B17890  11.798   4.814  18.009  0.1063  0.1320  0.0517
 1491POPC   C3B17891  12.188   4.855  17.706 -0.0045 -0.1047 -0.2867
 1491POPC   C4B17892  12.114   4.932  17.282 -0.0252 -0.0954 -0.3845
 1492POPC   NC317893  10.771  30.125  19.232  0.1113 -0.1456  0.0678
 1492POPC   PO417894  10.515  30.449  19.227  0.0298 -0.3826  0.3834
 1492POPC   GL117895  10.397  30.472  18.807  0.0204 -0.0961 -0.1526
 1492POPC   GL217896  10.703  30.624  18.714  0.3334  0.1804  0.1009
 1492POPC   C1A17897  10.195  30.621  18.412  0.2180 -0.0801  0.0377
 1492POPC   D2A17898  10.032  30.518  17.940  0.3577 -0.3508 -0.2044
 1492POPC   C3A17899   9.864  30.814  17.661 -0.0613 -0.1618  0.1898
 1492POPC   C4A17900  10.099  31.119  17.328  0.1469  0.0690  0.0949
 1492POPC   C1B17901  10.714  30.701  18.290 -0.0727 -0.2605 -0.0364
 1492POPC   C2B17902  10.534  30.851  17.900 -0.1417 -0.1250 -0.0932
 1492POPC   C3B17903  10.615  31.120  17.527 -0.1115  0.0703  0.0190
 1492POPC   C4B17904  10.528  31.316  17.136 -0.1698 -0.0648 -0.1077
 1493POPC   NC317905   1.813   7.218  19.215 -0.1049  0.2052 -0.0773
 1493POPC   PO417906   1.453   7.155  19.335 -0.0141 -0.0148  0.0486
 1493POPC   GL117907   1.368   7.049  18.953  0.2558 -0.0172  0.2737
 1493POPC   GL217908   1.615   7.086  18.800  0.2400 -0.0673 -0.1851
 1493POPC   C1A17909   1.138   6.710  18.693 -0.0074  0.3356 -0.1871
 1493POPC   D2A17910   0.975   6.412  18.419 -0.0840  0.0284 -0.2293
 1493POPC   C3A17911   1.126   6.239  18.040  0.0708  0.0401 -0.0384
 1493POPC   C4A17912   1.151   5.809  17.870 -0.0563 -0.1245  0.1269
 1493POPC   C1B17913   1.984   6.775  18.766  0.3783 -0.3318 -0.1414
 1493POPC   C2B17914   2.042   6.470  18.436 -0.1290  0.0173  0.1292
 1493POPC   C3B17915   2.359   6.275  18.134  0.2114 -0.0784  0.4984
 1493POPC   C4B17916   2.668   6.239  17.815 -0.1008 -0.1626 -0.0569
 1494POPC   NC317917  23.698  31.447  19.349  0.0764 -0.0692 -0.1017
 1494POPC   PO417918  23.913  31.761  19.382 -0.0528  0.2348  0.0241
 1494POPC   GL117919  24.048  31.666  19.063 -0.0020  0.0149 -0.0787
 1494POPC   GL217920  24.064  31.347  19.010  0.0351  0.1987  0.0779
 1494POPC   C1A17921  24.208  31.776  18.679  0.3543 -0.0726 -0.0529
 1494POPC   D2A17922  24.272  31.713  18.235 -0.1643 -0.2425 -0.0097
 1494POPC   C3A17923  24.646  31.876  18.489  0.0172  0.2267 -0.2968
 1494POPC   C4A17924  24.945  32.029  18.757  0.1885  0.4317  0.2324
 1494POPC   C1B17925  24.064  31.285  18.523  0.1050 -0.2517 -0.0382
 1494POPC   C2B17926  24.146  31.251  18.094 -0.0817  0.2423  0.0148
 1494POPC   C3B17927  24.287  31.078  17.689  0.1295  0.2282 -0.0069
 1494POPC   C4B17928  24.610  31.228  17.440 -0.1640  0.1168 -0.0176
 1495POPC   NC317929  23.045  30.611  19.566  0.0719 -0.2273 -0.0747
 1495POPC   PO417930  22.714  30.419  19.617 -0.5774  0.0747  0.2676
 1495POPC   GL117931  22.781  30.239  19.287 -0.0469 -0.0581 -0.0256
 1495POPC   GL217932  22.945  30.275  19.027 -0.1410  0.0985 -0.1091
 1495POPC   C1A17933  22.463  30.244  18.947  0.3097  0.0262 -0.0519
 1495POPC   D2A17934  22.219  30.486  18.633  0.0971 -0.1292  0.1209
 1495POPC   C3A17935  22.183  30.345  18.168 -0.0864 -0.0034  0.0168
 1495POPC   C4A17936  22.196  30.408  17.756 -0.0406  0.1389 -0.2079
 1495POPC   C1B17937  23.093  30.093  18.595  0.5000 -0.0610  0.0482
 1495POPC   C2B17938  23.283  29.801  18.293  0.0059 -0.0501 -0.4555
 1495POPC   C3B17939  23.358  29.423  18.033 -0.0542  0.1185  0.2132
 1495POPC   C4B17940  23.454  29.002  17.987  0.1197 -0.0953  0.1364
 1496POPC   NC317941   3.276  17.984  19.268  0.0309 -0.0998 -0.3806
 1496POPC   PO417942   2.899  17.953  19.203  0.2890 -0.0377  0.1288
 1496POPC   GL117943   2.898  18.165  18.934 -0.0810  0.0787 -0.2278
 1496POPC   GL217944   3.129  17.968  18.765 -0.0759  0.3300 -0.0021
 1496POPC   C1A17945   2.746  18.245  18.485 -0.2237 -0.3661  0.0466
 1496POPC   D2A17946   2.670  18.318  18.013 -0.1205 -0.2784 -0.3901
 1496POPC   C3A17947   2.808  18.255  17.595  0.1115  0.0248  0.0838
 1496POPC   C4A17948   3.053  18.214  17.192 -0.0185  0.1608 -0.0682
 1496POPC   C1B17949   3.150  17.804  18.419 -0.2700  0.1148 -0.2272
 1496POPC   C2B17950   2.952  17.869  18.019  0.0367 -0.0798  0.0709
 1496POPC   C3B17951   2.818  17.737  17.603 -0.0919  0.1417  0.1181
 1496POPC   C4B17952   2.682  17.803  17.214  0.1320  0.1911  0.1476
 1497POPC   NC317953   3.106   0.280  19.281 -0.1111  0.2054  0.0619
 1497POPC   PO417954   2.989  -0.095  19.353  0.3878 -0.0876  0.1362
 1497POPC   GL117955   2.951  -0.202  18.995 -0.0841 -0.2852 -0.2417
 1497POPC   GL217956   3.120  -0.296  18.787 -0.0417  0.0210 -0.1227
 1497POPC   C1A17957   2.673  -0.186  18.673  0.2213  0.2152 -0.2172
 1497POPC   D2A17958   2.193  -0.258  18.643  0.2810  0.0473 -0.0294
 1497POPC   C3A17959   1.823  -0.078  18.430 -0.2512  0.0891 -0.2778
 1497POPC   C4A17960   1.635  -0.002  18.006  0.0467 -0.2409 -0.0422
 1497POPC   C1B17961   3.008  -0.376  18.315 -0.1444 -0.2061  0.3113
 1497POPC   C2B17962   3.168  -0.295  17.873  0.3225 -0.0172  0.2304
 1497POPC   C3B17963   3.507  -0.034  17.699 -0.0634  0.0220 -0.3081
 1497POPC   C4B17964   3.893   0.072  17.520  0.1222 -0.1390  0.2790
 1498POPC   NC317965  23.866   2.749  18.950  0.1396  0.1828 -0.4802
 1498POPC   PO417966  24.008   2.440  19.135 -0.0618  0.2708 -0.1147
 1498POPC   GL117967  24.099   2.308  18.787 -0.0179 -0.0966  0.0706
 1498POPC   GL217968  24.341   2.505  18.761  0.1080  0.0663  0.1905
 1498POPC   C1A17969  23.885   2.225  18.452  0.0129  0.1293  0.1414
 1498POPC   D2A17970  23.883   2.108  17.980  0.2579 -0.1380 -0.1880
 1498POPC   C3A17971  23.664   2.411  17.680  0.2817  0.0428  0.3516
 1498POPC   C4A17972  23.214   2.615  17.467  0.0386  0.0229 -0.2670
 1498POPC   C1B17973  24.011   2.730  18.513  0.1435  0.1122 -0.0181
 1498POPC   C2B17974  23.924   2.655  18.080 -0.2814  0.1948  0.0658
 1498POPC   C3B17975  23.931   2.880  17.676  0.1754  0.3046 -0.0072
 1498POPC   C4B17976  24.107   2.959  17.295  0.1592 -0.1624  0.4605
 1499POPC   NC317977   9.674  11.654  19.201 -0.0629  0.0629  0.2845
 1499POPC   PO417978   9.865  11.345  19.347  0.0391  0.3051 -0.1638
 1499POPC   GL117979  10.044  11.143  19.047  0.2832  0.0138 -0.0949
 1499POPC   GL217980  10.105  10.840  18.988 -0.0182 -0.1303 -0.1832
 1499POPC   C1A17981  10.492  11.109  18.843 -0.4668 -0.2882  0.1253
 1499POPC   D2A17982  10.752  11.495  18.690  0.0801 -0.1899  0.3640
 1499POPC   C3A17983  11.042  11.535  18.345 -0.0388  0.2224  0.1562
 1499POPC   C4A17984  11.174  11.739  17.932  0.0194 -0.1309 -0.1068
 1499POPC   C1B17985  10.131  10.814  18.544  0.1289  0.1342  0.4138
 1499POPC   C2B17986  10.352  10.704  18.182 -0.0873 -0.1324  0.0996
 1499POPC   C3B17987  10.408  10.362  17.901  0.2184  0.3971 -0.1402
 1499POPC   C4B17988  10.130  10.366  17.534  0.1230  0.0536  0.2291
 1500POPC   NC317989  28.192  29.723  19.198 -0.1115 -0.0048  0.0930
 1500POPC   PO417990  28.262  29.380  19.023  0.3380  0.0671  0.0618
 1500POPC   GL117991  28.125  29.573  18.699  0.0070 -0.1065 -0.1920
 1500POPC   GL217992  28.352  29.589  18.580 -0.0610 -0.2798  0.1456
 1500POPC   C1A17993  28.091  29.578  18.204  0.0313  0.2294 -0.1792
 1500POPC   D2A17994  28.246  29.603  17.783  0.1336 -0.0070  0.0297
 1500POPC   C3A17995  27.921  29.751  17.470 -0.0628 -0.0292  0.0101
 1500POPC   C4A17996  27.461  29.670  17.304  0.3610  0.0222  0.1384
 1500POPC   C1B17997  28.788  29.553  18.397 -0.2877  0.2532  0.2688
 1500POPC   C2B17998  28.996  29.363  18.078 -0.0575  0.3282  0.4033
 1500POPC   C3B17999  29.060  29.221  17.647  0.0091 -0.0259 -0.1968
 1500POPC   C4B18000  29.162  29.153  17.225  0.2418  0.1911 -0.0722
 1501POPC   NC318001  28.125   0.972  19.651  0.5137  0.0904  0.2658
 1501POPC   PO418002  28.153   1.066  19.284  0.0572  0.1324  0.1484
 1501POPC   GL118003  28.095   1.279  18.942  0.0468 -0.3052  0.1889
 1501POPC   GL218004  27.919   1.078  18.812 -0.2200 -0.1344 -0.2576
 1501POPC   C1A18005  28.399   1.278  18.657 -0.1911 -0.0436 -0.0391
 1501POPC   D2A18006  28.563   1.147  18.257 -0.2760  0.0019 -0.0443
 1501POPC   C3A18007  28.490   1.220  17.803  0.1840 -0.2913 -0.0985
 1501POPC   C4A18008  28.771   1.319  17.424  0.1101 -0.0560 -0.2176
 1501POPC   C1B18009  27.794   1.048  18.353 -0.1915  0.0709 -0.0638
 1501POPC   C2B18010  27.842   1.312  17.940 -0.0151  0.2314 -0.4370
 1501POPC   C3B18011  27.967   1.240  17.539 -0.2738  0.2147  0.0841
 1501POPC   C4B18012  28.237   1.271  17.213  0.1348  0.1133  0.2706
 1502POPC   NC318013  17.184  30.004  19.328 -0.0901  0.2099 -0.0395
 1502POPC   PO418014  17.251  30.371  19.518  0.4381  0.0364  0.0688
 1502POPC   GL118015  17.190  30.609  19.282  0.2228 -0.5953 -0.1066
 1502POPC   GL218016  17.367  30.851  19.198 -0.0873  0.1998  0.2927
 1502POPC   C1A18017  17.307  30.523  18.798  0.0649 -0.0008  0.0626
 1502POPC   D2A18018  17.367  30.492  18.355 -0.0820  0.0396 -0.2723
 1502POPC   C3A18019  17.713  30.187  18.278 -0.0632  0.0575  0.1434
 1502POPC   C4A18020  18.016  29.851  18.296  0.2742  0.1826  0.1853
 1502POPC   C1B18021  17.304  31.044  18.801 -0.1276  0.0096 -0.1366
 1502POPC   C2B18022  17.335  31.115  18.358 -0.2746  0.0802  0.0912
 1502POPC   C3B18023  17.368  31.107  17.901 -0.2927 -0.0952 -0.1874
 1502POPC   C4B18024  17.405  31.484  17.619  0.2121 -0.0505 -0.0639
 1503POPC   NC318025   4.396  30.415  19.487 -0.1777  0.1136 -0.2215
 1503POPC   PO418026   4.530  30.097  19.334 -0.1091 -0.2316  0.1209
 1503POPC   GL118027   4.623  30.265  18.968 -0.1194  0.0828  0.0754
 1503POPC   GL218028   4.559  29.985  18.835  0.1880 -0.1640 -0.4855
 1503POPC   C1A18029   4.713  30.303  18.510  0.0704  0.2211  0.0529
 1503POPC   D2A18030   4.872  30.443  18.095 -0.3110  0.1241 -0.2966
 1503POPC   C3A18031   4.508  30.306  17.790 -0.3344 -0.2090 -0.0016
 1503POPC   C4A18032   4.337  30.133  17.461  0.0594 -0.3820  0.1979
 1503POPC   C1B18033   4.427  29.927  18.375  0.2284  0.0399  0.3137
 1503POPC   C2B18034   4.651  29.852  17.993  0.0923  0.3584 -0.0149
 1503POPC   C3B18035   4.828  29.912  17.568  0.0424  0.2279  0.1319
 1503POPC   C4B18036   5.038  30.330  17.526  0.3553 -0.1466  0.0729
 1504POPC   NC318037  18.386  30.147  19.561 -0.0202  0.3263  0.3961
 1504POPC   PO418038  18.522  30.335  19.250 -0.2105 -0.1870 -0.0301
 1504POPC   GL118039  18.541  30.397  18.890  0.2822  0.1169 -0.1407
 1504POPC   GL218040  18.331  30.608  18.844 -0.1905 -0.0722  0.1471
 1504POPC   C1A18041  18.689  30.522  18.479  0.1469 -0.1958 -0.1087
 1504POPC   D2A18042  18.629  30.522  18.005 -0.1761  0.1603  0.0356
 1504POPC   C3A18043  18.558  30.317  17.566  0.1172 -0.1331 -0.0002
 1504POPC   C4A18044  18.792  30.175  17.205 -0.0516 -0.0220 -0.2622
 1504POPC   C1B18045  18.194  30.855  18.477 -0.1916 -0.1829 -0.2510
 1504POPC   C2B18046  18.244  30.930  18.039  0.0151 -0.0085 -0.2439
 1504POPC   C3B18047  17.948  30.990  17.687  0.0483 -0.2886 -0.0552
 1504POPC   C4B18048  17.549  30.969  17.453 -0.1493 -0.0160  0.2167
 1505POPC   NC318049  19.181   5.202  19.373 -0.0914 -0.3259  0.2286
 1505POPC   PO418050  18.866   5.019  19.550  0.2980  0.3756 -0.1806
 1505POPC   GL118051  18.886   4.928  19.141 -0.1186 -0.0052  0.2154
 1505POPC   GL218052  18.886   4.746  18.947  0.3972 -0.1184  0.0531
 1505POPC   C1A18053  19.156   5.222  18.843 -0.0247 -0.0873  0.2748
 1505POPC   D2A18054  19.109   5.263  18.351 -0.1224 -0.0782  0.0815
 1505POPC   C3A18055  19.211   5.541  18.022 -0.0063 -0.2564 -0.0364
 1505POPC   C4A18056  19.647   5.687  17.932 -0.1783 -0.3361 -0.0048
 1505POPC   C1B18057  18.919   4.795  18.502  0.0664 -0.0684 -0.1404
 1505POPC   C2B18058  18.939   4.783  18.067 -0.1978 -0.3320 -0.2011
 1505POPC   C3B18059  18.676   4.787  17.680  0.3576 -0.2801 -0.0538
 1505POPC   C4B18060  18.408   4.512  17.426 -0.1837 -0.1204  0.2439
 1506POPC   NC318061  22.473   9.703  19.897  0.0742 -0.1119  0.0303
 1506POPC   PO418062  22.334  10.090  19.758 -0.1440 -0.1665  0.0119
 1506POPC   GL118063  22.596  10.185  19.498  0.0903  0.0718 -0.0241
 1506POPC   GL218064  22.825  10.255  19.370  0.1479 -0.1243 -0.0775
 1506POPC   C1A18065  22.385  10.142  19.094  0.0936  0.1744 -0.0888
 1506POPC   D2A18066  22.357  10.041  18.634  0.1172 -0.2339 -0.0866
 1506POPC   C3A18067  22.187  10.325  18.295 -0.0486  0.0936  0.1954
 1506POPC   C4A18068  22.020  10.582  17.924 -0.3081  0.1424 -0.1145
 1506POPC   C1B18069  22.811  10.566  19.038  0.1255 -0.1906  0.3261
 1506POPC   C2B18070  22.866  10.839  18.641 -0.0128 -0.3694 -0.2209
 1506POPC   C3B18071  22.916  10.713  18.205  0.0024  0.1339 -0.0304
 1506POPC   C4B18072  22.960  10.538  17.755  0.0366 -0.1308 -0.0694
 1507POPC   NC318073   0.953   2.514  19.047  0.2135 -0.0171 -0.0701
 1507POPC   PO418074   0.617   2.359  19.212 -0.0656 -0.0638  0.2234
 1507POPC   GL118075   0.292   2.276  18.960  0.1884  0.3511 -0.1503
 1507POPC   GL218076   0.021   2.323  18.967  0.0048  0.0612 -0.2817
 1507POPC   C1A18077   0.225   2.388  18.516  0.1213 -0.1384 -0.1989
 1507POPC   D2A18078   0.116   2.331  18.068 -0.0020  0.0263  0.0961
 1507POPC   C3A18079   0.111   2.471  17.616 -0.0475  0.1044  0.0433
 1507POPC   C4A18080  -0.170   2.629  17.245 -0.1551 -0.1729  0.0101
 1507POPC   C1B18081  -0.281   2.263  18.623 -0.0023  0.2377  0.2810
 1507POPC   C2B18082  -0.317   2.191  18.207  0.0676  0.2520  0.1944
 1507POPC   C3B18083  -0.265   2.049  17.791 -0.2257 -0.1131 -0.0704
 1507POPC   C4B18084  -0.547   1.969  17.444 -0.1341  0.2363  0.0879
 1508POPC   NC318085   1.054  16.310  19.089  0.3123 -0.2505 -0.1967
 1508POPC   PO418086   0.980  15.905  19.123 -0.1414 -0.1634 -0.0266
 1508POPC   GL118087   0.993  15.907  18.683  0.0029  0.0357 -0.2491
 1508POPC   GL218088   0.780  16.090  18.671  0.0720 -0.0666  0.4114
 1508POPC   C1A18089   0.709  15.677  18.380 -0.2448  0.3729 -0.0055
 1508POPC   D2A18090   0.462  15.305  18.300  0.0464  0.1290 -0.0405
 1508POPC   C3A18091   0.512  14.946  18.009  0.2628 -0.0506 -0.0461
 1508POPC   C4A18092   0.351  14.664  17.612 -0.1196 -0.1498  0.0566
 1508POPC   C1B18093   0.658  16.156  18.251  0.1246 -0.1288 -0.0545
 1508POPC   C2B18094   0.646  16.329  17.829 -0.1108 -0.1336 -0.0206
 1508POPC   C3B18095   0.402  16.589  17.532  0.0904  0.3649  0.0741
 1508POPC   C4B18096   0.037  16.599  17.232 -0.2173  0.1617 -0.0290
 1509POPC   NC318097  11.727  20.246  19.262 -0.1360  0.3567  0.1197
 1509POPC   PO418098  11.382  20.085  19.390  0.1213 -0.1922  0.3083
 1509POPC   GL118099  11.271  19.941  19.025  0.0813 -0.0974  0.0942
 1509POPC   GL218100  11.389  20.123  18.855  0.3939  0.0634  0.0212
 1509POPC   C1A18101  10.890  19.977  18.724  0.0058  0.2974  0.0803
 1509POPC   D2A18102  10.443  19.847  18.632  0.0354 -0.1461  0.1861
 1509POPC   C3A18103  10.268  19.810  18.241  0.3647 -0.2905  0.0824
 1509POPC   C4A18104  10.051  19.593  17.953  0.0054 -0.1335 -0.1378
 1509POPC   C1B18105  11.433  20.064  18.423 -0.1313  0.0863 -0.0192
 1509POPC   C2B18106  11.247  20.060  17.981  0.1642  0.1078  0.2897
 1509POPC   C3B18107  11.278  20.023  17.536 -0.0085 -0.1872 -0.0139
 1509POPC   C4B18108  11.240  19.745  17.174 -0.2617  0.1427 -0.2600
 1510POPC   NC318109  10.188  25.738  18.859 -0.0049  0.1854  0.2138
 1510POPC   PO418110  10.420  25.975  18.991 -0.2084  0.1096 -0.1178
 1510POPC   GL118111  10.308  26.164  18.698  0.3469  0.2537  0.1488
 1510POPC   GL218112  10.022  26.126  18.595  0.1940  0.7053 -0.2229
 1510POPC   C1A18113  10.548  26.196  18.335 -0.1914 -0.1167  0.0930
 1510POPC   D2A18114  10.337  26.030  17.950  0.0174 -0.0832 -0.0441
 1510POPC   C3A18115  10.390  26.156  17.535 -0.0531  0.2530  0.0365
 1510POPC   C4A18116  10.352  26.390  17.122 -0.1451 -0.1571  0.1670
 1510POPC   C1B18117   9.959  26.277  18.172  0.2533  0.0230  0.0785
 1510POPC   C2B18118   9.817  26.163  17.726  0.0438  0.0346  0.1883
 1510POPC   C3B18119   9.559  26.012  17.338 -0.1247  0.0384 -0.0059
 1510POPC   C4B18120   9.287  25.624  17.258  0.0380 -0.1682 -0.0933
 1511POPC   NC318121  16.332   6.283  19.177 -0.1058  0.2237  0.0193
 1511POPC   PO418122  16.429   6.529  19.478 -0.0260 -0.0848  0.0770
 1511POPC   GL118123  16.082   6.550  19.389  0.1487  0.0981 -0.1935
 1511POPC   GL218124  16.135   6.834  19.133  0.4242 -0.0760 -0.1599
 1511POPC   C1A18125  15.873   6.411  19.028  0.1087 -0.3738  0.3907
 1511POPC   D2A18126  15.733   6.348  18.613 -0.1445 -0.0870  0.2235
 1511POPC   C3A18127  15.907   5.970  18.399 -0.1849  0.2216 -0.1333
 1511POPC   C4A18128  16.064   5.542  18.534 -0.1048  0.0286  0.2223
 1511POPC   C1B18129  16.281   6.558  18.767  0.0696  0.0945  0.0872
 1511POPC   C2B18130  16.236   6.387  18.368 -0.1425  0.1870 -0.0267
 1511POPC   C3B18131  16.298   6.227  17.900  0.1799  0.1403  0.0174
 1511POPC   C4B18132  16.485   6.100  17.500 -0.0321  0.2297 -0.0009
 1512POPC   NC318133  15.413   1.312  19.303 -0.1137  0.0600 -0.1663
 1512POPC   PO418134  15.041   1.197  19.217  0.2892 -0.1324 -0.0702
 1512POPC   GL118135  15.273   1.218  18.846 -0.3039 -0.1922 -0.1837
 1512POPC   GL218136  15.211   0.909  18.809 -0.1683  0.0672 -0.3567
 1512POPC   C1A18137  15.355   1.615  18.569  0.2799  0.0197 -0.0593
 1512POPC   D2A18138  15.108   1.810  18.292 -0.1614 -0.0903  0.1749
 1512POPC   C3A18139  15.061   1.852  17.792  0.0976 -0.0938 -0.0532
 1512POPC   C4A18140  15.067   1.995  17.312 -0.1222  0.0255 -0.0206
 1512POPC   C1B18141  15.338   1.095  18.398 -0.2020 -0.1654 -0.1980
 1512POPC   C2B18142  15.247   1.377  18.041  0.2348 -0.1995 -0.1899
 1512POPC   C3B18143  15.224   1.473  17.572  0.0491  0.1385  0.0110
 1512POPC   C4B18144  15.065   1.521  17.146  0.1047 -0.2594 -0.1839
 1513POPC   NC318145  24.549   5.775  19.495  0.1566 -0.0244 -0.0160
 1513POPC   PO418146  24.939   5.898  19.433  0.0420  0.1283  0.2170
 1513POPC   GL118147  24.766   5.916  19.016 -0.2253 -0.3317 -0.0728
 1513POPC   GL218148  24.875   5.682  18.899 -0.2859  0.2236  0.0146
 1513POPC   C1A18149  24.484   6.000  18.679  0.2090  0.0645  0.0483
 1513POPC   D2A18150  24.318   5.772  18.286 -0.0154  0.2604 -0.1357
 1513POPC   C3A18151  23.970   5.814  17.930 -0.1811  0.0578 -0.0042
 1513POPC   C4A18152  23.880   5.705  17.467 -0.1496  0.4736  0.1826
 1513POPC   C1B18153  24.635   5.464  18.583 -0.1759 -0.0878 -0.1456
 1513POPC   C2B18154  24.648   5.354  18.105 -0.1495 -0.2566 -0.0105
 1513POPC   C3B18155  24.464   5.554  17.733 -0.3016 -0.0713 -0.0350
 1513POPC   C4B18156  24.427   5.680  17.282  0.0706  0.2509  0.0354
 1514POPC   NC318157  12.457  27.693  19.580 -0.4304 -0.0149 -0.1833
 1514POPC   PO418158  12.756  27.756  19.341  0.3209 -0.1920  0.1501
 1514POPC   GL118159  12.830  27.808  18.950 -0.0753  0.2127 -0.2870
 1514POPC   GL218160  12.703  27.524  18.896  0.1810 -0.0016  0.1341
 1514POPC   C1A18161  13.067  27.790  18.528  0.1092  0.0253  0.1090
 1514POPC   D2A18162  13.472  27.716  18.264 -0.2672 -0.0857 -0.0434
 1514POPC   C3A18163  13.631  28.081  17.999  0.2492  0.2825 -0.0740
 1514POPC   C4A18164  13.767  28.088  17.558 -0.1563  0.0561  0.0582
 1514POPC   C1B18165  12.566  27.740  18.536 -0.1364 -0.1964 -0.1850
 1514POPC   C2B18166  12.439  27.755  18.055  0.1472  0.4446 -0.2290
 1514POPC   C3B18167  12.256  27.740  17.648  0.0099  0.1828  0.1106
 1514POPC   C4B18168  12.154  27.990  17.240 -0.0652 -0.0301  0.1657
 1515POPC   NC318169   7.418  11.229  19.065 -0.1238 -0.0533 -0.0907
 1515POPC   PO418170   7.756  11.302  19.196 -0.1304  0.0218 -0.0020
 1515POPC   GL118171   7.781  11.656  18.959  0.1469 -0.1310 -0.4108
 1515POPC   GL218172   7.485  11.721  18.817 -0.0190  0.2217  0.0680
 1515POPC   C1A18173   7.875  11.827  18.579  0.1948  0.2141  0.0833
 1515POPC   D2A18174   7.773  11.874  18.138  0.0458  0.2854  0.4720
 1515POPC   C3A18175   7.949  11.580  17.803  0.2679 -0.1061 -0.0947
 1515POPC   C4A18176   8.060  11.316  17.406  0.1600  0.2142 -0.1002
 1515POPC   C1B18177   7.394  11.742  18.424  0.1869  0.0690  0.1780
 1515POPC   C2B18178   7.289  11.776  17.951 -0.1937 -0.2038 -0.0921
 1515POPC   C3B18179   7.028  11.864  17.533  0.0246  0.4039 -0.0414
 1515POPC   C4B18180   6.777  11.614  17.182  0.1340 -0.1291 -0.1876
 1516POPC   NC318181  15.724  15.146  19.346  0.3120 -0.1582  0.1502
 1516POPC   PO418182  15.431  15.246  19.575  0.0480  0.1229 -0.1141
 1516POPC   GL118183  15.321  15.108  19.234 -0.1229  0.0959 -0.0616
 1516POPC   GL218184  15.084  15.007  19.075 -0.0957  0.1478 -0.1874
 1516POPC   C1A18185  15.575  15.087  18.799  0.1156 -0.1519 -0.1083
 1516POPC   D2A18186  15.606  15.219  18.338 -0.1173  0.2064  0.2217
 1516POPC   C3A18187  15.836  15.100  17.961 -0.0941  0.0730 -0.0808
 1516POPC   C4A18188  16.178  14.903  18.046  0.1730  0.2434  0.0919
 1516POPC   C1B18189  15.013  14.934  18.622 -0.6031  0.2502 -0.0087
 1516POPC   C2B18190  15.059  14.742  18.188  0.3025  0.1941 -0.1080
 1516POPC   C3B18191  15.191  14.520  17.789  0.1353 -0.1819 -0.3254
 1516POPC   C4B18192  15.042  14.193  17.434  0.3489 -0.2796 -0.2259
 1517POPC   NC318193  18.505   7.184  19.257 -0.0780 -0.1718  0.2493
 1517POPC   PO418194  18.235   7.424  19.383 -0.0452 -0.0562  0.3044
 1517POPC   GL118195  18.053   7.452  19.101  0.1321  0.2570  0.0523
 1517POPC   GL218196  18.188   7.429  18.865 -0.3873  0.1923  0.0632
 1517POPC   C1A18197  17.663   7.443  18.837  0.0123  0.0296 -0.2103
 1517POPC   D2A18198  17.398   7.453  18.482  0.1530 -0.0474  0.1748
 1517POPC   C3A18199  17.397   7.496  18.056  0.0618 -0.0774 -0.0539
 1517POPC   C4A18200  17.645   7.324  17.700  0.3159 -0.3016  0.0873
 1517POPC   C1B18201  18.565   7.629  18.653 -0.0143 -0.3503  0.2237
 1517POPC   C2B18202  18.703   7.728  18.214 -0.1761  0.0278  0.2588
 1517POPC   C3B18203  18.662   7.468  17.831 -0.0281  0.1167  0.0847
 1517POPC   C4B18204  18.970   7.288  17.488 -0.1782  0.3780  0.0060
 1518POPC   NC318205   5.117   4.996  19.674 -0.0764 -0.4229  0.2454
 1518POPC   PO418206   4.849   5.302  19.523 -0.0871 -0.1555 -0.1199
 1518POPC   GL118207   4.749   5.154  19.289 -0.1122  0.2695 -0.0041
 1518POPC   GL218208   4.503   5.092  19.203  0.1068 -0.0020 -0.3113
 1518POPC   C1A18209   4.679   5.381  18.861  0.3532  0.0904 -0.0856
 1518POPC   D2A18210   4.381   5.672  18.563  0.2179 -0.0585  0.0416
 1518POPC   C3A18211   4.232   5.561  18.151  0.2790 -0.1608  0.1555
 1518POPC   C4A18212   4.079   5.627  17.738 -0.2458 -0.0376 -0.1684
 1518POPC   C1B18213   4.201   5.044  18.816  0.1804  0.0613  0.1920
 1518POPC   C2B18214   4.048   4.773  18.495 -0.0111 -0.2935 -0.2372
 1518POPC   C3B18215   3.830   4.908  18.136  0.1774 -0.0858  0.2841
 1518POPC   C4B18216   3.849   5.135  17.693  0.0980 -0.1621 -0.3260
 1519POPC   NC318217  20.645  20.708  20.281  0.1224  0.1332  0.1649
 1519POPC   PO418218  20.700  20.323  20.329  0.0049 -0.2059 -0.3365
 1519POPC   GL118219  20.674  19.981  20.090 -0.2056 -0.5561  0.2130
 1519POPC   GL218220  20.691  19.704  20.153  0.0342  0.0044 -0.1425
 1519POPC   C1A18221  20.722  19.901  19.626 -0.0795 -0.0748 -0.0217
 1519POPC   D2A18222  21.070  19.941  19.354  0.2840  0.1907 -0.0696
 1519POPC   C3A18223  20.936  19.851  18.923  0.0566  0.1805 -0.0483
 1519POPC   C4A18224  21.205  19.780  18.527 -0.1100  0.1342 -0.1178
 1519POPC   C1B18225  21.109  19.657  20.228  0.0874  0.1105  0.1152
 1519POPC   C2B18226  21.462  19.496  20.012  0.1982 -0.1404 -0.1877
 1519POPC   C3B18227  21.943  19.482  19.939 -0.2847  0.1021 -0.0004
 1519POPC   C4B18228  22.290  19.533  20.181 -0.0972 -0.1818  0.0157
 1520POPC   NC318229  10.175   0.605  20.221  0.0815 -0.4199 -0.3205
 1520POPC   PO418230  10.416   0.329  20.133 -0.0204 -0.0916  0.0746
 1520POPC   GL118231  10.018   0.220  19.919 -0.1396 -0.2442  0.1720
 1520POPC   GL218232  10.250   0.167  19.724  0.0162 -0.3393  0.0011
 1520POPC   C1A18233   9.626   0.198  19.647  0.3708  0.0177  0.1309
 1520POPC   D2A18234   9.259   0.392  19.530 -0.0889  0.0758 -0.2029
 1520POPC   C3A18235   9.278   0.868  19.555  0.2858  0.0165  0.4422
 1520POPC   C4A18236   9.293   1.338  19.477  0.0098 -0.0044  0.0638
 1520POPC   C1B18237  10.019   0.059  19.364 -0.2365 -0.1567  0.1126
 1520POPC   C2B18238   9.648   0.119  19.087  0.2960 -0.2623  0.1110
 1520POPC   C3B18239   9.682   0.331  18.687 -0.2829 -0.2423  0.0390
 1520POPC   C4B18240   9.308   0.553  18.539 -0.2785  0.0001 -0.2809
 1521POPC   NC318241   0.922  22.155  19.167 -0.1417  0.3187 -0.4716
 1521POPC   PO418242   0.625  22.328  19.002 -0.0772  0.3595 -0.3165
 1521POPC   GL118243   0.504  22.238  18.602 -0.4014 -0.1863 -0.0046
 1521POPC   GL218244   0.264  22.054  18.691 -0.0955 -0.0845  0.0336
 1521POPC   C1A18245   0.684  22.343  18.207 -0.1099  0.1799 -0.1241
 1521POPC   D2A18246   0.858  22.185  17.835 -0.3553  0.1166 -0.1137
 1521POPC   C3A18247   1.192  22.170  17.567 -0.2738 -0.2433  0.0287
 1521POPC   C4A18248   1.618  22.056  17.395 -0.1441  0.1089  0.0744
 1521POPC   C1B18249   0.166  22.101  18.231 -0.3953 -0.1960  0.2796
 1521POPC   C2B18250   0.375  22.009  17.829 -0.0368 -0.0751 -0.0105
 1521POPC   C3B18251   0.694  21.931  17.453  0.0307 -0.0611 -0.0020
 1521POPC   C4B18252   0.809  21.800  17.055 -0.1667  0.1695 -0.2258
 1522POPC   NC318253   4.435   9.258  19.425 -0.3691 -0.1865 -0.0512
 1522POPC   PO418254   4.619   9.187  19.071  0.0451 -0.0408 -0.2361
 1522POPC   GL118255   4.496   9.201  18.692 -0.0561  0.1194 -0.2876
 1522POPC   GL218256   4.275   9.296  18.539 -0.2822 -0.2232 -0.1439
 1522POPC   C1A18257   4.601   8.871  18.381 -0.0393 -0.0365 -0.0782
 1522POPC   D2A18258   4.608   8.490  18.073  0.2680  0.2091 -0.0992
 1522POPC   C3A18259   4.850   8.184  17.776  0.0893  0.1968 -0.0117
 1522POPC   C4A18260   4.809   8.113  17.313  0.0053 -0.2450  0.0470
 1522POPC   C1B18261   4.017   9.486  18.233  0.4806 -0.1798 -0.2020
 1522POPC   C2B18262   4.032   9.642  17.766 -0.1586 -0.0015  0.1804
 1522POPC   C3B18263   3.767   9.589  17.412 -0.1296  0.2360 -0.0001
 1522POPC   C4B18264   3.453   9.872  17.202  0.0770 -0.2123 -0.1938
 1523POPC   NC318265   9.145  27.752  19.001 -0.0719 -0.0858  0.1915
 1523POPC   PO418266   9.433  27.879  19.216 -0.1139 -0.0070  0.1458
 1523POPC   GL118267   9.570  27.969  18.901  0.0728 -0.0240  0.0440
 1523POPC   GL218268   9.356  28.050  18.682  0.0836  0.0578 -0.3596
 1523POPC   C1A18269   9.851  28.077  18.551 -0.0458  0.2782  0.0431
 1523POPC   D2A18270  10.161  28.338  18.345  0.1070 -0.1361  0.0110
 1523POPC   C3A18271  10.544  28.088  18.231  0.0968 -0.3733  0.1898
 1523POPC   C4A18272  10.711  27.863  17.825  0.0648 -0.0714  0.1188
 1523POPC   C1B18273   9.210  28.286  18.357  0.2274  0.0011  0.0665
 1523POPC   C2B18274   9.296  28.437  17.952 -0.3864 -0.1782  0.0047
 1523POPC   C3B18275   9.354  28.345  17.498 -0.1700 -0.1404 -0.2618
 1523POPC   C4B18276   9.440  28.594  17.178  0.0093  0.0673  0.0440
 1524POPC   NC318277  27.988  14.492  19.313 -0.0038  0.3226 -0.2432
 1524POPC   PO418278  28.234  14.248  19.142 -0.0743 -0.0634  0.2475
 1524POPC   GL118279  28.364  14.068  18.824 -0.2212 -0.0813 -0.1163
 1524POPC   GL218280  28.188  14.173  18.610  0.0664 -0.0417  0.1789
 1524POPC   C1A18281  28.617  13.899  18.490 -0.1552  0.1003 -0.2331
 1524POPC   D2A18282  28.727  13.588  18.176  0.1896  0.2979 -0.2104
 1524POPC   C3A18283  28.771  13.362  17.748 -0.0865 -0.1712 -0.0813
 1524POPC   C4A18284  28.952  13.036  17.459 -0.0631 -0.0203 -0.0493
 1524POPC   C1B18285  27.908  14.155  18.300  0.1046  0.0173  0.0040
 1524POPC   C2B18286  28.000  14.115  17.838 -0.3202 -0.0486 -0.2234
 1524POPC   C3B18287  28.150  14.143  17.421  0.0017  0.0756  0.1846
 1524POPC   C4B18288  28.158  13.939  16.998  0.1691 -0.2054  0.1032
 1525POPC   NC318289  28.714   5.079  18.950 -0.1778 -0.3171  0.1440
 1525POPC   PO418290  28.345   5.193  19.132 -0.3387  0.0581  0.2322
 1525POPC   GL118291  28.217   5.165  18.816  0.1447  0.0290  0.0867
 1525POPC   GL218292  28.430   5.285  18.544 -0.1100  0.2014 -0.0021
 1525POPC   C1A18293  28.053   5.005  18.329 -0.0768  0.0034  0.0066
 1525POPC   D2A18294  27.815   4.894  17.876 -0.3687 -0.0530 -0.1224
 1525POPC   C3A18295  27.696   5.000  17.433  0.1132 -0.1848  0.2434
 1525POPC   C4A18296  27.276   5.022  17.176 -0.2902  0.0207 -0.0072
 1525POPC   C1B18297  28.806   4.998  18.370  0.1044 -0.2236  0.0506
 1525POPC   C2B18298  29.053   4.676  18.271 -0.0572 -0.2496  0.3577
 1525POPC   C3B18299  29.089   4.382  17.912 -0.0534 -0.2863  0.1488
 1525POPC   C4B18300  28.753   4.310  17.629  0.0783  0.2262  0.2732
 1526POPC   NC318301  24.172  11.239  19.390  0.0849  0.3085 -0.3618
 1526POPC   PO418302  24.515  11.118  19.273 -0.4080  0.2075  0.3610
 1526POPC   GL118303  24.254  11.021  18.968  0.2326 -0.3913  0.3340
 1526POPC   GL218304  24.235  10.726  18.856 -0.0984  0.0315 -0.0603
 1526POPC   C1A18305  24.106  11.102  18.546 -0.0788 -0.0439 -0.0440
 1526POPC   D2A18306  23.809  10.935  18.257 -0.1268  0.0393 -0.1012
 1526POPC   C3A18307  23.865  10.875  17.758  0.0498 -0.2054  0.5555
 1526POPC   C4A18308  24.173  10.816  17.443  0.0030 -0.1211  0.1380
 1526POPC   C1B18309  24.194  10.631  18.408 -0.1231  0.0799 -0.1892
 1526POPC   C2B18310  24.006  10.456  18.005  0.0107  0.1230 -0.2251
 1526POPC   C3B18311  23.938  10.123  17.725  0.1563 -0.2644 -0.0704
 1526POPC   C4B18312  23.781  10.023  17.333 -0.1825 -0.5477 -0.0191
 1527POPC   NC318313  22.564   3.893  19.233 -0.0501 -0.0008 -0.1526
 1527POPC   PO418314  22.414   4.242  19.156  0.0228  0.1280 -0.1458
 1527POPC   GL118315  22.347   4.178  18.790 -0.1672  0.0102 -0.4332
 1527POPC   GL218316  22.402   3.881  18.711  0.0976  0.0688  0.1843
 1527POPC   C1A18317  22.167   4.470  18.490 -0.2770  0.3871  0.2735
 1527POPC   D2A18318  22.235   4.828  18.186 -0.4812 -0.2220 -0.1896
 1527POPC   C3A18319  22.024   4.731  17.797  0.1654  0.1515 -0.0283
 1527POPC   C4A18320  21.989   4.835  17.364 -0.0422  0.2325  0.1010
 1527POPC   C1B18321  22.392   4.035  18.297  0.2901  0.2457  0.2673
 1527POPC   C2B18322  22.075   4.226  18.018  0.0918 -0.2418 -0.0567
 1527POPC   C3B18323  21.802   3.990  17.698  0.2686  0.1314  0.2369
 1527POPC   C4B18324  21.570   4.003  17.317  0.4681 -0.1234  0.0946
 1528POPC   NC318325  24.577   7.063  19.329 -0.1092  0.0817  0.0789
 1528POPC   PO418326  24.666   7.422  19.307 -0.0471  0.0230  0.0158
 1528POPC   GL118327  24.290   7.286  19.029 -0.3607  0.1031 -0.2874
 1528POPC   GL218328  24.362   7.550  18.938  0.0056  0.3266 -0.0194
 1528POPC   C1A18329  24.200   7.245  18.556  0.3913  0.2122 -0.0542
 1528POPC   D2A18330  24.152   7.105  18.067 -0.1194  0.0709 -0.0320
 1528POPC   C3A18331  24.284   7.372  17.725  0.0601  0.5540  0.0516
 1528POPC   C4A18332  24.373   7.428  17.287 -0.0716 -0.1312  0.0757
 1528POPC   C1B18333  24.442   7.733  18.516  0.3114 -0.1175  0.0815
 1528POPC   C2B18334  24.450   7.673  18.068 -0.0777  0.0980 -0.3985
 1528POPC   C3B18335  24.604   7.851  17.671  0.1589  0.0710 -0.0217
 1528POPC   C4B18336  24.623   8.013  17.206 -0.4334 -0.0166 -0.2216
 1529POPC   NC318337   0.097  15.771  19.457  0.0003 -0.1985 -0.4774
 1529POPC   PO418338  -0.056  16.114  19.600 -0.2190 -0.1409  0.1279
 1529POPC   GL118339   0.050  16.303  19.246  0.0351  0.2686  0.3696
 1529POPC   GL218340  -0.053  16.579  19.191  0.1940 -0.1183 -0.3949
 1529POPC   C1A18341   0.156  16.418  18.762 -0.1042 -0.1650 -0.0892
 1529POPC   D2A18342   0.378  16.567  18.342 -0.1733  0.0173 -0.1710
 1529POPC   C3A18343   0.142  16.623  17.963  0.4129  0.2697  0.1163
 1529POPC   C4A18344   0.053  16.942  17.595  0.1489  0.2508 -0.1014
 1529POPC   C1B18345   0.048  16.886  18.787  0.1336  0.0561 -0.0327
 1529POPC   C2B18346   0.356  17.146  18.473  0.0535  0.0248 -0.2630
 1529POPC   C3B18347   0.558  17.017  18.122  0.1058  0.1026  0.2159
 1529POPC   C4B18348   0.669  16.985  17.673  0.0042 -0.2219 -0.1817
 1530POPC   NC318349   6.851   6.429  18.941  0.0625 -0.1637 -0.0869
 1530POPC   PO418350   6.515   6.481  18.730  0.1154  0.1304 -0.1414
 1530POPC   GL118351   6.642   6.483  18.465 -0.1910 -0.1735  0.0251
 1530POPC   GL218352   6.808   6.735  18.357  0.1073 -0.1670  0.1151
 1530POPC   C1A18353   6.422   6.344  18.108 -0.1171  0.1179 -0.1868
 1530POPC   D2A18354   6.182   6.257  17.734 -0.0186  0.1138 -0.0603
 1530POPC   C3A18355   5.763   6.065  17.608  0.2350 -0.0087  0.2236
 1530POPC   C4A18356   5.464   5.973  17.299  0.0136  0.0258  0.1240
 1530POPC   C1B18357   7.023   6.813  17.873 -0.1525  0.1840  0.0520
 1530POPC   C2B18358   7.231   6.561  17.541  0.0364  0.0807  0.1762
 1530POPC   C3B18359   7.629   6.291  17.484  0.3413 -0.0497  0.1316
 1530POPC   C4B18360   8.022   6.103  17.347 -0.0153 -0.1248 -0.1250
 1531POPC   NC318361   4.335  14.754  19.160 -0.1886 -0.0630 -0.1031
 1531POPC   PO418362   4.644  14.936  19.206  0.2334  0.4023 -0.0411
 1531POPC   GL118363   4.758  15.129  19.010 -0.0537  0.2143  0.0586
 1531POPC   GL218364   4.909  14.982  18.744  0.0367  0.1428 -0.1871
 1531POPC   C1A18365   4.563  15.230  18.576  0.0836  0.1856  0.0572
 1531POPC   D2A18366   4.721  15.363  18.163 -0.0172 -0.0898 -0.3654
 1531POPC   C3A18367   4.753  14.978  17.931 -0.1717  0.0825 -0.0714
 1531POPC   C4A18368   4.950  14.667  17.662 -0.1087  0.1567 -0.0659
 1531POPC   C1B18369   4.803  14.787  18.375  0.1549  0.0704  0.0286
 1531POPC   C2B18370   4.658  14.416  18.173  0.1268 -0.2039  0.1310
 1531POPC   C3B18371   4.523  14.474  17.717 -0.1387 -0.1410 -0.0547
 1531POPC   C4B18372   4.562  14.834  17.383  0.1876 -0.2359  0.1586
 1532POPC   NC318373  18.617  27.137  19.172 -0.4397 -0.1236  0.1818
 1532POPC   PO418374  18.746  26.814  19.377  0.0439 -0.1345 -0.0909
 1532POPC   GL118375  18.537  26.717  19.095 -0.1254  0.0262  0.3290
 1532POPC   GL218376  18.454  26.388  19.076  0.0641  0.1899  0.0687
 1532POPC   C1A18377  18.408  26.832  18.704  0.3626  0.0813 -0.0130
 1532POPC   D2A18378  18.219  26.962  18.319  0.1455 -0.1119  0.4592
 1532POPC   C3A18379  18.294  27.301  18.039 -0.1343  0.0577  0.2965
 1532POPC   C4A18380  18.611  27.598  17.797 -0.0069  0.2860 -0.0603
 1532POPC   C1B18381  18.501  26.370  18.624 -0.0190 -0.0511  0.2287
 1532POPC   C2B18382  18.398  26.547  18.254  0.0298  0.0941  0.2377
 1532POPC   C3B18383  18.355  26.771  17.845 -0.1760  0.0516 -0.1463
 1532POPC   C4B18384  18.615  27.111  17.629  0.1953 -0.2823 -0.1361
 1533POPC   NC318385   5.318   3.410  19.402 -0.1020  0.0700  0.1670
 1533POPC   PO418386   5.442   3.034  19.487  0.0448 -0.2701 -0.3431
 1533POPC   GL118387   5.703   2.810  19.184 -0.2331  0.1605 -0.0302
 1533POPC   GL218388   5.981   2.881  19.182 -0.1189 -0.0801  0.2409
 1533POPC   C1A18389   5.600   2.613  18.797 -0.0137 -0.4652  0.2010
 1533POPC   D2A18390   5.461   2.410  18.453 -0.1933 -0.0745  0.1632
 1533POPC   C3A18391   5.700   2.459  18.084  0.1357  0.0199  0.2751
 1533POPC   C4A18392   5.741   2.769  17.765  0.2574  0.0466  0.0966
 1533POPC   C1B18393   6.114   2.993  18.750 -0.1188  0.0676 -0.0023
 1533POPC   C2B18394   6.095   2.771  18.344 -0.0709 -0.1841 -0.1890
 1533POPC   C3B18395   6.233   2.579  17.998  0.0872  0.0444  0.2245
 1533POPC   C4B18396   6.100   2.382  17.577 -0.0619 -0.0446 -0.0812
 1534POPC   NC318397   9.912  25.646  19.545 -0.1534 -0.1493 -0.0476
 1534POPC   PO418398   9.813  25.583  19.183 -0.0426 -0.3700  0.4005
 1534POPC   GL118399   9.670  25.829  18.822  0.0334 -0.3502 -0.0703
 1534POPC   GL218400   9.501  26.019  18.879  0.0957 -0.1683  0.0728
 1534POPC   C1A18401   9.585  26.023  18.399 -0.4870 -0.1112 -0.0088
 1534POPC   D2A18402   9.445  26.075  18.001 -0.0231 -0.0979 -0.0179
 1534POPC   C3A18403   9.385  26.446  17.654  0.1768  0.3028  0.1078
 1534POPC   C4A18404   9.603  26.739  17.329 -0.1641  0.1359 -0.2438
 1534POPC   C1B18405   9.634  26.460  18.716 -0.1450  0.1037 -0.0852
 1534POPC   C2B18406   9.732  26.684  18.339 -0.3992 -0.0816  0.2946
 1534POPC   C3B18407   9.818  26.741  17.954  0.1879  0.0566 -0.1322
 1534POPC   C4B18408  10.146  26.991  17.672  0.3103  0.0556  0.2383
 1535POPC   NC318409  21.833  28.038  19.425  0.0353 -0.1239 -0.2532
 1535POPC   PO418410  22.196  28.002  19.211  0.1318 -0.0468 -0.0685
 1535POPC   GL118411  22.152  27.968  18.757 -0.4074  0.2046 -0.4597
 1535POPC   GL218412  22.374  27.893  18.674  0.0283  0.0539 -0.0772
 1535POPC   C1A18413  22.193  28.017  18.262 -0.2212  0.2059 -0.0785
 1535POPC   D2A18414  22.230  27.922  17.771 -0.2187 -0.3446 -0.0802
 1535POPC   C3A18415  21.902  28.029  17.436 -0.2234 -0.0070  0.0401
 1535POPC   C4A18416  21.581  28.164  17.136  0.1678  0.1761 -0.0933
 1535POPC   C1B18417  22.192  27.529  18.447 -0.0103 -0.0512  0.1244
 1535POPC   C2B18418  22.107  27.441  17.958 -0.0732  0.1818  0.1504
 1535POPC   C3B18419  21.866  27.552  17.599  0.0696 -0.1456  0.1080
 1535POPC   C4B18420  21.603  27.668  17.242 -0.0525 -0.2617  0.2449
 1536POPC   NC318421  11.792   8.965  19.815  0.0138  0.2743 -0.2281
 1536POPC   PO418422  11.861   9.361  19.978  0.1029  0.0211 -0.0676
 1536POPC   GL118423  11.777   9.422  19.606  0.0246 -0.1543  0.1265
 1536POPC   GL218424  12.013   9.413  19.348 -0.1091 -0.2212 -0.1408
 1536POPC   C1A18425  11.473   9.177  19.282 -0.0572 -0.2151 -0.2589
 1536POPC   D2A18426  11.215   9.295  18.936 -0.2801 -0.0689 -0.2715
 1536POPC   C3A18427  11.160   8.885  18.685  0.2824  0.1535  0.0160
 1536POPC   C4A18428  10.838   8.562  18.697 -0.2439 -0.0270  0.0657
 1536POPC   C1B18429  11.917   9.827  19.113 -0.0862 -0.2724  0.2767
 1536POPC   C2B18430  11.598   9.833  18.679 -0.1135 -0.0397  0.3469
 1536POPC   C3B18431  11.345   9.660  18.261  0.0298 -0.0392  0.2327
 1536POPC   C4B18432  10.961   9.546  18.041 -0.0484 -0.1648 -0.1552
 1537POPC   NC318433  18.846  16.318  19.295  0.3354  0.0470 -0.0109
 1537POPC   PO418434  19.072  16.054  19.171 -0.3139  0.1808 -0.1186
 1537POPC   GL118435  18.937  15.891  18.810  0.6375  0.1079  0.0275
 1537POPC   GL218436  18.870  16.101  18.678 -0.0268 -0.0665  0.2195
 1537POPC   C1A18437  19.121  15.841  18.404 -0.2006 -0.0864 -0.0576
 1537POPC   D2A18438  19.077  15.618  17.990 -0.0865 -0.0535 -0.1281
 1537POPC   C3A18439  19.328  15.215  17.845 -0.0260 -0.1128  0.2477
 1537POPC   C4A18440  19.700  14.991  17.938 -0.0250 -0.1368 -0.1026
 1537POPC   C1B18441  18.802  16.168  18.181  0.0551 -0.1931 -0.2270
 1537POPC   C2B18442  18.824  15.984  17.734  0.3189  0.0714  0.1352
 1537POPC   C3B18443  18.662  15.734  17.343  0.0097 -0.2626 -0.0269
 1537POPC   C4B18444  18.304  15.533  17.109 -0.3912  0.0473  0.3272
 1538POPC   NC318445  13.338  20.893  19.593 -0.3153 -0.4018 -0.2464
 1538POPC   PO418446  13.405  21.123  19.304  0.2666  0.0882 -0.2686
 1538POPC   GL118447  13.731  21.076  19.154  0.0263  0.4428  0.1139
 1538POPC   GL218448  13.676  21.242  18.897  0.2652  0.3606 -0.0265
 1538POPC   C1A18449  13.689  20.794  18.787  0.1469  0.1638 -0.2054
 1538POPC   D2A18450  14.038  20.569  18.655 -0.0015 -0.0113 -0.0344
 1538POPC   C3A18451  14.140  20.097  18.566 -0.1368 -0.0566  0.1844
 1538POPC   C4A18452  14.383  19.755  18.530  0.1120  0.0859 -0.1107
 1538POPC   C1B18453  13.954  21.181  18.496  0.1109  0.5230  0.1643
 1538POPC   C2B18454  14.299  20.864  18.350  0.2914 -0.1779 -0.1406
 1538POPC   C3B18455  14.185  20.480  18.172 -0.1702 -0.0674  0.4850
 1538POPC   C4B18456  14.481  20.158  18.024  0.1166 -0.0335 -0.0670
 1539POPC   NC318457   3.920  23.543  19.057 -0.2334 -0.0579  0.2617
 1539POPC   PO418458   3.522  23.576  19.128  0.0553  0.3023 -0.0676
 1539POPC   GL118459   3.409  23.694  18.823 -0.0194 -0.0582 -0.2292
 1539POPC   GL218460   3.669  23.603  18.632 -0.2050 -0.0372 -0.1328
 1539POPC   C1A18461   3.239  24.016  18.592  0.1313  0.1066 -0.1907
 1539POPC   D2A18462   3.402  24.217  18.242  0.0677  0.4399  0.0454
 1539POPC   C3A18463   3.428  23.950  17.876  0.3131 -0.0763  0.1535
 1539POPC   C4A18464   3.118  23.671  17.686 -0.1085 -0.1691  0.1168
 1539POPC   C1B18465   3.516  23.488  18.158 -0.1605  0.0642  0.1398
 1539POPC   C2B18466   3.625  23.150  17.852  0.1035 -0.0834 -0.1289
 1539POPC   C3B18467   3.766  23.068  17.444  0.1237  0.1146 -0.2543
 1539POPC   C4B18468   3.889  23.174  17.017 -0.0959  0.2337 -0.0887
 1540POPC   NC318469  13.198  28.681  19.491  0.1030 -0.0522  0.2263
 1540POPC   PO418470  12.821  28.685  19.517 -0.1725 -0.3550  0.1772
 1540POPC   GL118471  12.737  28.477  19.224  0.0827  0.4781 -0.0952
 1540POPC   GL218472  12.590  28.630  19.052  0.3946  0.0525 -0.2016
 1540POPC   C1A18473  12.987  28.239  18.939 -0.0632 -0.1110 -0.1063
 1540POPC   D2A18474  13.307  27.927  18.975  0.2421 -0.2380 -0.1240
 1540POPC   C3A18475  13.379  27.514  18.706  0.0252  0.0773 -0.2124
 1540POPC   C4A18476  13.752  27.348  18.528 -0.1976 -0.1578 -0.1413
 1540POPC   C1B18477  12.350  28.656  18.620 -0.1756 -0.0399 -0.0854
 1540POPC   C2B18478  12.009  28.532  18.361 -0.4284 -0.1476  0.1084
 1540POPC   C3B18479  11.606  28.587  18.154 -0.2845  0.0840  0.1267
 1540POPC   C4B18480  11.143  28.557  17.975  0.0108 -0.0547 -0.0999
 1541POPC   NC318481  25.527   5.433  18.975 -0.0503 -0.4113 -0.1574
 1541POPC   PO418482  25.338   5.711  19.184  0.1688 -0.3050 -0.1623
 1541POPC   GL118483  25.350   5.950  18.836  0.2786 -0.1226 -0.2854
 1541POPC   GL218484  25.456   6.255  18.886  0.2222  0.2878 -0.1043
 1541POPC   C1A18485  24.992   6.015  18.516 -0.0372 -0.3232 -0.3217
 1541POPC   D2A18486  24.764   5.891  18.143 -0.0667 -0.1649  0.1294
 1541POPC   C3A18487  24.412   6.037  17.862 -0.0237 -0.4242  0.2870
 1541POPC   C4A18488  24.169   6.104  17.469  0.1164 -0.1431 -0.0365
 1541POPC   C1B18489  25.561   6.106  18.441  0.0505 -0.1453 -0.1800
 1541POPC   C2B18490  25.719   6.052  18.006  0.0853 -0.1755  0.1015
 1541POPC   C3B18491  25.850   5.786  17.700 -0.1150  0.1702 -0.2450
 1541POPC   C4B18492  26.136   5.734  17.353 -0.2051  0.1801  0.2086
 1542POPC   NC318493   3.065   8.278  19.092 -0.0783  0.0470  0.1421
 1542POPC   PO418494   3.005   7.913  19.170 -0.1774 -0.0676  0.0105
 1542POPC   GL118495   2.872   7.728  18.866  0.1160 -0.1325 -0.0219
 1542POPC   GL218496   3.015   7.469  18.898  0.0696  0.0776  0.0655
 1542POPC   C1A18497   2.670   7.542  18.471  0.0239 -0.0441 -0.0397
 1542POPC   D2A18498   2.661   7.175  18.184  0.1567  0.3501 -0.0143
 1542POPC   C3A18499   2.856   7.116  17.809 -0.2482 -0.0394  0.0073
 1542POPC   C4A18500   3.189   7.042  17.466  0.0749 -0.2676 -0.2217
 1542POPC   C1B18501   3.098   7.136  18.714 -0.3586  0.2657  0.1297
 1542POPC   C2B18502   2.977   6.735  18.589  0.2736 -0.1439 -0.1681
 1542POPC   C3B18503   2.900   6.329  18.349 -0.1337 -0.0246  0.1851
 1542POPC   C4B18504   2.734   5.955  18.226 -0.0270 -0.1636  0.1849
 1543POPC   NC318505  25.922  20.980  19.260 -0.1625  0.0682  0.0185
 1543POPC   PO418506  26.285  20.974  19.359 -0.0395  0.1253  0.1225
 1543POPC   GL118507  26.159  21.283  19.053  0.0357  0.1245  0.1460
 1543POPC   GL218508  26.345  21.409  19.049  0.0858  0.0026  0.2562
 1543POPC   C1A18509  25.977  21.549  18.740  0.0039  0.0880  0.0838
 1543POPC   D2A18510  25.673  21.774  18.460 -0.0333 -0.1842 -0.0058
 1543POPC   C3A18511  25.669  21.733  17.992 -0.1752  0.1886 -0.2233
 1543POPC   C4A18512  25.830  21.790  17.563  0.0647  0.0225 -0.2855
 1543POPC   C1B18513  26.555  21.491  18.631 -0.1911 -0.0560  0.0321
 1543POPC   C2B18514  26.463  21.478  18.174  0.2475  0.1612 -0.1905
 1543POPC   C3B18515  26.215  21.511  17.771 -0.2990 -0.2466  0.2946
 1543POPC   C4B18516  26.043  21.414  17.372 -0.2198 -0.2044  0.1695
 1544POPS   CNO18517  29.882  22.341  19.382  0.2268  0.2240 -0.0147
 1544POPS   PO418518  30.110  22.369  19.058  0.2104 -0.1983  0.1607
 1544POPS   GL118519  30.240  22.387  18.731  0.0398 -0.2249 -0.1767
 1544POPS   GL218520  30.484  22.209  18.740  0.0759 -0.3034  0.0373
 1544POPS   C1A18521  30.401  22.592  18.365  0.2415 -0.0740 -0.0919
 1544POPS   D2A18522  30.225  22.984  18.185  0.0350  0.1386 -0.0109
 1544POPS   C3A18523  30.470  23.231  17.889 -0.2682  0.1215 -0.0054
 1544POPS   C4A18524  30.627  23.336  17.473 -0.2242  0.0689  0.1013
 1544POPS   C1B18525  30.486  22.014  18.328 -0.2430  0.2942  0.3950
 1544POPS   C2B18526  30.714  21.823  18.009 -0.1782 -0.1458  0.2309
 1544POPS   C3B18527  30.757  21.422  17.853  0.0871 -0.1006 -0.1330
 1544POPS   C4B18528  30.703  21.014  17.697 -0.2823  0.0861  0.3841
 1545POPS   CNO18529   7.709   8.382  19.639 -0.1139 -0.2357  0.1610
 1545POPS   PO418530   7.815   8.373  19.258 -0.2377 -0.1470 -0.1804
 1545POPS   GL118531   7.601   8.164  18.956  0.4586  0.1104  0.1700
 1545POPS   GL218532   7.484   8.441  18.835  0.1188 -0.3524 -0.0387
 1545POPS   C1A18533   7.763   8.187  18.513 -0.1701  0.3039 -0.0350
 1545POPS   D2A18534   8.145   8.198  18.300 -0.1016  0.0162  0.0915
 1545POPS   C3A18535   8.255   8.293  17.822 -0.4594  0.0052 -0.1042
 1545POPS   C4A18536   8.308   8.133  17.441 -0.1102 -0.1092 -0.2032
 1545POPS   C1B18537   7.159   8.548  18.510 -0.0362 -0.0782 -0.0178
 1545POPS   C2B18538   7.059   8.748  18.119  0.1708 -0.2837 -0.0193
 1545POPS   C3B18539   6.821   8.731  17.706 -0.1297  0.0742 -0.0927
 1545POPS   C4B18540   6.763   8.477  17.286  0.1567 -0.2243  0.2971
 1546POPS   CNO18541   5.405  18.954  19.223 -0.0394  0.0824 -0.0084
 1546POPS   PO418542   5.671  18.827  19.062  0.0434 -0.2642  0.0289
 1546POPS   GL118543   5.794  19.061  18.835  0.2597  0.6898 -0.1578
 1546POPS   GL218544   5.952  19.234  18.767 -0.3419 -0.1992  0.0293
 1546POPS   C1A18545   5.833  18.980  18.361 -0.1055 -0.1636 -0.3771
 1546POPS   D2A18546   5.660  18.823  17.973  0.2878  0.1667 -0.4365
 1546POPS   C3A18547   5.459  18.451  17.767 -0.0699  0.2359  0.1607
 1546POPS   C4A18548   5.254  18.063  17.536 -0.0680  0.1391  0.0539
 1546POPS   C1B18549   6.185  19.350  18.356 -0.0466  0.0125 -0.1601
 1546POPS   C2B18550   6.045  19.511  17.962  0.0858  0.0638  0.1386
 1546POPS   C3B18551   6.237  19.540  17.548 -0.0015 -0.0463 -0.4208
 1546POPS   C4B18552   6.259  19.469  17.084 -0.1127  0.0128  0.0279
 1547POPS   CNO18553   9.804  28.795  19.183  0.0898 -0.0794 -0.0777
 1547POPS   PO418554   9.468  28.951  19.110  0.1030 -0.1987  0.0789
 1547POPS   GL118555   9.647  28.904  18.687 -0.0120  0.2574 -0.1589
 1547POPS   GL218556   9.792  29.147  18.730  0.4936 -0.0492  0.0356
 1547POPS   C1A18557   9.640  29.034  18.222 -0.0707  0.1964  0.0177
 1547POPS   D2A18558   9.795  29.138  17.827  0.0676 -0.1520  0.0859
 1547POPS   C3A18559   9.852  28.755  17.538  0.2548  0.1467  0.3656
 1547POPS   C4A18560   9.883  28.446  17.244  0.0592  0.1004 -0.1487
 1547POPS   C1B18561  10.041  29.402  18.473  0.1736 -0.0283 -0.0544
 1547POPS   C2B18562  10.159  29.497  17.988  0.0003 -0.2020  0.0365
 1547POPS   C3B18563  10.229  29.321  17.599 -0.1713  0.0421  0.0386
 1547POPS   C4B18564  10.327  29.225  17.127  0.2646  0.1140 -0.4905
 1548POPS   CNO18565  14.581  30.722  19.449 -0.0087 -0.0519  0.2064
 1548POPS   PO418566  14.625  30.448  19.246 -0.1286  0.1656 -0.1511
 1548POPS   GL118567  14.537  30.637  18.850 -0.0794  0.1304  0.0453
 1548POPS   GL218568  14.844  30.683  18.611  0.3292 -0.1259 -0.2319
 1548POPS   C1A18569  14.361  30.664  18.378  0.2841 -0.0865 -0.2179
 1548POPS   D2A18570  14.106  30.610  18.006 -0.0309 -0.0141  0.0071
 1548POPS   C3A18571  13.876  30.198  17.929 -0.2881  0.2206  0.1557
 1548POPS   C4A18572  13.484  29.951  17.923  0.0794 -0.1539  0.0082
 1548POPS   C1B18573  14.755  30.618  18.105 -0.2329  0.1606 -0.0752
 1548POPS   C2B18574  14.806  30.523  17.663  0.3377  0.2062 -0.3083
 1548POPS   C3B18575  14.904  30.253  17.292 -0.0803  0.3997 -0.0713
 1548POPS   C4B18576  14.896  29.844  17.060  0.0352 -0.2860  0.0172
 1549POPS   CNO18577  26.015  22.443  19.615 -0.2074  0.2712 -0.0289
 1549POPS   PO418578  26.327  22.621  19.486 -0.0030 -0.1175 -0.0375
 1549POPS   GL118579  26.572  22.677  19.140 -0.5990  0.0058 -0.0834
 1549POPS   GL218580  26.644  22.974  19.311 -0.0120  0.0605  0.0855
 1549POPS   C1A18581  26.459  22.883  18.724  0.1325 -0.0245 -0.1709
 1549POPS   D2A18582  26.348  22.916  18.295  0.1103 -0.1340 -0.2388
 1549POPS   C3A18583  25.949  23.157  18.150 -0.0121 -0.0125  0.3749
 1549POPS   C4A18584  25.816  23.362  17.744 -0.4352 -0.3001  0.2210
 1549POPS   C1B18585  26.808  23.198  18.960 -0.1961  0.2132 -0.0830
 1549POPS   C2B18586  26.804  23.263  18.517 -0.0442 -0.0326  0.0771
 1549POPS   C3B18587  26.900  23.219  18.009  0.0714  0.3432  0.2914
 1549POPS   C4B18588  27.169  23.238  17.624 -0.2228 -0.3162  0.0707
 1550POPS   CNO18589   2.052  15.697  19.152 -0.1898  0.0715  0.2451
 1550POPS   PO418590   1.790  15.430  19.077 -0.1652 -0.0985  0.0657
 1550POPS   GL118591   1.679  15.385  18.669 -0.1463  0.3569 -0.0101
 1550POPS   GL218592   1.390  15.255  18.533  0.4599  0.1110 -0.0292
 1550POPS   C1A18593   1.743  15.502  18.265 -0.1288  0.1896 -0.1108
 1550POPS   D2A18594   2.102  15.735  18.005 -0.1634 -0.1925  0.1287
 1550POPS   C3A18595   2.054  15.734  17.515 -0.0919  0.3079  0.4056
 1550POPS   C4A18596   2.171  15.658  17.102 -0.2436  0.1072  0.1420
 1550POPS   C1B18597   1.274  15.028  18.138  0.1653 -0.0983  0.0249
 1550POPS   C2B18598   1.016  14.902  17.794 -0.0147  0.0354  0.2742
 1550POPS   C3B18599   0.856  14.573  17.513  0.2102 -0.0448  0.3761
 1550POPS   C4B18600   0.992  14.253  17.246 -0.1083 -0.1255  0.2416
 1551POPS   CNO18601  18.210   3.818  19.785 -0.2592  0.0052 -0.0931
 1551POPS   PO418602  18.252   3.533  19.572  0.0317 -0.1641  0.0672
 1551POPS   GL118603  18.327   3.547  19.136  0.0563  0.2532 -0.2233
 1551POPS   GL218604  18.295   3.194  19.206  0.0553 -0.2823  0.0316
 1551POPS   C1A18605  17.966   3.449  18.870  0.0086 -0.0739  0.2864
 1551POPS   D2A18606  17.832   3.428  18.429  0.0937 -0.0268  0.0569
 1551POPS   C3A18607  17.752   3.159  18.112 -0.0506 -0.1493  0.1892
 1551POPS   C4A18608  17.544   2.972  17.768 -0.3802 -0.0734  0.3415
 1551POPS   C1B18609  18.362   3.230  18.731  0.0262  0.4256  0.0348
 1551POPS   C2B18610  18.282   3.344  18.322  0.0032  0.0679  0.0475
 1551POPS   C3B18611  18.249   3.225  17.940 -0.0089 -0.0924  0.1408
 1551POPS   C4B18612  18.014   3.073  17.566 -0.1104  0.3360  0.0221
 1552POPS   CNO18613  12.045   5.968  19.616  0.0561 -0.0665 -0.1026
 1552POPS   PO418614  11.900   6.247  19.401 -0.0986  0.1147  0.0641
 1552POPS   GL118615  11.760   6.233  19.022 -0.1570 -0.2256 -0.0375
 1552POPS   GL218616  12.016   6.120  18.888 -0.0468  0.1608  0.1529
 1552POPS   C1A18617  11.796   6.478  18.609  0.1633  0.3117 -0.0508
 1552POPS   D2A18618  11.983   6.539  18.187  0.2495  0.3970 -0.0599
 1552POPS   C3A18619  11.810   6.417  17.787 -0.1177  0.2779 -0.1938
 1552POPS   C4A18620  11.482   6.290  17.478  0.3949  0.0690 -0.2503
 1552POPS   C1B18621  12.041   6.089  18.457 -0.1162  0.0479 -0.1093
 1552POPS   C2B18622  12.069   6.045  17.936  0.0018 -0.1927 -0.0100
 1552POPS   C3B18623  11.972   6.025  17.452 -0.3069 -0.0034 -0.1728
 1552POPS   C4B18624  11.695   6.009  17.136  0.1475 -0.3655  0.0154
 1553POPS   CNO18625   4.480  29.241  19.579  0.0234  0.0714 -0.0994
 1553POPS   PO418626   4.710  29.051  19.333  0.1513 -0.1272  0.2146
 1553POPS   GL118627   4.715  29.118  18.912  0.1800  0.0132  0.1719
 1553POPS   GL218628   4.933  29.000  18.774  0.3722  0.1138 -0.3225
 1553POPS   C1A18629   4.437  29.019  18.530  0.1349 -0.1477  0.2428
 1553POPS   D2A18630   4.546  28.950  18.110 -0.4764  0.1015  0.0079
 1553POPS   C3A18631   4.456  28.582  17.792 -0.1355  0.1059 -0.0941
 1553POPS   C4A18632   4.214  28.361  17.511  0.0534 -0.1999  0.2198
 1553POPS   C1B18633   5.109  29.176  18.475 -0.1015 -0.0578  0.0428
 1553POPS   C2B18634   5.059  28.987  18.051 -0.2012  0.1266  0.3557
 1553POPS   C3B18635   4.927  28.773  17.702 -0.1397  0.0675 -0.0740
 1553POPS   C4B18636   4.759  28.559  17.339  0.0492 -0.0140  0.1029
 1554POPS   CNO18637  19.135  17.697  19.569 -0.1732 -0.0622  0.3892
 1554POPS   PO418638  19.319  17.554  19.272 -0.0473  0.0885 -0.0683
 1554POPS   GL118639  19.454  17.564  18.868  0.0818  0.1096  0.5545
 1554POPS   GL218640  19.638  17.365  18.753  0.1316 -0.1484  0.1580
 1554POPS   C1A18641  19.190  17.508  18.504 -0.1516  0.0384 -0.0038
 1554POPS   D2A18642  19.298  17.525  18.068  0.1307 -0.1934  0.3539
 1554POPS   C3A18643  19.430  17.913  17.875  0.1963  0.3134  0.1202
 1554POPS   C4A18644  19.379  18.357  17.695  0.2228 -0.0127 -0.1966
 1554POPS   C1B18645  19.609  17.179  18.308  0.1808  0.0682 -0.0601
 1554POPS   C2B18646  19.727  17.208  17.845 -0.0366 -0.2506 -0.0084
 1554POPS   C3B18647  19.704  17.319  17.357 -0.1269 -0.1052  0.0375
 1554POPS   C4B18648  19.314  17.520  17.047 -0.1701  0.3060 -0.1907
 1555POPS   CNO18649  31.440  15.016  19.434 -0.1033 -0.1937  0.0459
 1555POPS   PO418650  31.572  15.313  19.306  0.0109 -0.1927 -0.0302
 1555POPS   GL118651  31.373  15.417  18.967 -0.4561 -0.1585 -0.0166
 1555POPS   GL218652  31.218  15.717  19.021  0.0669  0.2116 -0.0934
 1555POPS   C1A18653  31.184  15.227  18.607 -0.0439 -0.1394 -0.0368
 1555POPS   D2A18654  31.266  14.843  18.455  0.0820 -0.0810  0.0810
 1555POPS   C3A18655  31.197  14.815  17.938 -0.1834  0.0227  0.1314
 1555POPS   C4A18656  31.383  14.751  17.558 -0.1621  0.0853  0.1731
 1555POPS   C1B18657  30.955  15.667  18.658 -0.2469  0.0429  0.2110
 1555POPS   C2B18658  30.734  15.630  18.253  0.0189 -0.1317 -0.0412
 1555POPS   C3B18659  30.407  15.845  17.958  0.0030  0.1172  0.1297
 1555POPS   C4B18660  30.429  16.108  17.595 -0.1612 -0.0366 -0.0146
 1556POPS   CNO18661  23.299  23.904  19.565 -0.1259  0.0153  0.0298
 1556POPS   PO418662  23.182  23.911  19.175 -0.0445  0.0529  0.4280
 1556POPS   GL118663  23.384  23.837  18.868 -0.0221  0.2877 -0.1811
 1556POPS   GL218664  23.185  23.633  18.732  0.0748 -0.1529  0.0605
 1556POPS   C1A18665  23.623  24.060  18.561 -0.2636  0.0135  0.0569
 1556POPS   D2A18666  23.633  24.087  18.108 -0.1777 -0.0527  0.0333
 1556POPS   C3A18667  23.741  24.212  17.611  0.1687 -0.0668 -0.0080
 1556POPS   C4A18668  23.769  24.190  17.146  0.2165  0.0235 -0.2629
 1556POPS   C1B18669  23.257  23.748  18.330 -0.1241 -0.1396  0.0167
 1556POPS   C2B18670  23.194  23.770  17.909  0.0175  0.0217 -0.0481
 1556POPS   C3B18671  23.428  23.829  17.509  0.0057 -0.0056  0.1201
 1556POPS   C4B18672  23.698  23.733  17.220  0.0902 -0.1441  0.2606
 1557POPS   CNO18673   8.323  20.692  19.863  0.2224  0.0922 -0.0196
 1557POPS   PO418674   8.561  20.747  19.565 -0.1755 -0.1461  0.2888
 1557POPS   GL118675   8.534  20.577  19.218 -0.2897 -0.1891 -0.1083
 1557POPS   GL218676   8.302  20.562  19.011 -0.0734 -0.2777 -0.0289
 1557POPS   C1A18677   8.708  20.802  18.854  0.1430  0.2827  0.0119
 1557POPS   D2A18678   8.640  21.123  18.490 -0.2353 -0.1354 -0.1503
 1557POPS   C3A18679   8.852  21.130  18.079  0.3823 -0.0380 -0.1643
 1557POPS   C4A18680   9.097  21.369  17.765 -0.1069  0.3285 -0.2744
 1557POPS   C1B18681   8.222  20.880  18.646  0.2522  0.0140 -0.2362
 1557POPS   C2B18682   7.970  21.149  18.274 -0.3689 -0.3379  0.1257
 1557POPS   C3B18683   7.652  21.454  18.055 -0.3656  0.1433  0.0666
 1557POPS   C4B18684   7.616  21.917  17.984 -0.1210 -0.0295  0.2778
 1558POPS   CNO18685  12.672   9.256  19.648  0.0113 -0.3118  0.1809
 1558POPS   PO418686  12.329   9.259  19.807  0.0083  0.2701  0.4744
 1558POPS   GL118687  12.285   9.017  19.437 -0.1598 -0.1580  0.1987
 1558POPS   GL218688  12.447   9.191  19.186 -0.0189  0.0778  0.1405
 1558POPS   C1A18689  11.919   9.007  19.138  0.0757  0.0847 -0.0995
 1558POPS   D2A18690  11.741   9.324  18.810  0.2514 -0.0570 -0.0861
 1558POPS   C3A18691  11.722   9.312  18.384 -0.0766 -0.0544 -0.0183
 1558POPS   C4A18692  11.675   9.427  17.918 -0.3116 -0.3109 -0.2165
 1558POPS   C1B18693  12.240   9.344  18.820  0.0988 -0.1168  0.2239
 1558POPS   C2B18694  12.363   9.413  18.364  0.1948  0.1012 -0.2724
 1558POPS   C3B18695  12.186   9.605  17.959 -0.0824  0.1389 -0.2265
 1558POPS   C4B18696  12.095   9.686  17.511 -0.0326 -0.2617  0.0955
 1559POPS   CNO18697  17.887  23.847  19.906 -0.1707 -0.3611  0.3217
 1559POPS   PO418698  17.745  23.860  19.550 -0.0379 -0.2998  0.2364
 1559POPS   GL118699  17.663  23.817  19.141 -0.1171 -0.0626  0.1301
 1559POPS   GL218700  18.016  23.867  19.081 -0.0762  0.1624 -0.4318
 1559POPS   C1A18701  17.617  24.103  18.782 -0.1853 -0.3344 -0.3465
 1559POPS   D2A18702  17.725  24.282  18.365 -0.0008  0.2831 -0.1093
 1559POPS   C3A18703  17.855  23.984  18.092  0.0300  0.1958 -0.1671
 1559POPS   C4A18704  18.165  23.676  17.984 -0.4079 -0.0351  0.2506
 1559POPS   C1B18705  17.808  23.580  18.775 -0.1999 -0.1705 -0.0495
 1559POPS   C2B18706  17.788  23.487  18.331  0.1458 -0.0173  0.3468
 1559POPS   C3B18707  17.670  23.505  17.893 -0.0670  0.1369  0.2887
 1559POPS   C4B18708  17.732  23.795  17.592 -0.5284  0.3407 -0.0302
 1560POPS   CNO18709   3.432   1.968  19.265 -0.2802  0.1769  0.2372
 1560POPS   PO418710   3.152   1.822  19.068 -0.0143  0.0195  0.0653
 1560POPS   GL118711   3.073   1.535  18.866 -0.1763 -0.1782 -0.2894
 1560POPS   GL218712   2.846   1.389  18.977 -0.4035 -0.2476 -0.1276
 1560POPS   C1A18713   2.767   1.627  18.488 -0.1447  0.2912 -0.2364
 1560POPS   D2A18714   2.833   1.645  18.053 -0.2051  0.1319 -0.1105
 1560POPS   C3A18715   3.235   1.525  17.887 -0.4389  0.1190  0.2596
 1560POPS   C4A18716   3.417   1.331  17.506 -0.0178 -0.2133 -0.1673
 1560POPS   C1B18717   2.814   1.096  18.591 -0.0498 -0.3859 -0.1906
 1560POPS   C2B18718   2.944   1.109  18.182  0.2062 -0.2270 -0.2393
 1560POPS   C3B18719   3.184   1.027  17.837 -0.1660  0.5388  0.4663
 1560POPS   C4B18720   3.323   0.862  17.439  0.2755  0.1134 -0.3493
 1561POPS   CNO18721  13.195  15.252  19.804  0.3104 -0.2591  0.0902
 1561POPS   PO418722  13.225  15.010  19.510  0.0123  0.3972 -0.1436
 1561POPS   GL118723  13.290  15.037  19.065  0.0433 -0.3055 -0.0303
 1561POPS   GL218724  13.116  15.177  18.960  0.0533 -0.3506 -0.0967
 1561POPS   C1A18725  13.497  15.014  18.707  0.1098  0.1725  0.1421
 1561POPS   D2A18726  13.662  14.703  18.375  0.0902 -0.0646 -0.1418
 1561POPS   C3A18727  13.693  14.819  17.908 -0.0755  0.0176 -0.2044
 1561POPS   C4A18728  13.426  15.081  17.642 -0.0081  0.0004  0.2350
 1561POPS   C1B18729  13.078  14.746  18.733 -0.0902  0.3298  0.1261
 1561POPS   C2B18730  13.174  14.496  18.405  0.0304  0.2093  0.1970
 1561POPS   C3B18731  12.943  14.290  18.050  0.0190  0.0873  0.0892
 1561POPS   C4B18732  12.665  13.994  17.745  0.2902  0.1553 -0.2673
 1562POPS   CNO18733  27.706  17.952  19.557  0.0487  0.2859 -0.2513
 1562POPS   PO418734  27.834  18.156  19.254  0.0781  0.0246 -0.0240
 1562POPS   GL118735  27.706  18.103  18.847 -0.0768  0.0684 -0.0441
 1562POPS   GL218736  27.613  18.402  18.871  0.0588  0.0971 -0.1561
 1562POPS   C1A18737  27.757  17.723  18.553 -0.2413 -0.6431 -0.0471
 1562POPS   D2A18738  27.531  17.458  18.221 -0.0359  0.1257  0.0633
 1562POPS   C3A18739  27.237  17.536  17.855  0.1370  0.1643 -0.2704
 1562POPS   C4A18740  26.840  17.437  17.612  0.1592  0.3364  0.1318
 1562POPS   C1B18741  27.629  18.354  18.392 -0.0584  0.0020 -0.1226
 1562POPS   C2B18742  27.748  18.396  17.966 -0.1694  0.0700 -0.1536
 1562POPS   C3B18743  27.868  18.070  17.672  0.1229 -0.2297 -0.2880
 1562POPS   C4B18744  28.151  18.018  17.319 -0.0964  0.1278 -0.0612
 1563POPS   CNO18745  13.072  17.627  18.757  0.2065 -0.0260 -0.0020
 1563POPS   PO418746  13.366  17.563  18.616 -0.3348  0.0890 -0.2624
 1563POPS   GL118747  13.482  17.547  18.171  0.0066  0.0978  0.1782
 1563POPS   GL218748  13.731  17.768  18.179 -0.0395  0.0510 -0.0029
 1563POPS   C1A18749  13.567  17.349  17.776 -0.0844  0.1616  0.1242
 1563POPS   D2A18750  13.944  17.238  17.507  0.2073  0.0175 -0.1005
 1563POPS   C3A18751  14.264  17.426  17.196  0.0396 -0.5858  0.2454
 1563POPS   C4A18752  14.614  17.645  16.886  0.0354 -0.1430 -0.3333
 1563POPS   C1B18753  13.937  17.780  17.739 -0.0993  0.0130 -0.0653
 1563POPS   C2B18754  13.774  17.614  17.301 -0.0077  0.1709 -0.4014
 1563POPS   C3B18755  13.880  17.636  16.835 -0.1306  0.1028  0.0700
 1563POPS   C4B18756  14.208  17.569  16.479  0.0723 -0.2005 -0.0653
 1564POPS   CNO18757  21.728  28.826  19.152  0.0998 -0.0668  0.0914
 1564POPS   PO418758  21.950  29.128  19.297 -0.0619  0.1065  0.1969
 1564POPS   GL118759  21.890  29.057  18.816  0.0249  0.3631  0.0890
 1564POPS   GL218760  21.634  29.199  18.681 -0.1924 -0.0229  0.0911
 1564POPS   C1A18761  21.621  28.689  18.642  0.1312 -0.6017  0.1661
 1564POPS   D2A18762  21.228  28.555  18.392 -0.1651  0.2000 -0.1553
 1564POPS   C3A18763  21.118  28.596  17.965  0.1614  0.0907  0.3510
 1564POPS   C4A18764  21.111  28.902  17.617  0.0583 -0.0627 -0.0687
 1564POPS   C1B18765  21.835  29.114  18.265 -0.2558 -0.1114  0.0577
 1564POPS   C2B18766  22.086  29.075  17.860 -0.4371 -0.3388  0.0670
 1564POPS   C3B18767  22.358  29.059  17.503 -0.1469 -0.1132 -0.1504
 1564POPS   C4B18768  22.631  28.663  17.341  0.2346 -0.0917  0.2493
 1565POPS   CNO18769  16.484  29.195  19.596  0.0265 -0.0336 -0.2147
 1565POPS   PO418770  16.396  29.539  19.483 -0.0343  0.3233  0.0446
 1565POPS   GL118771  16.217  29.524  19.189 -0.1561  0.0762  0.2120
 1565POPS   GL218772  15.892  29.488  19.177 -0.1068  0.1759 -0.1487
 1565POPS   C1A18773  16.425  29.340  18.797 -0.0708  0.1348 -0.1657
 1565POPS   D2A18774  16.504  28.944  18.579 -0.1113  0.2762  0.0654
 1565POPS   C3A18775  16.844  28.872  18.315 -0.1388 -0.0276 -0.1839
 1565POPS   C4A18776  16.833  28.707  17.917  0.0731  0.4010 -0.0557
 1565POPS   C1B18777  15.924  29.567  18.705 -0.0191  0.2497  0.2460
 1565POPS   C2B18778  15.813  29.644  18.271  0.0023 -0.1050 -0.0966
 1565POPS   C3B18779  15.883  29.670  17.753  0.1103  0.0764  0.1043
 1565POPS   C4B18780  15.932  29.696  17.306 -0.2859  0.0473 -0.2519
 1566POPS   CNO18781   2.317  29.095  19.607 -0.0764 -0.1413 -0.0729
 1566POPS   PO418782   2.244  28.993  19.293 -0.1423  0.1557 -0.1343
 1566POPS   GL118783   2.101  28.740  18.976 -0.1998  0.0635 -0.0993
 1566POPS   GL218784   1.970  28.804  18.769  0.0339 -0.0778  0.1531
 1566POPS   C1A18785   2.477  28.761  18.654 -0.2375 -0.0038  0.2025
 1566POPS   D2A18786   2.933  28.697  18.526 -0.0759 -0.1830  0.1007
 1566POPS   C3A18787   3.081  28.443  18.203 -0.1513 -0.1041 -0.1090
 1566POPS   C4A18788   3.249  28.420  17.784  0.0402 -0.2662  0.0398
 1566POPS   C1B18789   1.941  28.780  18.307  0.0833 -0.1261  0.0119
 1566POPS   C2B18790   2.219  28.741  17.993 -0.3425  0.0709  0.6806
 1566POPS   C3B18791   2.261  28.771  17.521 -0.0440 -0.0741  0.3221
 1566POPS   C4B18792   2.296  29.156  17.279 -0.1220  0.2742 -0.4471
 1567POPS   CNO18793  31.650  25.636  19.884  0.1873 -0.0106  0.1635
 1567POPS   PO418794  31.650  25.769  19.519  0.1818 -0.0663  0.1763
 1567POPS   GL118795  31.616  25.710  19.085 -0.0598  0.1248  0.1823
 1567POPS   GL218796  31.899  25.495  18.990 -0.2124  0.0406 -0.1768
 1567POPS   C1A18797  31.363  25.950  18.793  0.1659 -0.0579  0.1250
 1567POPS   D2A18798  31.418  26.127  18.397 -0.1979  0.0906 -0.2910
 1567POPS   C3A18799  31.660  26.498  18.186  0.0354 -0.2298 -0.0885
 1567POPS   C4A18800  31.889  26.577  17.799 -0.2542 -0.1340 -0.0320
 1567POPS   C1B18801  32.081  25.279  18.593 -0.2214 -0.0398 -0.1233
 1567POPS   C2B18802  32.292  25.250  18.184  0.3404  0.0220 -0.4196
 1567POPS   C3B18803  32.359  25.338  17.737  0.0291 -0.0731 -0.3283
 1567POPS   C4B18804  32.298  25.165  17.327  0.0271  0.1977 -0.4290
 1568POPS   CNO18805  14.227  17.899  19.265  0.1969 -0.3056  0.0613
 1568POPS   PO418806  14.233  17.745  18.924 -0.1362  0.1555  0.4023
 1568POPS   GL118807  14.359  17.580  18.581 -0.1437  0.1660  0.1838
 1568POPS   GL218808  14.324  17.832  18.456 -0.0291 -0.0146  0.1226
 1568POPS   C1A18809  14.249  17.421  18.160 -0.2915 -0.3245  0.0672
 1568POPS   D2A18810  14.359  17.428  17.707 -0.0060  0.0124  0.1088
 1568POPS   C3A18811  14.438  17.061  17.478 -0.0675  0.0870  0.1003
 1568POPS   C4A18812  14.766  16.856  17.254  0.1313  0.2977  0.0986
 1568POPS   C1B18813  14.478  17.941  18.024 -0.1301  0.3848 -0.0126
 1568POPS   C2B18814  14.377  17.936  17.537 -0.0975 -0.1532 -0.0115
 1568POPS   C3B18815  14.578  18.143  17.166  0.0149 -0.2170  0.1867
 1568POPS   C4B18816  14.766  18.148  16.823  0.1612  0.1637  0.1374
 1569POPS   CNO18817  22.182  23.257  19.230  0.1406 -0.2492  0.0897
 1569POPS   PO418818  22.431  23.086  19.022  0.1172 -0.0480 -0.1640
 1569POPS   GL118819  22.567  22.982  18.577 -0.2090  0.1983  0.5311
 1569POPS   GL218820  22.762  23.125  18.503  0.0672 -0.0253 -0.1512
 1569POPS   C1A18821  22.556  23.027  18.096 -0.0115  0.0982  0.0499
 1569POPS   D2A18822  22.566  22.968  17.624  0.0155  0.0262 -0.1091
 1569POPS   C3A18823  22.276  22.654  17.466  0.4270  0.0940 -0.0131
 1569POPS   C4A18824  22.245  22.366  17.100  0.0786  0.0243 -0.0222
 1569POPS   C1B18825  22.994  23.369  18.111 -0.0615 -0.2058 -0.0411
 1569POPS   C2B18826  22.885  23.417  17.647 -0.0649 -0.1275 -0.4159
 1569POPS   C3B18827  22.941  23.875  17.462  0.1297 -0.2489  0.3059
 1569POPS   C4B18828  23.131  24.147  17.199  0.0445  0.1881 -0.2240
 1570POPS   CNO18829  21.151  16.625  20.210  0.0082  0.3211  0.0306
 1570POPS   PO418830  21.275  16.287  20.172 -0.1933  0.2998 -0.0665
 1570POPS   GL118831  21.723  16.365  20.209  0.0350  0.3051  0.0010
 1570POPS   GL218832  21.669  16.614  20.216 -0.0516  0.2009 -0.0594
 1570POPS   C1A18833  22.100  16.138  20.044  0.2010 -0.0116 -0.5032
 1570POPS   D2A18834  22.554  16.188  20.212 -0.1921  0.0889  0.0938
 1570POPS   C3A18835  22.807  16.183  20.656 -0.3719  0.0906  0.3344
 1570POPS   C4A18836  23.241  16.137  20.686  0.1275 -0.1091  0.4086
 1570POPS   C1B18837  22.134  16.593  20.282 -0.2646 -0.1653  0.0421
 1570POPS   C2B18838  22.545  16.590  20.484  0.3264 -0.0631 -0.3308
 1570POPS   C3B18839  22.933  16.526  20.292 -0.0403  0.0854  0.3095
 1570POPS   C4B18840  23.334  16.803  20.131 -0.3227 -0.2321 -0.0049
 1571POPS   CNO18841  29.661   0.606  19.714 -0.0681 -0.0417 -0.0521
 1571POPS   PO418842  29.679   0.298  19.452 -0.1464  0.2262  0.1478
 1571POPS   GL118843  29.611   0.315  19.052 -0.1799 -0.0746  0.4583
 1571POPS   GL218844  29.454   0.506  18.886 -0.0444  0.0548  0.1808
 1571POPS   C1A18845  29.754   0.104  18.642  0.0387 -0.0606  0.1164
 1571POPS   D2A18846  30.064   0.164  18.271 -0.1518 -0.0313  0.1767
 1571POPS   C3A18847  30.094   0.046  17.836  0.0757 -0.3029 -0.3194
 1571POPS   C4A18848  29.827  -0.162  17.615  0.0881 -0.0970 -0.0315
 1571POPS   C1B18849  29.111   0.389  18.541 -0.1942  0.1259  0.1731
 1571POPS   C2B18850  29.234   0.342  18.113 -0.1808 -0.5002  0.0638
 1571POPS   C3B18851  29.340   0.639  17.768 -0.0527  0.0510  0.1429
 1571POPS   C4B18852  29.217   1.039  17.522 -0.2811 -0.1104 -0.2184
 1572POPS   CNO18853   7.490  28.261  19.350  0.2191 -0.2834 -0.1290
 1572POPS   PO418854   7.449  28.626  19.288  0.2955  0.2026 -0.3276
 1572POPS   GL118855   7.444  28.667  18.912 -0.2050  0.1077  0.0506
 1572POPS   GL218856   7.383  28.930  18.812  0.1305  0.1484  0.0334
 1572POPS   C1A18857   7.618  28.617  18.489  0.1340 -0.2128 -0.1075
 1572POPS   D2A18858   7.799  28.476  18.058  0.0669 -0.2871  0.1588
 1572POPS   C3A18859   7.862  28.710  17.726 -0.0389  0.1067  0.0054
 1572POPS   C4A18860   8.045  29.074  17.498  0.2353 -0.1055 -0.0497
 1572POPS   C1B18861   7.142  28.980  18.356 -0.0645  0.1836 -0.2519
 1572POPS   C2B18862   7.074  29.006  17.903  0.2617  0.1345  0.0539
 1572POPS   C3B18863   7.394  28.969  17.600  0.1279 -0.2215  0.0972
 1572POPS   C4B18864   7.540  28.815  17.218  0.1173  0.3940 -0.0877
 1573POPS   CNO18865   8.428   9.117  19.730  0.0207  0.0107  0.1515
 1573POPS   PO418866   8.294   9.204  19.397  0.3186  0.2165 -0.0360
 1573POPS   GL118867   8.341   9.274  19.081 -0.3897  0.3309 -0.1134
 1573POPS   GL218868   8.258   9.208  18.816 -0.0512  0.2415 -0.2836
 1573POPS   C1A18869   8.649   9.435  18.789 -0.2859 -0.0172 -0.0065
 1573POPS   D2A18870   9.040   9.368  18.523  0.0832  0.0692  0.1120
 1573POPS   C3A18871   9.239   9.269  18.063 -0.0979 -0.1436 -0.1218
 1573POPS   C4A18872   9.103   9.272  17.586 -0.0972  0.2807  0.0737
 1573POPS   C1B18873   8.381   9.145  18.401 -0.2617 -0.0864  0.0638
 1573POPS   C2B18874   8.491   8.936  18.004  0.0700 -0.0756  0.1894
 1573POPS   C3B18875   8.423   8.810  17.554 -0.1022 -0.1597 -0.0293
 1573POPS   C4B18876   8.455   8.999  17.141  0.3106  0.0793 -0.1723
 1574POPS   CNO18877  25.913  29.422  19.804 -0.0649  0.2028  0.3005
 1574POPS   PO418878  25.886  29.279  19.448  0.0627  0.0648  0.1973
 1574POPS   GL118879  25.856  29.297  19.089  0.0698  0.4649 -0.2506
 1574POPS   GL218880  26.085  29.216  18.919 -0.0842  0.2030  0.0649
 1574POPS   C1A18881  25.741  29.549  18.737  0.2255 -0.1411  0.3402
 1574POPS   D2A18882  25.681  29.511  18.274 -0.0756 -0.0112  0.1555
 1574POPS   C3A18883  25.240  29.430  18.078  0.0706  0.0156  0.0239
 1574POPS   C4A18884  24.845  29.310  17.914  0.0999  0.0443  0.0538
 1574POPS   C1B18885  26.011  29.047  18.482  0.0740 -0.2109 -0.0738
 1574POPS   C2B18886  26.102  29.245  18.099 -0.0210  0.2882 -0.2252
 1574POPS   C3B18887  26.104  29.297  17.639 -0.2061 -0.2175 -0.0799
 1574POPS   C4B18888  26.043  29.593  17.232 -0.2989  0.1152  0.0254
 1575POPS   CNO18889  26.317   9.309  19.962  0.2529 -0.0061 -0.3176
 1575POPS   PO418890  26.207   9.216  19.613 -0.1057 -0.3651 -0.1375
 1575POPS   GL118891  26.355   9.328  19.214  0.0576 -0.3583 -0.3517
 1575POPS   GL218892  26.423   9.545  19.007 -0.0298  0.0477  0.0159
 1575POPS   C1A18893  26.266   9.164  18.782  0.0147  0.3114 -0.0008
 1575POPS   D2A18894  26.464   9.111  18.350  0.1795  0.0468  0.1742
 1575POPS   C3A18895  26.349   8.822  18.022  0.2832 -0.1178 -0.0244
 1575POPS   C4A18896  26.240   8.808  17.557 -0.2817  0.2140 -0.0425
 1575POPS   C1B18897  26.269   9.589  18.593  0.0183 -0.2880  0.0359
 1575POPS   C2B18898  26.118   9.692  18.139 -0.1851  0.0216  0.1293
 1575POPS   C3B18899  26.192   9.655  17.681  0.0293 -0.1939 -0.0099
 1575POPS   C4B18900  26.394   9.354  17.466 -0.0014 -0.1238 -0.1717
 1576POPS   CNO18901  24.087  13.819  19.271 -0.1986 -0.0107 -0.2824
 1576POPS   PO418902  23.772  13.970  19.110 -0.2395  0.1615  0.4249
 1576POPS   GL118903  23.423  13.904  18.843 -0.1581 -0.0015 -0.2198
 1576POPS   GL218904  23.283  14.180  18.915 -0.0800 -0.0597  0.0394
 1576POPS   C1A18905  23.390  13.802  18.419  0.0689  0.0566 -0.1288
 1576POPS   D2A18906  23.335  13.870  17.986 -0.0713 -0.0562  0.5338
 1576POPS   C3A18907  23.017  13.909  17.643  0.0103  0.0513  0.2193
 1576POPS   C4A18908  22.662  13.730  17.463  0.1137 -0.1280  0.4077
 1576POPS   C1B18909  23.052  14.237  18.549  0.1728  0.1740  0.4412
 1576POPS   C2B18910  22.983  14.192  18.034 -0.0169 -0.0117  0.0983
 1576POPS   C3B18911  23.184  14.351  17.614  0.2656  0.0354  0.2951
 1576POPS   C4B18912  23.358  14.459  17.197 -0.4151  0.5259 -0.5224
 1577POPS   CNO18913  31.508   5.088  19.614  0.0638  0.0459  0.0823
 1577POPS   PO418914  31.853   5.081  19.799  0.1470 -0.1914  0.3217
 1577POPS   GL118915  31.984   5.024  19.441 -0.1371  0.0078 -0.2311
 1577POPS   GL218916  31.960   5.299  19.364  0.0124 -0.1566 -0.0627
 1577POPS   C1A18917  32.383   4.904  19.170  0.2973 -0.0865  0.0142
 1577POPS   D2A18918  32.471   4.583  18.850 -0.1411  0.1247 -0.0035
 1577POPS   C3A18919  32.202   4.782  18.548 -0.2331  0.1106  0.0544
 1577POPS   C4A18920  31.810   4.716  18.295  0.3723  0.2257 -0.1549
 1577POPS   C1B18921  31.973   5.144  18.913 -0.3005 -0.3664  0.0890
 1577POPS   C2B18922  32.071   5.277  18.454 -0.3306 -0.1677 -0.2248
 1577POPS   C3B18923  32.068   5.067  18.064 -0.0272 -0.0089  0.2366
 1577POPS   C4B18924  31.844   4.814  17.785  0.0003 -0.1710 -0.0255
 1578POPS   CNO18925  28.865  18.452  19.573 -0.1641 -0.1689 -0.3306
 1578POPS   PO418926  28.816  18.315  19.223  0.0904 -0.1566  0.1121
 1578POPS   GL118927  28.478  18.259  18.894  0.0258  0.0936 -0.2728
 1578POPS   GL218928  28.202  18.329  18.874  0.3128 -0.1457  0.2060
 1578POPS   C1A18929  28.503  18.300  18.445 -0.0411  0.4400  0.1849
 1578POPS   D2A18930  28.218  18.438  18.075 -0.1039 -0.1563  0.0741
 1578POPS   C3A18931  28.336  18.630  17.694 -0.3310  0.3605  0.2349
 1578POPS   C4A18932  28.601  18.981  17.710  0.1624 -0.0611 -0.0750
 1578POPS   C1B18933  28.033  18.108  18.489  0.1005 -0.0643  0.2697
 1578POPS   C2B18934  28.008  17.843  18.163  0.0577 -0.0230  0.1031
 1578POPS   C3B18935  27.942  17.597  17.783 -0.0395 -0.1091 -0.0537
 1578POPS   C4B18936  28.030  17.429  17.331 -0.2145 -0.1625 -0.3105
 1579POPS   CNO18937   0.772  29.748  19.458  0.4211 -0.1264 -0.1176
 1579POPS   PO418938   0.546  29.793  19.146 -0.2237  0.1319  0.1591
 1579POPS   GL118939   0.480  29.744  18.795 -0.2122  0.1918  0.1067
 1579POPS   GL218940   0.607  29.512  18.717  0.2066 -0.1424  0.2287
 1579POPS   C1A18941   0.104  29.646  18.623 -0.0005 -0.2441  0.3649
 1579POPS   D2A18942  -0.049  29.632  18.157  0.1467 -0.1008  0.1420
 1579POPS   C3A18943  -0.367  29.821  17.870 -0.1124 -0.2551  0.2540
 1579POPS   C4A18944  -0.564  30.171  17.696  0.1353 -0.1905 -0.2154
 1579POPS   C1B18945   0.418  29.487  18.313  0.0285  0.2205  0.1087
 1579POPS   C2B18946   0.420  29.290  17.927  0.4754  0.1505 -0.4313
 1579POPS   C3B18947   0.469  29.292  17.480 -0.1901  0.1293 -0.0114
 1579POPS   C4B18948   0.544  29.159  17.052 -0.1506 -0.1937  0.0488
 1580POPS   CNO18949  26.857  17.599  19.813  0.0998  0.0630 -0.0511
 1580POPS   PO418950  26.788  17.597  19.412 -0.1874  0.1559 -0.0324
 1580POPS   GL118951  27.000  17.658  18.975  0.3524 -0.1456  0.0029
 1580POPS   GL218952  26.744  17.581  18.806  0.0900  0.0142 -0.1520
 1580POPS   C1A18953  27.299  17.937  18.753  0.3039 -0.2843  0.3109
 1580POPS   D2A18954  27.263  17.991  18.309 -0.0768 -0.0443  0.0198
 1580POPS   C3A18955  27.457  17.984  17.903  0.1956 -0.0117  0.0145
 1580POPS   C4A18956  27.443  17.796  17.475  0.0054 -0.1478 -0.2280
 1580POPS   C1B18957  26.793  17.992  18.611 -0.2719  0.2527  0.0946
 1580POPS   C2B18958  26.824  17.969  18.151 -0.0629  0.0076 -0.1960
 1580POPS   C3B18959  26.937  17.906  17.689  0.0599 -0.3674 -0.0273
 1580POPS   C4B18960  26.954  17.903  17.180  0.1144  0.1136 -0.1371
 1581POPS   CNO18961  22.730   3.290  19.601  0.0089 -0.0673 -0.0050
 1581POPS   PO418962  22.852   3.418  19.246  0.1780  0.0781  0.3904
 1581POPS   GL118963  23.042   3.249  18.926  0.2204 -0.0782 -0.1036
 1581POPS   GL218964  23.078   2.929  18.914  0.1771 -0.2026 -0.2275
 1581POPS   C1A18965  22.927   3.262  18.485 -0.0054 -0.1967 -0.0074
 1581POPS   D2A18966  23.040   3.251  18.067 -0.1124 -0.1033  0.0565
 1581POPS   C3A18967  22.939   2.950  17.761  0.0616  0.2477  0.0843
 1581POPS   C4A18968  22.735   2.783  17.391 -0.1686 -0.0368 -0.1232
 1581POPS   C1B18969  23.413   3.089  18.684  0.0367 -0.1268 -0.0930
 1581POPS   C2B18970  23.510   3.282  18.259 -0.1072  0.0051  0.1542
 1581POPS   C3B18971  23.775   3.326  17.915  0.0452  0.0619 -0.3736
 1581POPS   C4B18972  23.940   3.406  17.492  0.1765 -0.0533 -0.0721
 1582POPS   CNO18973   8.082  17.266  19.564 -0.0099  0.3066  0.0855
 1582POPS   PO418974   8.217  17.040  19.270 -0.1455 -0.1703 -0.0388
 1582POPS   GL118975   8.138  16.919  18.933  0.1966 -0.1374 -0.0272
 1582POPS   GL218976   8.341  16.904  18.734 -0.0490 -0.1424 -0.0856
 1582POPS   C1A18977   7.765  16.892  18.572  0.1208  0.0168 -0.2545
 1582POPS   D2A18978   7.523  16.807  18.163  0.0463  0.1525  0.1509
 1582POPS   C3A18979   7.788  16.842  17.757 -0.0268  0.1474 -0.0797
 1582POPS   C4A18980   8.167  17.013  17.577  0.0558 -0.1008 -0.0384
 1582POPS   C1B18981   8.554  16.547  18.710  0.0482 -0.1706 -0.1541
 1582POPS   C2B18982   8.598  16.252  18.341 -0.2375  0.0852 -0.2326
 1582POPS   C3B18983   8.450  15.914  18.003 -0.1348  0.2291 -0.1732
 1582POPS   C4B18984   8.054  15.690  17.842  0.0301  0.0051 -0.0757
 1583POPS   CNO18985   4.555  24.968  19.557 -0.0068 -0.0343  0.0491
 1583POPS   PO418986   4.254  24.826  19.446  0.1097  0.0092  0.1887
 1583POPS   GL118987   4.115  24.987  19.151 -0.1938 -0.2205 -0.1087
 1583POPS   GL218988   4.299  25.183  19.034  0.0339  0.2376 -0.2068
 1583POPS   C1A18989   3.689  25.171  19.036 -0.0917 -0.1192 -0.0944
 1583POPS   D2A18990   3.262  25.414  18.953  0.0771  0.1091 -0.2102
 1583POPS   C3A18991   3.300  25.855  18.752 -0.1538 -0.3604  0.0183
 1583POPS   C4A18992   3.175  26.277  18.772  0.0840  0.1089 -0.2536
 1583POPS   C1B18993   4.123  25.349  18.652 -0.1484 -0.0720 -0.0815
 1583POPS   C2B18994   4.078  25.406  18.202  0.0357 -0.2752 -0.3615
 1583POPS   C3B18995   4.171  25.523  17.808 -0.0315  0.0958  0.0655
 1583POPS   C4B18996   4.178  25.521  17.368  0.2882 -0.3256  0.2382
 1584POPS   CNO18997  13.714  17.448  19.036 -0.2028  0.1355 -0.1523
 1584POPS   PO418998  13.481  17.135  18.996  0.0544  0.1864  0.0662
 1584POPS   GL118999  13.686  17.187  18.642 -0.4865  0.0747 -0.6319
 1584POPS   GL219000  13.493  17.026  18.549 -0.0603 -0.1874  0.2753
 1584POPS   C1A19001  13.854  17.118  18.229  0.0979  0.2839  0.2090
 1584POPS   D2A19002  14.148  16.957  17.911  0.1263  0.0275  0.0128
 1584POPS   C3A19003  14.369  16.569  17.735  0.0945 -0.2485  0.0036
 1584POPS   C4A19004  14.399  16.379  17.342 -0.1417  0.2125 -0.0504
 1584POPS   C1B19005  13.461  16.838  18.113 -0.0462 -0.0707  0.2645
 1584POPS   C2B19006  13.700  16.835  17.679  0.1298 -0.2181  0.2055
 1584POPS   C3B19007  14.033  16.733  17.378 -0.0448  0.2370  0.0481
 1584POPS   C4B19008  14.343  16.753  17.029  0.3826 -0.1568 -0.0335
 1585POPS   CNO19009  10.120  16.804  19.747  0.4353  0.0494 -0.2583
 1585POPS   PO419010   9.902  16.933  19.518  0.1573  0.1112  0.2501
 1585POPS   GL119011   9.798  17.007  19.077 -0.1413 -0.3614 -0.4339
 1585POPS   GL219012   9.956  16.769  19.052  0.1411  0.0728 -0.0751
 1585POPS   C1A19013   9.874  17.069  18.592 -0.3469 -0.0365  0.1447
 1585POPS   D2A19014   9.745  17.102  18.157 -0.0090  0.0845 -0.0554
 1585POPS   C3A19015   9.502  17.290  17.781 -0.0742  0.0615  0.2547
 1585POPS   C4A19016   9.511  17.579  17.440 -0.2432 -0.4214  0.1632
 1585POPS   C1B19017   9.634  16.661  18.713 -0.0238 -0.1118  0.3521
 1585POPS   C2B19018   9.523  16.417  18.353  0.2101  0.1843 -0.0199
 1585POPS   C3B19019   9.443  16.142  17.979 -0.0843 -0.1644 -0.3750
 1585POPS   C4B19020   9.350  15.899  17.617 -0.4246  0.0123  0.1048
 1586POPS   CNO19021  25.874   1.847  19.317 -0.0897 -0.0866  0.0740
 1586POPS   PO419022  26.245   1.978  19.338  0.2457 -0.0804 -0.0507
 1586POPS   GL119023  26.364   1.996  18.951  0.1098  0.0278  0.1300
 1586POPS   GL219024  26.109   1.862  18.827 -0.2417  0.0906 -0.0511
 1586POPS   C1A19025  26.205   2.304  18.625 -0.0320  0.2237 -0.2764
 1586POPS   D2A19026  26.018   2.596  18.329 -0.0944  0.0616 -0.1616
 1586POPS   C3A19027  26.061   2.285  17.967  0.0127  0.0223 -0.0084
 1586POPS   C4A19028  26.036   2.182  17.508  0.0123 -0.4042  0.2881
 1586POPS   C1B19029  26.112   1.866  18.363 -0.0897  0.0373  0.0552
 1586POPS   C2B19030  26.297   1.811  17.921  0.2216  0.1570 -0.0391
 1586POPS   C3B19031  26.525   1.824  17.496  0.2462 -0.1363  0.1359
 1586POPS   C4B19032  26.766   1.660  17.100  0.1986  0.5207  0.0203
 1587POPS   CNO19033  18.345  15.580  19.404  0.0758 -0.1051 -0.1583
 1587POPS   PO419034  18.364  15.249  19.261 -0.1579  0.1661  0.0424
 1587POPS   GL119035  18.329  15.335  18.879  0.0995 -0.1188 -0.1332
 1587POPS   GL219036  18.302  15.595  18.742 -0.1243 -0.3913  0.2910
 1587POPS   C1A19037  18.320  15.203  18.397 -0.0790  0.1484  0.7386
 1587POPS   D2A19038  18.142  15.076  18.010 -0.0811  0.0822 -0.0986
 1587POPS   C3A19039  18.179  15.296  17.592  0.3879 -0.3243  0.3161
 1587POPS   C4A19040  17.880  15.460  17.293  0.1225  0.1833 -0.0970
 1587POPS   C1B19041  18.561  15.682  18.309  0.2528 -0.0686 -0.0296
 1587POPS   C2B19042  18.569  15.562  17.861  0.4215  0.0828 -0.1668
 1587POPS   C3B19043  18.907  15.416  17.571  0.0406 -0.2788 -0.1260
 1587POPS   C4B19044  19.148  15.087  17.397  0.0003 -0.0975 -0.2732
 1588POPS   CNO19045   2.003  24.587  19.604  0.0599 -0.1873 -0.1139
 1588POPS   PO419046   1.918  24.919  19.434  0.0943  0.2263  0.3520
 1588POPS   GL119047   1.883  25.118  18.983  0.1351  0.4814  0.2150
 1588POPS   GL219048   1.868  24.870  18.895  0.0459  0.1363  0.0375
 1588POPS   C1A19049   1.708  25.457  18.747 -0.0151  0.2001  0.2670
 1588POPS   D2A19050   1.554  25.605  18.330 -0.1906  0.1021  0.0798
 1588POPS   C3A19051   1.593  25.279  18.028 -0.3820  0.0195 -0.1435
 1588POPS   C4A19052   1.478  24.846  17.966 -0.0859  0.3491 -0.4099
 1588POPS   C1B19053   2.192  24.667  18.642  0.3458  0.0892  0.3704
 1588POPS   C2B19054   2.352  24.639  18.249  0.1119  0.1042  0.1607
 1588POPS   C3B19055   2.314  24.689  17.783 -0.1005 -0.1152 -0.2556
 1588POPS   C4B19056   1.879  24.726  17.647  0.0785  0.1448 -0.0548
 1589POPS   CNO19057  14.154  31.033  19.493 -0.0270 -0.1890  0.0151
 1589POPS   PO419058  14.255  31.028  19.132 -0.4609 -0.2229  0.1217
 1589POPS   GL119059  14.257  31.126  18.750 -0.3136 -0.0558 -0.3158
 1589POPS   GL219060  14.485  31.165  18.532 -0.2847 -0.1766 -0.0306
 1589POPS   C1A19061  13.981  31.074  18.384 -0.0516 -0.2658 -0.2608
 1589POPS   D2A19062  13.954  31.259  17.967  0.2393 -0.0833 -0.2944
 1589POPS   C3A19063  14.171  30.999  17.700  0.1013 -0.0241 -0.3249
 1589POPS   C4A19064  14.130  30.885  17.281  0.2977 -0.2335 -0.2550
 1589POPS   C1B19065  14.487  31.144  18.072 -0.0893 -0.3382 -0.0539
 1589POPS   C2B19066  14.532  31.414  17.688  0.2663  0.0310  0.0651
 1589POPS   C3B19067  14.404  31.303  17.259 -0.0189 -0.1942  0.1705
 1589POPS   C4B19068  14.491  31.259  16.788 -0.1343  0.3619 -0.3589
 1590POPS   CNO19069   5.276  10.513  18.980  0.1327 -0.1888  0.1306
 1590POPS   PO419070   4.950  10.457  18.745 -0.0383  0.0695 -0.2864
 1590POPS   GL119071   4.789  10.272  18.434  0.5198  0.2946 -0.1606
 1590POPS   GL219072   4.822   9.989  18.352  0.0385 -0.0328 -0.2727
 1590POPS   C1A19073   4.568  10.253  17.991  0.3246 -0.0066  0.2912
 1590POPS   D2A19074   4.224  10.086  17.672 -0.0059 -0.1456  0.2041
 1590POPS   C3A19075   3.939  10.230  17.329  0.3227 -0.0060 -0.0942
 1590POPS   C4A19076   3.645  10.573  17.275 -0.0651  0.1478  0.0657
 1590POPS   C1B19077   5.033  10.084  17.921  0.1642  0.0477 -0.0298
 1590POPS   C2B19078   5.230   9.947  17.525  0.0344  0.0425  0.0046
 1590POPS   C3B19079   5.225   9.755  17.086  0.0231  0.1117 -0.2160
 1590POPS   C4B19080   5.149   9.737  16.671 -0.1375  0.1276  0.2604
 1591POPS   CNO19081   6.972  20.148  19.482 -0.3277 -0.0897 -0.3125
 1591POPS   PO419082   6.655  20.362  19.457 -0.2294  0.3012  0.3448
 1591POPS   GL119083   6.802  20.459  19.179  0.1568 -0.1321 -0.0417
 1591POPS   GL219084   6.677  20.756  19.131 -0.1354 -0.1996  0.0530
 1591POPS   C1A19085   7.217  20.594  19.009  0.2312 -0.0864  0.1653
 1591POPS   D2A19086   7.508  20.685  18.642 -0.2122 -0.2099 -0.1624
 1591POPS   C3A19087   7.371  20.621  18.243 -0.0497 -0.1313  0.0210
 1591POPS   C4A19088   7.010  20.882  18.022 -0.0824 -0.1467 -0.0092
 1591POPS   C1B19089   6.817  21.147  18.914  0.2150 -0.0062 -0.1702
 1591POPS   C2B19090   6.908  21.372  18.536  0.3998  0.1139  0.3157
 1591POPS   C3B19091   6.770  21.422  18.113 -0.0119 -0.2128  0.1368
 1591POPS   C4B19092   6.366  21.553  17.814  0.2673 -0.0547  0.2101
 1592POPS   CNO19093  11.480  12.146  19.926 -0.1239  0.1465 -0.0184
 1592POPS   PO419094  11.579  11.878  19.704 -0.0912 -0.4126 -0.1964
 1592POPS   GL119095  11.431  11.704  19.256 -0.2728 -0.0661 -0.0129
 1592POPS   GL219096  11.713  11.750  19.220 -0.2205  0.3211  0.1778
 1592POPS   C1A19097  11.224  11.534  18.856  0.1631 -0.0799 -0.0589
 1592POPS   D2A19098  11.383  11.191  18.580  0.2519  0.2704  0.1930
 1592POPS   C3A19099  11.312  11.213  18.144 -0.1021 -0.0614  0.2524
 1592POPS   C4A19100  11.467  11.055  17.709  0.1333 -0.4173 -0.3504
 1592POPS   C1B19101  11.779  11.649  18.753  0.1306 -0.0950 -0.5187
 1592POPS   C2B19102  11.715  11.456  18.362 -0.0072  0.2452  0.2135
 1592POPS   C3B19103  11.882  11.196  17.983  0.0195 -0.2754  0.2005
 1592POPS   C4B19104  12.115  11.128  17.639  0.2456  0.1527 -0.0351
 1593POPS   CNO19105  17.300  11.628  19.489  0.1268 -0.2405 -0.1729
 1593POPS   PO419106  17.631  11.753  19.345  0.2497 -0.2059  0.0325
 1593POPS   GL119107  17.541  11.650  18.993 -0.0448  0.2277  0.2978
 1593POPS   GL219108  17.343  11.433  19.040  0.2246  0.0814 -0.1220
 1593POPS   C1A19109  17.403  11.557  18.556  0.0106  0.0054  0.0863
 1593POPS   D2A19110  17.136  11.351  18.188  0.0708 -0.1681 -0.0621
 1593POPS   C3A19111  17.202  10.973  18.009 -0.0134  0.2050  0.2486
 1593POPS   C4A19112  17.308  10.499  17.955 -0.0565 -0.0762  0.1440
 1593POPS   C1B19113  17.644  11.158  18.825  0.0511  0.4365 -0.1150
 1593POPS   C2B19114  18.084  11.042  18.814 -0.0219 -0.0470  0.1103
 1593POPS   C3B19115  18.433  11.208  18.614 -0.3333  0.0744 -0.1532
 1593POPS   C4B19116  18.887  11.080  18.503 -0.0892 -0.0982  0.2146
 1594POPS   CNO19117  14.945  18.416  19.219 -0.0977 -0.1614 -0.2671
 1594POPS   PO419118  15.016  18.235  18.891 -0.2985 -0.0832 -0.2342
 1594POPS   GL119119  15.053  18.074  18.560  0.0432 -0.1422  0.1627
 1594POPS   GL219120  14.791  18.054  18.494  0.1586  0.0226 -0.3004
 1594POPS   C1A19121  15.197  17.781  18.234  0.2334  0.0742 -0.1136
 1594POPS   D2A19122  15.321  17.341  18.059  0.2145 -0.1889  0.0037
 1594POPS   C3A19123  15.376  17.591  17.691 -0.0726 -0.1709 -0.3673
 1594POPS   C4A19124  15.449  17.570  17.264  0.1245 -0.0675  0.0841
 1594POPS   C1B19125  14.944  18.134  18.051 -0.2944  0.0194  0.2905
 1594POPS   C2B19126  14.888  18.147  17.605  0.1584 -0.1036  0.1193
 1594POPS   C3B19127  15.140  17.979  17.263 -0.0988  0.2500  0.0046
 1594POPS   C4B19128  15.179  17.774  16.873  0.0400 -0.0800  0.0747
 1595POPS   CNO19129  24.371  30.612  19.235  0.1107  0.1509  0.1797
 1595POPS   PO419130  24.433  30.973  19.196 -0.0003  0.2417 -0.0285
 1595POPS   GL119131  24.443  30.936  18.716 -0.2843 -0.0412  0.1880
 1595POPS   GL219132  24.181  30.771  18.771  0.0833  0.2072 -0.0164
 1595POPS   C1A19133  24.410  30.792  18.246  0.1340  0.2907  0.0968
 1595POPS   D2A19134  24.535  30.508  17.917 -0.0519 -0.2929  0.2437
 1595POPS   C3A19135  24.801  30.220  17.640 -0.0410 -0.0847  0.0102
 1595POPS   C4A19136  25.028  29.943  17.313 -0.1390 -0.0693  0.4411
 1595POPS   C1B19137  23.987  30.616  18.381 -0.0291 -0.0424  0.0818
 1595POPS   C2B19138  23.679  30.410  18.114 -0.2451 -0.2252 -0.1276
 1595POPS   C3B19139  23.221  30.306  18.113 -0.0890  0.2160 -0.2259
 1595POPS   C4B19140  22.792  30.398  18.193  0.0121  0.2670  0.1140
 1596POPS   CNO19141   6.914  31.042  19.786 -0.0759 -0.1014 -0.1278
 1596POPS   PO419142   6.899  31.157  19.463  0.1282  0.0797  0.1003
 1596POPS   GL119143   6.921  30.979  19.209  0.0390  0.1019 -0.0933
 1596POPS   GL219144   6.681  30.902  19.108 -0.1609  0.0443 -0.2431
 1596POPS   C1A19145   7.098  30.882  18.757  0.3497 -0.0570  0.2403
 1596POPS   D2A19146   7.469  30.855  18.522  0.1440 -0.3653  0.0356
 1596POPS   C3A19147   7.352  30.684  18.173  0.0622  0.4395 -0.1293
 1596POPS   C4A19148   7.292  30.506  17.711 -0.0429  0.1148  0.3233
 1596POPS   C1B19149   6.597  30.866  18.680 -0.1657 -0.1383 -0.3054
 1596POPS   C2B19150   6.547  30.658  18.263 -0.0498  0.3843 -0.1445
 1596POPS   C3B19151   6.514  30.517  17.833 -0.0650  0.0074  0.0635
 1596POPS   C4B19152   6.480  30.424  17.399  0.0032  0.4567  0.1650
 1597POPS   CNO19153   9.974  12.525  19.473 -0.1782  0.2466  0.0429
 1597POPS   PO419154  10.364  12.444  19.402  0.0248 -0.0399  0.1768
 1597POPS   GL119155  10.333  12.241  19.128 -0.2441  0.0743 -0.0359
 1597POPS   GL219156  10.481  12.452  18.940  0.0265 -0.0675 -0.0518
 1597POPS   C1A19157  10.078  12.225  18.732 -0.2013  0.0181  0.0286
 1597POPS   D2A19158   9.990  12.239  18.275  0.2129 -0.0365 -0.3033
 1597POPS   C3A19159  10.073  11.902  17.964 -0.0479 -0.0180  0.2460
 1597POPS   C4A19160  10.236  11.771  17.557  0.0231 -0.0218  0.1494
 1597POPS   C1B19161  10.477  12.356  18.485 -0.2632 -0.0104 -0.1621
 1597POPS   C2B19162  10.434  12.278  18.029  0.0160  0.1758  0.2824
 1597POPS   C3B19163  10.090  12.344  17.735 -0.0343  0.2606 -0.2837
 1597POPS   C4B19164   9.665  12.364  17.865 -0.0030  0.1497 -0.2303
 1598POPS   CNO19165  24.178   3.198  19.605  0.0592  0.1799  0.3161
 1598POPS   PO419166  23.954   3.105  19.293  0.1315 -0.0033 -0.0500
 1598POPS   GL119167  24.007   3.200  18.983  0.6161  0.0307 -0.0438
 1598POPS   GL219168  23.757   3.437  18.889 -0.1504 -0.1454  0.0767
 1598POPS   C1A19169  24.347   3.184  18.636 -0.3655 -0.0184  0.2092
 1598POPS   D2A19170  24.632   3.188  18.253 -0.5331 -0.0725 -0.0612
 1598POPS   C3A19171  24.781   3.481  17.969 -0.0694 -0.2010  0.0304
 1598POPS   C4A19172  24.703   3.571  17.516 -0.1603 -0.2024 -0.1249
 1598POPS   C1B19173  23.884   3.205  18.535  0.0676 -0.1042  0.1910
 1598POPS   C2B19174  24.145   3.067  18.134 -0.2389  0.3126  0.0553
 1598POPS   C3B19175  24.458   3.023  17.834  0.1506 -0.0176  0.1009
 1598POPS   C4B19176  24.878   2.955  17.703  0.0892  0.0429  0.0670
 1599POPS   CNO19177  30.422  26.129  19.204 -0.2421 -0.2978 -0.2555
 1599POPS   PO419178  30.145  26.374  19.301 -0.0575  0.1321  0.0660
 1599POPS   GL119179  30.317  26.546  18.937 -0.0473  0.0882  0.1277
 1599POPS   GL219180  30.420  26.286  18.780  0.0747 -0.0375  0.3281
 1599POPS   C1A19181  30.332  26.645  18.481 -0.4178  0.1282  0.0612
 1599POPS   D2A19182  30.513  26.918  18.155 -0.0862  0.2985  0.2867
 1599POPS   C3A19183  30.307  27.076  17.728  0.1928 -0.1235  0.2614
 1599POPS   C4A19184  30.336  27.380  17.351  0.2269  0.2224 -0.1980
 1599POPS   C1B19185  30.504  26.179  18.282 -0.0841 -0.0976  0.0801
 1599POPS   C2B19186  30.641  26.423  17.924  0.0552 -0.2338 -0.1758
 1599POPS   C3B19187  30.814  26.774  17.660 -0.0642 -0.1365 -0.1992
 1599POPS   C4B19188  30.829  27.209  17.383 -0.1887 -0.3380 -0.0468
 1600POPS   CNO19189   3.195  14.269  19.924 -0.0303  0.0189  0.0126
 1600POPS   PO419190   3.052  14.462  19.622  0.2091 -0.1469  0.0715
 1600POPS   GL119191   2.818  14.222  19.308  0.4979 -0.1029 -0.3981
 1600POPS   GL219192   2.605  14.332  19.306  0.2910  0.2064 -0.1532
 1600POPS   C1A19193   2.903  13.998  18.934  0.1129 -0.0942 -0.0105
 1600POPS   D2A19194   2.902  13.700  18.576 -0.3194  0.0813  0.0359
 1600POPS   C3A19195   3.193  13.335  18.453  0.2217 -0.3777 -0.0969
 1600POPS   C4A19196   3.531  13.073  18.703 -0.2199 -0.0797  0.0258
 1600POPS   C1B19197   2.531  13.848  19.272 -0.0186 -0.3898 -0.0851
 1600POPS   C2B19198   2.135  13.580  19.259 -0.5388  0.1405  0.0443
 1600POPS   C3B19199   1.680  13.649  19.174 -0.0917 -0.2564  0.0889
 1600POPS   C4B19200   1.313  13.719  19.344 -0.2155  0.0178  0.0355
 1601POPS   CNO19201  24.419  24.931  19.784  0.2686 -0.2760 -0.2491
 1601POPS   PO419202  24.367  24.734  19.452 -0.0822 -0.1506  0.2864
 1601POPS   GL119203  24.220  24.876  19.080  0.2363 -0.0331  0.5932
 1601POPS   GL219204  24.404  24.695  18.932 -0.2792  0.2074  0.3094
 1601POPS   C1A19205  24.259  25.297  18.808 -0.2639 -0.2892  0.1757
 1601POPS   D2A19206  23.999  25.563  18.567 -0.1031  0.0985  0.2902
 1601POPS   C3A19207  24.147  25.905  18.268 -0.0166 -0.0951 -0.0478
 1601POPS   C4A19208  24.315  26.300  18.138  0.0623  0.0764 -0.3646
 1601POPS   C1B19209  24.089  24.874  18.645  0.0678  0.2311  0.0867
 1601POPS   C2B19210  24.084  25.152  18.274  0.0519 -0.1432 -0.2779
 1601POPS   C3B19211  23.941  25.132  17.838 -0.3238 -0.1816  0.3441
 1601POPS   C4B19212  23.656  25.462  17.626 -0.1622 -0.0246 -0.1606
 1602POPS   CNO19213   6.254  19.825  19.323  0.3311 -0.2088  0.0718
 1602POPS   PO419214   6.403  19.497  19.418  0.0805 -0.1026  0.0924
 1602POPS   GL119215   6.298  19.486  18.957  0.0251  0.0385  0.2378
 1602POPS   GL219216   6.083  19.743  18.872 -0.0363  0.0927  0.0415
 1602POPS   C1A19217   6.566  19.617  18.588 -0.0066 -0.2014 -0.0816
 1602POPS   D2A19218   6.474  19.687  18.127 -0.5067 -0.0835 -0.0263
 1602POPS   C3A19219   6.757  19.983  17.861 -0.0670 -0.0839 -0.1571
 1602POPS   C4A19220   6.780  20.239  17.453 -0.1685  0.4466  0.1850
 1602POPS   C1B19221   6.326  20.071  18.574 -0.0485  0.3608  0.1186
 1602POPS   C2B19222   6.456  20.478  18.384 -0.0148  0.0818 -0.2043
 1602POPS   C3B19223   6.544  20.939  18.439  0.0820 -0.0841  0.1075
 1602POPS   C4B19224   6.353  21.360  18.601 -0.0785  0.0463  0.0126
 1603POPS   CNO19225  27.546  18.852  19.113 -0.0173  0.1274  0.1692
 1603POPS   PO419226  27.756  19.177  19.227  0.1498 -0.0739 -0.0559
 1603POPS   GL119227  27.543  19.214  18.814 -0.1772  0.1899  0.1655
 1603POPS   GL219228  27.388  19.430  18.805  0.2640  0.3943 -0.0832
 1603POPS   C1A19229  27.624  19.145  18.333  0.2746  0.1398  0.2276
 1603POPS   D2A19230  27.462  19.208  17.928 -0.1026  0.0477 -0.0912
 1603POPS   C3A19231  27.151  19.068  17.668  0.3011 -0.3448  0.0400
 1603POPS   C4A19232  26.859  18.940  17.347 -0.0857  0.0471  0.1699
 1603POPS   C1B19233  27.702  19.644  18.571 -0.1241 -0.0913  0.2647
 1603POPS   C2B19234  27.851  19.578  18.144 -0.1403  0.1217 -0.0764
 1603POPS   C3B19235  27.842  19.649  17.700 -0.1204  0.2509  0.0876
 1603POPS   C4B19236  27.917  19.678  17.260 -0.0660 -0.1342 -0.1528
 1604POPS   CNO19237  10.280  14.079  20.025 -0.3930 -0.2324 -0.3271
 1604POPS   PO419238  10.169  14.132  19.658 -0.1284 -0.1235  0.0086
 1604POPS   GL119239   9.994  14.168  19.232 -0.3315 -0.0799  0.0397
 1604POPS   GL219240   9.854  13.999  19.258  0.0783 -0.1602 -0.0375
 1604POPS   C1A19241  10.130  14.063  18.841  0.0127  0.1390 -0.4692
 1604POPS   D2A19242  10.295  14.023  18.437 -0.1251 -0.3291  0.1110
 1604POPS   C3A19243  10.242  13.692  18.166  0.0312  0.5307 -0.0141
 1604POPS   C4A19244  10.065  13.758  17.777  0.1378  0.0831  0.3064
 1604POPS   C1B19245   9.696  14.258  18.894  0.1284  0.1678  0.0591
 1604POPS   C2B19246   9.793  14.127  18.463  0.0152  0.1007 -0.1634
 1604POPS   C3B19247   9.769  14.076  18.057  0.1529  0.0658  0.1135
 1604POPS   C4B19248   9.720  14.379  17.716  0.1003  0.2669  0.1565
 1605POPS   CNO19249  22.173  23.739  19.184 -0.0353  0.3547  0.3687
 1605POPS   PO419250  22.567  23.760  19.223  0.0922 -0.1633 -0.1523
 1605POPS   GL119251  22.790  23.937  18.964 -0.2374 -0.1185 -0.1898
 1605POPS   GL219252  22.821  24.188  18.924 -0.0350 -0.1071 -0.5314
 1605POPS   C1A19253  22.739  23.700  18.540 -0.3378 -0.2609  0.1933
 1605POPS   D2A19254  22.789  23.908  18.128 -0.2490  0.0169 -0.3693
 1605POPS   C3A19255  22.758  24.307  17.914 -0.0150  0.2320  0.0496
 1605POPS   C4A19256  22.584  24.714  17.776  0.2126  0.1476  0.4413
 1605POPS   C1B19257  23.081  24.124  18.603 -0.1160 -0.4034 -0.3551
 1605POPS   C2B19258  23.150  24.338  18.214 -0.1757  0.0379  0.0882
 1605POPS   C3B19259  23.256  24.316  17.735  0.2386  0.0672  0.0436
 1605POPS   C4B19260  23.341  24.568  17.409  0.4880 -0.0476 -0.2177
 1606POPS   CNO19261  26.051  18.740  19.871  0.0200  0.1738 -0.1786
 1606POPS   PO419262  25.928  19.010  19.685  0.1083 -0.1081 -0.1139
 1606POPS   GL119263  26.028  19.082  19.264 -0.6267 -0.0829 -0.1482
 1606POPS   GL219264  25.994  19.288  19.031 -0.2039  0.1096 -0.2981
 1606POPS   C1A19265  26.486  19.101  19.032  0.0035  0.0625 -0.1682
 1606POPS   D2A19266  26.870  19.013  18.810  0.1744 -0.1926  0.3139
 1606POPS   C3A19267  26.853  18.909  18.342  0.1655  0.0999  0.1161
 1606POPS   C4A19268  26.850  18.782  17.900  0.0912  0.1850  0.0923
 1606POPS   C1B19269  26.062  19.130  18.604 -0.0023  0.0350  0.1676
 1606POPS   C2B19270  25.959  19.124  18.072  0.2894 -0.0618  0.4466
 1606POPS   C3B19271  25.816  19.055  17.606  0.0542  0.3180 -0.0142
 1606POPS   C4B19272  26.007  18.873  17.235 -0.2998 -0.0664  0.0027
 1607POPS   CNO19273  28.058   6.870  19.113  0.0153  0.1466 -0.2305
 1607POPS   PO419274  27.797   6.601  19.136 -0.2015 -0.0496  0.1424
 1607POPS   GL119275  27.772   6.697  18.766 -0.1002  0.0177 -0.0379
 1607POPS   GL219276  27.701   6.504  18.590 -0.1834 -0.2506 -0.0076
 1607POPS   C1A19277  28.018   7.033  18.570  0.0706 -0.1949  0.0543
 1607POPS   D2A19278  27.932   7.301  18.172 -0.1545  0.1259 -0.2498
 1607POPS   C3A19279  27.810   7.455  17.816  0.0881  0.0666  0.0755
 1607POPS   C4A19280  27.669   7.470  17.431  0.2210  0.0581 -0.0146
 1607POPS   C1B19281  27.814   6.389  18.187  0.0884 -0.1147 -0.2176
 1607POPS   C2B19282  27.887   6.350  17.701 -0.1445  0.1066 -0.1797
 1607POPS   C3B19283  27.733   6.135  17.351  0.0373 -0.2424 -0.1302
 1607POPS   C4B19284  27.777   6.064  16.904  0.0013  0.0374 -0.2002
 1608POPS   CNO19285   0.340   8.332  19.418  0.1063 -0.1449 -0.0878
 1608POPS   PO419286   0.227   8.166  19.058  0.4305  0.0798 -0.1773
 1608POPS   GL119287   0.409   8.292  18.663 -0.2996 -0.3750 -0.4187
 1608POPS   GL219288   0.289   8.550  18.692  0.2225  0.0342  0.1771
 1608POPS   C1A19289   0.374   8.203  18.211  0.1318 -0.1377 -0.0384
 1608POPS   D2A19290   0.375   8.166  17.745 -0.2941  0.1817  0.1650
 1608POPS   C3A19291   0.744   8.046  17.548  0.1997  0.0761  0.1602
 1608POPS   C4A19292   0.973   7.655  17.559  0.1617 -0.0004 -0.0991
 1608POPS   C1B19293   0.164   8.978  18.574  0.1340 -0.1167 -0.3110
 1608POPS   C2B19294  -0.061   9.317  18.376  0.0208 -0.1469 -0.0292
 1608POPS   C3B19295  -0.233   9.349  17.945 -0.3610  0.0814  0.0232
 1608POPS   C4B19296  -0.442   9.267  17.507 -0.1098  0.0136 -0.0259
 1609POPS   CNO19297   0.934   7.309  18.949 -0.1055  0.0959 -0.1185
 1609POPS   PO419298   0.639   7.416  19.164  0.1756 -0.0432  0.0763
 1609POPS   GL119299   0.444   7.327  18.935 -0.3695 -0.0529  0.0772
 1609POPS   GL219300   0.190   7.236  18.834 -0.0246  0.3058  0.1743
 1609POPS   C1A19301   0.508   7.335  18.457 -0.0287  0.0660  0.0933
 1609POPS   D2A19302   0.443   7.233  18.059 -0.1383  0.0203 -0.1842
 1609POPS   C3A19303   0.251   6.856  18.081  0.0257 -0.0346 -0.0133
 1609POPS   C4A19304  -0.025   6.606  18.383  0.1603  0.1803 -0.0281
 1609POPS   C1B19305   0.019   7.162  18.450  0.0657  0.0831  0.1369
 1609POPS   C2B19306  -0.061   7.304  17.999 -0.0766  0.0886 -0.2083
 1609POPS   C3B19307   0.150   7.099  17.651  0.2897  0.1077  0.0941
 1609POPS   C4B19308   0.608   6.987  17.642 -0.2984  0.0627 -0.1118
 1610POPS   CNO19309  28.271  31.455  19.538  0.0070  0.1060  0.0754
 1610POPS   PO419310  28.004  31.463  19.246  0.1840 -0.0281  0.4617
 1610POPS   GL119311  28.053  31.582  18.855 -0.0205  0.1979 -0.0473
 1610POPS   GL219312  28.339  31.590  18.815 -0.1548  0.4073 -0.0939
 1610POPS   C1A19313  27.785  31.649  18.528 -0.0403  0.2888  0.0217
 1610POPS   D2A19314  27.606  31.825  18.213 -0.1555  0.2164  0.2826
 1610POPS   C3A19315  27.722  31.894  17.802 -0.0296  0.1370 -0.1073
 1610POPS   C4A19316  27.621  31.688  17.398  0.1103  0.2516  0.1873
 1610POPS   C1B19317  28.629  31.605  18.459 -0.1333  0.1600 -0.0321
 1610POPS   C2B19318  28.495  31.536  18.029 -0.1724 -0.1705  0.3588
 1610POPS   C3B19319  28.591  31.628  17.580  0.0731 -0.0093 -0.3203
 1610POPS   C4B19320  28.450  31.560  17.129  0.1373 -0.1336  0.1241
 1611POPS   CNO19321  20.895  13.144  19.469 -0.0921  0.1135  0.1515
 1611POPS   PO419322  20.553  13.038  19.536 -0.1050 -0.3000 -0.0417
 1611POPS   GL119323  20.580  12.870  19.149  0.1067 -0.3171 -0.2339
 1611POPS   GL219324  20.627  13.081  19.016  0.1299 -0.0059  0.3774
 1611POPS   C1A19325  20.503  12.521  18.861  0.1081  0.1121 -0.1234
 1611POPS   D2A19326  20.352  12.350  18.483  0.1609  0.2550  0.0087
 1611POPS   C3A19327  20.467  12.304  18.053  0.2064 -0.1445  0.2645
 1611POPS   C4A19328  20.129  12.158  17.713  0.0359  0.2126  0.2004
 1611POPS   C1B19329  20.455  12.950  18.576  0.1205  0.0688  0.1399
 1611POPS   C2B19330  20.283  12.748  18.219  0.4256  0.0290 -0.1158
 1611POPS   C3B19331  19.971  12.420  18.051 -0.2568  0.0248 -0.0301
 1611POPS   C4B19332  19.534  12.445  17.923 -0.1589 -0.1562  0.1232
 1612POPS   CNO19333  13.042  22.655  19.658 -0.0460  0.1396  0.0262
 1612POPS   PO419334  13.127  22.728  19.322  0.0022  0.2537  0.2138
 1612POPS   GL119335  13.248  22.739  18.982  0.1389  0.2638 -0.0826
 1612POPS   GL219336  13.532  22.600  18.966  0.2958  0.0471 -0.1743
 1612POPS   C1A19337  13.068  22.971  18.611  0.4656 -0.2668 -0.1545
 1612POPS   D2A19338  13.188  22.952  18.167  0.0158 -0.3801  0.1399
 1612POPS   C3A19339  13.183  22.941  17.688 -0.0129 -0.1342  0.1133
 1612POPS   C4A19340  13.088  22.975  17.269 -0.1320 -0.1556  0.4908
 1612POPS   C1B19341  13.247  22.488  18.578 -0.0657 -0.0018 -0.0286
 1612POPS   C2B19342  13.235  22.520  18.119  0.1818 -0.1185 -0.0402
 1612POPS   C3B19343  13.264  22.373  17.629 -0.2949  0.0399  0.1249
 1612POPS   C4B19344  13.281  22.248  17.128 -0.0255 -0.0366  0.3522
 1613POPS   CNO19345   8.748  21.152  19.791  0.3657 -0.1534 -0.0493
 1613POPS   PO419346   8.563  21.020  20.104 -0.2045 -0.1202 -0.1045
 1613POPS   GL119347   8.403  21.373  20.018 -0.1621  0.0189 -0.4735
 1613POPS   GL219348   8.510  21.608  20.252  0.4081 -0.0351  0.1027
 1613POPS   C1A19349   8.042  21.671  19.964 -0.4657 -0.2060 -0.0435
 1613POPS   D2A19350   7.608  21.696  19.868  0.1486 -0.0160  0.3292
 1613POPS   C3A19351   7.379  22.060  19.722  0.1224  0.2842  0.3319
 1613POPS   C4A19352   7.060  22.333  19.726  0.0278 -0.0562  0.0411
 1613POPS   C1B19353   8.109  21.788  20.455  0.0890  0.1210 -0.0960
 1613POPS   C2B19354   7.670  22.014  20.487  0.1597 -0.3657  0.2270
 1613POPS   C3B19355   7.480  22.387  20.276 -0.0241  0.0437  0.0475
 1613POPS   C4B19356   7.699  22.685  19.966  0.1106 -0.1791  0.2898
 1614POPS   CNO19357   7.860  20.211  19.946 -0.1101  0.0560  0.0457
 1614POPS   PO419358   7.661  20.434  19.695  0.2027 -0.0678 -0.0857
 1614POPS   GL119359   7.644  20.619  19.301 -0.3053 -0.1545 -0.1334
 1614POPS   GL219360   7.640  20.384  19.138  0.1269  0.0836  0.1292
 1614POPS   C1A19361   7.826  20.835  18.941  0.1294 -0.1086 -0.1625
 1614POPS   D2A19362   7.900  21.252  18.762 -0.0959  0.2341 -0.1860
 1614POPS   C3A19363   7.557  21.559  18.722  0.0990 -0.2342  0.0861
 1614POPS   C4A19364   7.276  21.673  18.365 -0.0655 -0.1235 -0.0275
 1614POPS   C1B19365   7.914  20.370  18.768  0.0308  0.0667  0.1640
 1614POPS   C2B19366   7.970  20.579  18.333 -0.0813  0.0656 -0.0078
 1614POPS   C3B19367   7.761  20.812  18.003  0.0717  0.1038 -0.0102
 1614POPS   C4B19368   7.427  20.810  17.713  0.2573 -0.2206  0.0907
 1615POPS   CNO19369  16.605  15.056  19.680 -0.1839 -0.1783 -0.1864
 1615POPS   PO419370  16.966  14.889  19.566 -0.0401  0.1250  0.0989
 1615POPS   GL119371  17.041  15.136  19.185  0.0789 -0.2205  0.3616
 1615POPS   GL219372  17.341  15.199  19.292  0.1882  0.1855  0.0395
 1615POPS   C1A19373  16.971  15.222  18.692 -0.1527  0.1886  0.0210
 1615POPS   D2A19374  16.953  15.318  18.272 -0.1266  0.0337 -0.1594
 1615POPS   C3A19375  16.654  15.193  18.015  0.3307 -0.1757 -0.0054
 1615POPS   C4A19376  16.625  14.823  17.772  0.1314  0.1648  0.1424
 1615POPS   C1B19377  17.379  15.331  18.894 -0.0253  0.4731 -0.1017
 1615POPS   C2B19378  17.389  15.502  18.430 -0.0958 -0.3320  0.0084
 1615POPS   C3B19379  17.269  15.649  18.023 -0.1362  0.3522 -0.2276
 1615POPS   C4B19380  17.147  15.398  17.690  0.1144  0.0392  0.1530
 1616POPS   CNO19381  23.209  22.089  19.385 -0.1742 -0.1579  0.0459
 1616POPS   PO419382  23.280  21.730  19.283  0.2189  0.1214  0.0368
 1616POPS   GL119383  23.057  21.546  18.958  0.1912 -0.1946 -0.1648
 1616POPS   GL219384  23.279  21.352  18.790  0.1892 -0.1376  0.0517
 1616POPS   C1A19385  22.868  21.420  18.516  0.0148  0.1686 -0.1696
 1616POPS   D2A19386  22.801  21.404  18.112  0.1275  0.0005 -0.0967
 1616POPS   C3A19387  22.683  20.968  18.023  0.0953  0.0125  0.0486
 1616POPS   C4A19388  22.596  20.616  18.229 -0.2221 -0.2613  0.4632
 1616POPS   C1B19389  23.234  21.147  18.320  0.0427  0.2379  0.1235
 1616POPS   C2B19390  23.124  20.711  18.179 -0.1591  0.1050  0.1511
 1616POPS   C3B19391  23.087  20.638  17.706  0.1378 -0.0698  0.0586
 1616POPS   C4B19392  22.804  20.507  17.364 -0.1034 -0.1997 -0.1896
 1617POPS   CNO19393  14.265   1.463  19.449 -0.0813  0.2678 -0.2145
 1617POPS   PO419394  14.146   1.513  19.090 -0.2950 -0.1585 -0.2383
 1617POPS   GL119395  14.211   1.553  18.761 -0.3176  0.3408  0.0798
 1617POPS   GL219396  14.445   1.655  18.681 -0.1277  0.0569  0.1329
 1617POPS   C1A19397  13.850   1.750  18.406 -0.2309  0.0399 -0.0567
 1617POPS   D2A19398  13.794   1.907  17.956  0.4556  0.2353  0.0363
 1617POPS   C3A19399  13.654   2.276  17.796 -0.2644  0.3782 -0.4553
 1617POPS   C4A19400  13.348   2.477  17.546  0.1743 -0.1302  0.0113
 1617POPS   C1B19401  14.603   1.594  18.280  0.1584 -0.2637 -0.2248
 1617POPS   C2B19402  14.757   1.497  17.896  0.0288  0.1182 -0.1235
 1617POPS   C3B19403  14.648   1.350  17.497  0.1160 -0.3335  0.2439
 1617POPS   C4B19404  14.592   1.537  17.034 -0.2568  0.3486 -0.5466
 1618POPS   CNO19405  27.554  30.913  19.233 -0.1151  0.0791 -0.3241
 1618POPS   PO419406  27.385  30.730  18.959  0.1775 -0.1828  0.1586
 1618POPS   GL119407  27.302  30.619  18.561  0.0685  0.0456 -0.0413
 1618POPS   GL219408  27.522  30.776  18.472  0.0393  0.2982  0.0658
 1618POPS   C1A19409  27.013  30.460  18.223 -0.2379  0.0583  0.0554
 1618POPS   D2A19410  26.800  30.592  17.809 -0.1828  0.0305 -0.2974
 1618POPS   C3A19411  26.694  30.878  17.499  0.2855 -0.0839 -0.0655
 1618POPS   C4A19412  26.340  31.106  17.258  0.1163 -0.3821 -0.2608
 1618POPS   C1B19413  27.610  30.912  18.038  0.1484 -0.4083 -0.1663
 1618POPS   C2B19414  27.716  30.749  17.632 -0.0890  0.0456  0.0971
 1618POPS   C3B19415  27.613  30.721  17.166  0.0031  0.2783  0.1321
 1618POPS   C4B19416  27.727  30.764  16.714  0.0957  0.4044  0.2071
 1619POPS   CNO19417  23.789  30.977  19.491 -0.3829 -0.3908 -0.2287
 1619POPS   PO419418  23.865  30.816  19.142 -0.1867  0.2376 -0.0839
 1619POPS   GL119419  23.700  31.027  18.745  0.0283 -0.0191  0.2053
 1619POPS   GL219420  23.566  31.206  18.927  0.1601  0.1935 -0.1083
 1619POPS   C1A19421  23.579  30.804  18.372  0.5591 -0.0942 -0.3058
 1619POPS   D2A19422  23.311  30.749  17.978  0.1426 -0.0717 -0.1446
 1619POPS   C3A19423  23.212  31.132  17.754 -0.2759  0.0338 -0.0586
 1619POPS   C4A19424  22.792  31.292  17.768  0.0788  0.1984 -0.0494
 1619POPS   C1B19425  23.390  31.330  18.470 -0.4633  0.1835 -0.2295
 1619POPS   C2B19426  23.616  31.286  18.094  0.0899  0.1399  0.2804
 1619POPS   C3B19427  23.747  30.921  17.833 -0.2774 -0.2111  0.2119
 1619POPS   C4B19428  24.079  30.617  17.741  0.0315 -0.2588 -0.2839
 1620POPS   CNO19429  19.792  23.221  19.377 -0.0604  0.0672  0.0146
 1620POPS   PO419430  19.766  23.450  19.102  0.1030 -0.1607 -0.0415
 1620POPS   GL119431  19.848  23.111  18.844  0.3086  0.1936 -0.0894
 1620POPS   GL219432  20.094  23.099  18.850 -0.1972 -0.4552  0.0050
 1620POPS   C1A19433  19.780  22.908  18.444 -0.2993  0.2522 -0.0342
 1620POPS   D2A19434  19.632  22.790  18.050 -0.2967  0.1657  0.3309
 1620POPS   C3A19435  19.421  22.872  17.677  0.1329 -0.0703  0.2643
 1620POPS   C4A19436  19.072  23.062  17.418  0.2816 -0.0231 -0.2406
 1620POPS   C1B19437  20.300  23.238  18.484 -0.0293 -0.1053  0.1616
 1620POPS   C2B19438  20.275  23.539  18.143 -0.0603  0.2005 -0.3830
 1620POPS   C3B19439  20.200  23.537  17.635  0.2815 -0.1542 -0.2473
 1620POPS   C4B19440  20.136  23.447  17.234  0.1557 -0.1306  0.0034
 1621POPS   CNO19441  29.048  11.813  19.403  0.0077  0.0253  0.2575
 1621POPS   PO419442  29.264  11.468  19.465 -0.0181 -0.3403 -0.2063
 1621POPS   GL119443  29.491  11.710  19.189  0.0640  0.0855 -0.1440
 1621POPS   GL219444  29.745  11.726  19.003 -0.0764 -0.1853  0.0696
 1621POPS   C1A19445  29.375  11.701  18.675 -0.0159  0.4821  0.2885
 1621POPS   D2A19446  29.216  11.549  18.289  0.2724 -0.0497 -0.1219
 1621POPS   C3A19447  29.129  11.759  17.888  0.0772  0.0188 -0.0295
 1621POPS   C4A19448  28.976  12.034  17.582 -0.0495 -0.1691  0.0851
 1621POPS   C1B19449  29.922  11.692  18.595 -0.4900 -0.0935 -0.1153
 1621POPS   C2B19450  30.082  11.711  18.153 -0.0323 -0.1260  0.0252
 1621POPS   C3B19451  30.030  11.735  17.681 -0.0313  0.1044 -0.1825
 1621POPS   C4B19452  29.992  11.936  17.226 -0.2512 -0.3072 -0.2911
 1622POPS   CNO19453   8.459   8.703  19.398 -0.1809  0.0515  0.1063
 1622POPS   PO419454   8.345   8.748  19.040  0.0550  0.2018 -0.2734
 1622POPS   GL119455   8.734   8.812  19.024 -0.1344 -0.0764 -0.0391
 1622POPS   GL219456   8.859   8.603  19.164 -0.2171  0.0609 -0.1111
 1622POPS   C1A19457   8.770   8.943  18.587 -0.1181 -0.1447 -0.0155
 1622POPS   D2A19458   8.992   8.835  18.168  0.0571  0.1088 -0.1523
 1622POPS   C3A19459   8.978   8.787  17.716 -0.0377 -0.0841 -0.2771
 1622POPS   C4A19460   8.911   8.877  17.215 -0.1974  0.2821 -0.2274
 1622POPS   C1B19461   8.940   8.444  18.718  0.2165 -0.2032 -0.1940
 1622POPS   C2B19462   9.237   8.312  18.433  0.0962  0.0026  0.0488
 1622POPS   C3B19463   9.556   8.081  18.252 -0.1209 -0.1388 -0.0102
 1622POPS   C4B19464   9.535   7.983  17.791 -0.3568  0.0533 -0.1835
 1623POPS   CNO19465  15.610  26.875  20.121  0.2449  0.0417  0.0355
 1623POPS   PO419466  15.550  27.099  19.838 -0.0030 -0.1725 -0.0594
 1623POPS   GL119467  15.642  27.305  19.484  0.1139 -0.1027  0.1908
 1623POPS   GL219468  15.389  27.233  19.311  0.0001  0.1123 -0.0976
 1623POPS   C1A19469  15.829  27.175  19.076  0.0400 -0.1500  0.0426
 1623POPS   D2A19470  16.118  26.948  18.834  0.1435  0.0645  0.0407
 1623POPS   C3A19471  16.073  27.100  18.404 -0.0232  0.0838  0.2790
 1623POPS   C4A19472  16.153  27.280  18.000 -0.0278 -0.5519  0.1220
 1623POPS   C1B19473  15.273  27.181  18.839  0.1923 -0.0499  0.1462
 1623POPS   C2B19474  15.241  27.161  18.369  0.1088  0.0104  0.1008
 1623POPS   C3B19475  15.207  26.728  18.182  0.1368  0.0225 -0.2422
 1623POPS   C4B19476  15.072  26.324  18.379  0.0014  0.2551 -0.0495
 1624POPS   CNO19477  12.169  30.727  19.861  0.1316 -0.0463 -0.0174
 1624POPS   PO419478  11.994  30.535  19.620  0.3264 -0.0216  0.2334
 1624POPS   GL119479  11.735  30.545  19.287  0.1749  0.3406  0.0699
 1624POPS   GL219480  11.862  30.621  19.021  0.0595  0.0822  0.0908
 1624POPS   C1A19481  11.396  30.572  18.903  0.0999 -0.1230 -0.0843
 1624POPS   D2A19482  11.225  30.772  18.555  0.5556  0.1842 -0.0149
 1624POPS   C3A19483  11.194  30.932  18.145 -0.1096 -0.0791  0.0378
 1624POPS   C4A19484  11.118  31.140  17.768  0.2722  0.0244 -0.1670
 1624POPS   C1B19485  11.820  30.400  18.609  0.0123 -0.0050 -0.3222
 1624POPS   C2B19486  11.597  30.500  18.255  0.1062  0.1905  0.1423
 1624POPS   C3B19487  11.623  30.194  17.865 -0.0228 -0.1848 -0.2014
 1624POPS   C4B19488  11.413  29.994  17.553 -0.1638 -0.2495  0.1935
 1625POPS   CNO19489  10.060   5.755  19.199  0.1956 -0.0094 -0.2078
 1625POPS   PO419490   9.960   6.112  19.331  0.0606 -0.3268 -0.0820
 1625POPS   GL119491  10.164   6.305  19.008  0.3188 -0.1358  0.1168
 1625POPS   GL219492  10.175   6.542  19.101 -0.2506  0.1272 -0.0510
 1625POPS   C1A19493  10.223   6.333  18.553  0.2096  0.2169 -0.0231
 1625POPS   D2A19494  10.350   6.421  18.158  0.2254 -0.5355  0.1266
 1625POPS   C3A19495  10.673   6.279  17.880 -0.1953  0.1111 -0.2402
 1625POPS   C4A19496  10.949   6.032  17.585 -0.1276 -0.0668 -0.0619
 1625POPS   C1B19497   9.920   6.705  18.752  0.2189  0.1191  0.0348
 1625POPS   C2B19498  10.042   6.788  18.347  0.0113 -0.2408 -0.1390
 1625POPS   C3B19499  10.280   6.880  17.972  0.0852 -0.1247  0.2206
 1625POPS   C4B19500  10.377   6.645  17.583 -0.1328  0.1927 -0.0328
 1626POPS   CNO19501   3.281   8.589  19.506 -0.3651  0.0108  0.0307
 1626POPS   PO419502   3.515   8.467  19.226 -0.0733  0.3865  0.2010
 1626POPS   GL119503   3.392   8.477  18.822 -0.0740  0.1034 -0.0419
 1626POPS   GL219504   3.369   8.177  18.647  0.3152  0.0862 -0.0222
 1626POPS   C1A19505   3.566   8.645  18.452 -0.0295  0.3046  0.2243
 1626POPS   D2A19506   3.310   8.761  18.011  0.2703 -0.1018  0.0121
 1626POPS   C3A19507   2.937   8.732  17.771  0.1059  0.1235  0.2857
 1626POPS   C4A19508   2.792   8.693  17.365  0.2278 -0.1071  0.4653
 1626POPS   C1B19509   3.491   8.242  18.158  0.2945 -0.2455  0.0997
 1626POPS   C2B19510   3.625   8.088  17.770  0.3098 -0.2393 -0.0293
 1626POPS   C3B19511   3.855   8.272  17.461 -0.1801 -0.1957  0.1484
 1626POPS   C4B19512   4.146   8.655  17.516  0.4252  0.1742 -0.0652
 1627POPS   CNO19513   9.351  17.066  19.587  0.3286 -0.0858 -0.4284
 1627POPS   PO419514   9.376  17.013  19.210 -0.2684  0.0603 -0.0176
 1627POPS   GL119515   9.361  17.205  18.948 -0.2210 -0.0834  0.2022
 1627POPS   GL219516   9.591  17.397  18.932  0.3797  0.0097 -0.2380
 1627POPS   C1A19517   9.347  17.045  18.514 -0.3145  0.0061 -0.2949
 1627POPS   D2A19518   9.281  16.855  18.064 -0.0262  0.1511  0.1272
 1627POPS   C3A19519   9.112  16.432  18.120 -0.1020  0.2507  0.0627
 1627POPS   C4A19520   8.903  16.169  17.835  0.0761  0.2177  0.1593
 1627POPS   C1B19521   9.983  17.523  18.653 -0.0139  0.0205 -0.1255
 1627POPS   C2B19522   9.981  17.510  18.211 -0.1828  0.0492  0.1817
 1627POPS   C3B19523   9.897  17.541  17.785 -0.2274  0.2329 -0.0115
 1627POPS   C4B19524   9.879  17.242  17.356 -0.2238  0.1143 -0.1621
 1628POPS   CNO19525   7.639   0.257  19.785  0.1776  0.2659  0.0437
 1628POPS   PO419526   7.861   0.164  19.488  0.0668 -0.0993  0.1337
 1628POPS   GL119527   8.073   0.073  19.159  0.0782 -0.1818  0.0305
 1628POPS   GL219528   8.347   0.086  19.196 -0.1319 -0.3385  0.0206
 1628POPS   C1A19529   8.127   0.374  18.798 -0.0926 -0.0124  0.1759
 1628POPS   D2A19530   7.954   0.466  18.343  0.1162 -0.4216  0.0538
 1628POPS   C3A19531   7.969   0.707  17.953 -0.1036  0.0500  0.3310
 1628POPS   C4A19532   7.891   1.141  17.699  0.0442  0.2677  0.4153
 1628POPS   C1B19533   8.572   0.475  18.940 -0.2316  0.0322  0.0724
 1628POPS   C2B19534   8.866   0.790  18.716 -0.0926 -0.3231  0.4641
 1628POPS   C3B19535   9.183   0.996  18.373  0.4266 -0.1564  0.0856
 1628POPS   C4B19536   9.345   1.024  17.966 -0.1899 -0.0753 -0.0102
 1629POPS   CNO19537  13.871   8.630  19.099 -0.3511 -0.3029  0.2573
 1629POPS   PO419538  13.617   8.704  18.897  0.2147  0.0212  0.1193
 1629POPS   GL119539  13.562   8.775  18.505 -0.1302  0.1300  0.1008
 1629POPS   GL219540  13.398   8.590  18.444 -0.0068  0.1980  0.1218
 1629POPS   C1A19541  13.705   9.027  18.110 -0.1250 -0.1256 -0.1373
 1629POPS   D2A19542  13.578   9.080  17.683  0.0910  0.1117 -0.0305
 1629POPS   C3A19543  13.544   9.515  17.476  0.1399  0.1104 -0.1847
 1629POPS   C4A19544  13.771   9.620  17.091 -0.0683  0.1058  0.0395
 1629POPS   C1B19545  12.962   8.561  18.345 -0.1650 -0.3042 -0.3587
 1629POPS   C2B19546  12.479   8.585  18.396  0.1585 -0.2652 -0.2026
 1629POPS   C3B19547  12.207   8.409  18.125  0.0088 -0.1728  0.0335
 1629POPS   C4B19548  11.980   8.530  17.723 -0.3101  0.2815  0.3058
 1630POPS   CNO19549  14.817  19.723  19.536  0.0113 -0.2179  0.1065
 1630POPS   PO419550  14.708  19.972  19.228 -0.0132 -0.1627  0.2574
 1630POPS   GL119551  14.757  19.801  18.882 -0.0459  0.2296  0.0150
 1630POPS   GL219552  15.064  19.807  18.861  0.1787  0.3893 -0.0417
 1630POPS   C1A19553  14.774  19.943  18.400 -0.2232 -0.2266 -0.2736
 1630POPS   D2A19554  15.094  19.792  18.114 -0.0984 -0.1294 -0.0382
 1630POPS   C3A19555  14.984  19.916  17.704 -0.1215 -0.1602 -0.4978
 1630POPS   C4A19556  14.828  19.505  17.461  0.0420  0.2988 -0.1273
 1630POPS   C1B19557  15.384  19.959  18.514 -0.0349 -0.1108  0.4614
 1630POPS   C2B19558  15.579  20.023  18.107 -0.2462  0.1928  0.3641
 1630POPS   C3B19559  15.378  20.241  17.696 -0.1933 -0.0255  0.1467
 1630POPS   C4B19560  15.422  20.331  17.239 -0.0690  0.2364 -0.0481
 1631POPS   CNO19561   8.805  24.308  19.503  0.0316  0.2829  0.2852
 1631POPS   PO419562   8.616  24.224  19.175 -0.0556  0.0650 -0.2394
 1631POPS   GL119563   8.439  24.130  18.847 -0.0732 -0.4637  0.2503
 1631POPS   GL219564   8.542  24.301  18.676  0.1747 -0.2548  0.1398
 1631POPS   C1A19565   8.342  23.705  18.709  0.0516  0.1222 -0.1813
 1631POPS   D2A19566   8.185  23.306  18.537  0.0010  0.1025 -0.1328
 1631POPS   C3A19567   8.433  22.984  18.332 -0.0467  0.0912 -0.0256
 1631POPS   C4A19568   8.711  22.790  18.037 -0.0855  0.0867  0.0988
 1631POPS   C1B19569   8.511  24.018  18.301  0.1506 -0.2912 -0.2581
 1631POPS   C2B19570   8.283  23.678  18.147 -0.2417 -0.1348  0.2634
 1631POPS   C3B19571   8.237  23.240  17.989 -0.1036  0.2042  0.0921
 1631POPS   C4B19572   8.284  22.958  17.636 -0.2533  0.0330 -0.3071
 1632POPS   CNO19573   3.924  30.478  19.354  0.1815 -0.3370  0.0535
 1632POPS   PO419574   3.847  30.760  19.076  0.0664  0.1168 -0.0895
 1632POPS   GL119575   3.694  30.730  18.714  0.1482  0.1837  0.0202
 1632POPS   GL219576   3.963  30.748  18.577  0.1317  0.2713 -0.1571
 1632POPS   C1A19577   3.579  30.514  18.333  0.1978  0.0158  0.2632
 1632POPS   D2A19578   3.470  30.499  17.867  0.0450 -0.0832  0.0626
 1632POPS   C3A19579   3.134  30.695  17.672 -0.1412 -0.3406 -0.0114
 1632POPS   C4A19580   2.875  30.725  17.341  0.0046  0.3292  0.0346
 1632POPS   C1B19581   4.016  30.907  18.182  0.0840 -0.0374 -0.4343
 1632POPS   C2B19582   3.934  30.807  17.767 -0.2364 -0.0044  0.2037
 1632POPS   C3B19583   3.746  30.837  17.344  0.0938 -0.0801  0.3763
 1632POPS   C4B19584   3.369  30.703  17.212 -0.0669  0.4056 -0.0103
 1633POPS   CNO19585  21.301   1.392  19.350  0.1329  0.2059 -0.0254
 1633POPS   PO419586  21.148   1.159  19.073  0.1096  0.0581  0.1300
 1633POPS   GL119587  20.939   1.024  18.763 -0.1569 -0.2084 -0.0803
 1633POPS   GL219588  20.907   0.743  18.683 -0.0172  0.1107 -0.2191
 1633POPS   C1A19589  20.959   1.206  18.349  0.1171 -0.2255  0.0193
 1633POPS   D2A19590  20.629   1.382  18.139 -0.0517  0.1475  0.0501
 1633POPS   C3A19591  20.213   1.233  18.050  0.0883  0.0356  0.0732
 1633POPS   C4A19592  19.862   1.360  17.754  0.1021 -0.0726 -0.2956
 1633POPS   C1B19593  20.837   0.435  18.368  0.1046 -0.0370 -0.1845
 1633POPS   C2B19594  20.671   0.408  17.951  0.0351  0.1620  0.1158
 1633POPS   C3B19595  20.578   0.185  17.493  0.1687  0.1311  0.0801
 1633POPS   C4B19596  20.418   0.289  17.136  0.0426  0.1083 -0.0549
 1634POPS   CNO19597  31.211  12.444  19.870 -0.1473  0.2602 -0.2949
 1634POPS   PO419598  31.264  12.379  19.508  0.0453  0.0178 -0.2223
 1634POPS   GL119599  31.478  12.486  19.195 -0.2224 -0.2833 -0.2113
 1634POPS   GL219600  31.380  12.205  19.056  0.0440  0.0386  0.2432
 1634POPS   C1A19601  31.787  12.527  18.823  0.1968  0.1693 -0.0746
 1634POPS   D2A19602  31.956  12.630  18.443  0.1268  0.1285  0.1197
 1634POPS   C3A19603  31.669  12.694  18.129 -0.0915  0.1516  0.4589
 1634POPS   C4A19604  31.501  12.943  17.827  0.1990  0.1519  0.2128
 1634POPS   C1B19605  31.342  11.932  18.686  0.0935 -0.0828 -0.0337
 1634POPS   C2B19606  31.466  11.703  18.293 -0.1031 -0.0167  0.1134
 1634POPS   C3B19607  31.694  11.463  17.955 -0.1642  0.2012  0.0038
 1634POPS   C4B19608  31.458  11.419  17.555 -0.1495  0.0933  0.1902
 1635POPS   CNO19609   1.877  18.725  19.385  0.1559  0.2663 -0.2048
 1635POPS   PO419610   1.832  19.055  19.192 -0.3975  0.0196 -0.1158
 1635POPS   GL119611   1.841  19.024  18.848  0.1788  0.0472 -0.0018
 1635POPS   GL219612   2.000  19.243  18.690  0.2700 -0.0067 -0.0299
 1635POPS   C1A19613   1.519  19.077  18.478 -0.2928  0.1429 -0.1738
 1635POPS   D2A19614   1.358  18.996  18.051  0.1263 -0.0241  0.2690
 1635POPS   C3A19615   1.538  18.749  17.737 -0.2469  0.0120  0.0797
 1635POPS   C4A19616   1.710  18.726  17.297 -0.1960  0.4254 -0.0569
 1635POPS   C1B19617   2.354  19.067  18.491  0.5068 -0.2587 -0.0421
 1635POPS   C2B19618   2.507  19.115  18.052 -0.1123 -0.1542 -0.0573
 1635POPS   C3B19619   2.691  19.144  17.609  0.1750  0.2355 -0.1016
 1635POPS   C4B19620   2.882  19.253  17.174 -0.2050 -0.0006 -0.1268
 1636POPS   CNO19621  21.414  16.799  18.578  0.2564  0.0718  0.3708
 1636POPS   PO419622  21.422  16.877  18.932 -0.0934 -0.2765 -0.4591
 1636POPS   GL119623  21.618  17.215  18.987  0.2555  0.0028 -0.0628
 1636POPS   GL219624  21.879  17.285  18.862 -0.1334 -0.2603  0.0711
 1636POPS   C1A19625  21.773  17.514  19.331 -0.3533  0.1799 -0.0880
 1636POPS   D2A19626  22.076  17.736  19.580 -0.0250 -0.3390 -0.5326
 1636POPS   C3A19627  22.316  18.190  19.487 -0.2838 -0.2271 -0.0937
 1636POPS   C4A19628  22.445  18.469  19.206 -0.2698 -0.0822 -0.0382
 1636POPS   C1B19629  22.224  17.631  18.807  0.2739 -0.1819 -0.0482
 1636POPS   C2B19630  22.598  17.928  18.789 -0.1472 -0.1536 -0.0322
 1636POPS   C3B19631  22.831  18.127  19.191  0.2000 -0.2102  0.1634
 1636POPS   C4B19632  22.904  18.554  19.410  0.1277  0.3782  0.1193
 1637POPS   CNO19633  28.840   9.281  19.360 -0.3677  0.1867 -0.0272
 1637POPS   PO419634  29.162   9.319  19.157  0.2596  0.2890  0.0706
 1637POPS   GL119635  29.195   9.473  18.752  0.0487 -0.1383 -0.1428
 1637POPS   GL219636  29.103   9.746  18.756 -0.0724  0.1237 -0.0610
 1637POPS   C1A19637  29.536   9.412  18.439 -0.0346  0.0407 -0.1141
 1637POPS   D2A19638  29.808   9.393  18.029  0.1706  0.2082  0.3178
 1637POPS   C3A19639  30.126   9.103  17.758 -0.1548 -0.0422  0.1442
 1637POPS   C4A19640  30.470   9.258  17.384 -0.1133 -0.1108  0.3111
 1637POPS   C1B19641  28.892   9.389  18.426  0.1778  0.2343  0.1712
 1637POPS   C2B19642  28.799   9.387  17.938 -0.0512 -0.1582  0.2418
 1637POPS   C3B19643  28.891   9.188  17.558  0.0239  0.2288 -0.1062
 1637POPS   C4B19644  29.143   8.871  17.345 -0.0602 -0.0311 -0.0459
 1638POPS   CNO19645  24.639  18.223  20.151 -0.1475  0.1838  0.0859
 1638POPS   PO419646  24.339  18.268  20.394 -0.4036  0.0890  0.0746
 1638POPS   GL119647  23.961  18.250  20.510 -0.1994 -0.2321  0.1868
 1638POPS   GL219648  23.901  17.961  20.440  0.1192 -0.2067  0.0174
 1638POPS   C1A19649  23.508  18.361  20.434 -0.0950  0.0628  0.4337
 1638POPS   D2A19650  23.068  18.531  20.423 -0.3034  0.1758  0.1344
 1638POPS   C3A19651  22.721  18.392  20.734  0.1183  0.0289  0.3179
 1638POPS   C4A19652  22.467  18.051  20.973 -0.1705 -0.1866 -0.1379
 1638POPS   C1B19653  23.820  17.855  20.023 -0.0074  0.0873 -0.0798
 1638POPS   C2B19654  23.487  17.645  19.862  0.0989  0.2145  0.1564
 1638POPS   C3B19655  23.059  17.713  19.740 -0.2411  0.1303  0.0350
 1638POPS   C4B19656  22.554  17.674  19.627 -0.0700  0.2330  0.0061
 1639POPS   CNO19657  14.491   5.921  19.695 -0.0550 -0.0287  0.0130
 1639POPS   PO419658  14.253   6.022  19.410  0.1406 -0.2541 -0.0101
 1639POPS   GL119659  14.134   6.095  19.065  0.0858 -0.0498 -0.0734
 1639POPS   GL219660  13.889   6.197  19.014 -0.2773 -0.1570 -0.0434
 1639POPS   C1A19661  14.254   6.234  18.611 -0.1533 -0.0271 -0.1735
 1639POPS   D2A19662  14.297   6.324  18.171 -0.0237  0.1037  0.2329
 1639POPS   C3A19663  14.263   6.633  17.835 -0.0283  0.0500 -0.0175
 1639POPS   C4A19664  14.542   6.835  17.611 -0.2870  0.1245  0.0681
 1639POPS   C1B19665  13.685   5.897  18.778  0.0411 -0.0235  0.0024
 1639POPS   C2B19666  13.647   5.669  18.387  0.0866 -0.1574  0.0778
 1639POPS   C3B19667  13.523   5.375  18.137  0.3404 -0.1930 -0.2504
 1639POPS   C4B19668  13.528   5.252  17.702 -0.0086  0.1188 -0.1827
 1640POPS   CNO19669   3.805  15.500  19.509  0.0255 -0.0295  0.3400
 1640POPS   PO419670   3.849  15.860  19.347 -0.1554  0.1445  0.1788
 1640POPS   GL119671   3.900  15.644  18.979 -0.5731 -0.1487  0.5251
 1640POPS   GL219672   3.871  15.906  18.802  0.1335 -0.2662  0.2562
 1640POPS   C1A19673   3.728  15.518  18.585  0.0456  0.1600  0.0055
 1640POPS   D2A19674   3.789  15.554  18.118 -0.0292 -0.3266  0.0047
 1640POPS   C3A19675   3.971  15.453  17.705  0.3275 -0.0983 -0.3176
 1640POPS   C4A19676   3.753  15.206  17.414 -0.0937  0.0586  0.0787
 1640POPS   C1B19677   4.066  15.875  18.391  0.1507  0.0022 -0.1738
 1640POPS   C2B19678   4.278  15.727  18.004 -0.1305 -0.2379 -0.1541
 1640POPS   C3B19679   4.346  15.828  17.557 -0.0549 -0.1975  0.1372
 1640POPS   C4B19680   4.583  15.743  17.182  0.0979 -0.1724  0.0954
 1641POPS   CNO19681  11.878  22.183  19.461 -0.3532  0.0085  0.0190
 1641POPS   PO419682  12.257  22.156  19.477  0.4095 -0.2921 -0.4945
 1641POPS   GL119683  12.093  22.173  19.029  0.3882  0.2249  0.1996
 1641POPS   GL219684  12.093  21.879  18.969  0.0363  0.1137  0.1480
 1641POPS   C1A19685  11.904  22.394  18.610 -0.4687 -0.1708  0.1595
 1641POPS   D2A19686  11.974  22.573  18.196  0.1299 -0.1365  0.0471
 1641POPS   C3A19687  11.714  22.810  17.876 -0.0908 -0.0884  0.0358
 1641POPS   C4A19688  11.612  22.853  17.424 -0.1969 -0.0315  0.1311
 1641POPS   C1B19689  12.051  21.933  18.492  0.2057  0.2256  0.1277
 1641POPS   C2B19690  12.120  21.891  18.006  0.0195  0.1435 -0.1901
 1641POPS   C3B19691  11.922  21.920  17.588 -0.0791  0.3070  0.2116
 1641POPS   C4B19692  11.853  22.055  17.166 -0.1715 -0.2460 -0.0991
 1642POPS   CNO19693  24.124   7.718  19.580 -0.0670  0.1525 -0.1384
 1642POPS   PO419694  24.182   7.358  19.473  0.1006 -0.6680 -0.1922
 1642POPS   GL119695  23.879   7.422  19.165  0.1138  0.1935 -0.0604
 1642POPS   GL219696  23.569   7.538  19.083 -0.0921  0.0711  0.1032
 1642POPS   C1A19697  23.894   7.629  18.703  0.0473  0.1919  0.2904
 1642POPS   D2A19698  23.911   7.602  18.216 -0.1487 -0.0803 -0.2432
 1642POPS   C3A19699  23.981   7.753  17.795  0.0472  0.2905  0.2126
 1642POPS   C4A19700  24.097   7.860  17.357  0.1168  0.2483  0.1544
 1642POPS   C1B19701  23.372   7.557  18.644  0.1937 -0.0149 -0.0107
 1642POPS   C2B19702  23.290   7.570  18.189  0.2625  0.0513  0.0923
 1642POPS   C3B19703  23.290   7.674  17.757  0.0925 -0.6105  0.2304
 1642POPS   C4B19704  23.289   7.621  17.257  0.0330  0.0586  0.0798
 1643POPS   CNO19705   2.730  17.363  19.240  0.0736  0.3334 -0.0001
 1643POPS   PO419706   2.407  17.331  19.068 -0.1914 -0.0736  0.2775
 1643POPS   GL119707   2.464  17.322  18.667 -0.0109  0.1673 -0.1036
 1643POPS   GL219708   2.765  17.341  18.711 -0.0131  0.2337  0.0108
 1643POPS   C1A19709   2.137  17.529  18.371 -0.2092 -0.0127  0.0467
 1643POPS   D2A19710   1.948  17.341  17.964  0.0691 -0.1236 -0.1850
 1643POPS   C3A19711   1.736  17.420  17.545 -0.1873 -0.3619 -0.0207
 1643POPS   C4A19712   1.442  17.376  17.210 -0.5229 -0.0516  0.0773
 1643POPS   C1B19713   2.800  17.420  18.277  0.0101  0.1909 -0.0727
 1643POPS   C2B19714   2.888  17.266  17.833  0.1878  0.0083  0.1666
 1643POPS   C3B19715   2.934  17.228  17.415 -0.0764 -0.0590 -0.0372
 1643POPS   C4B19716   3.049  17.205  16.993 -0.0162 -0.2237 -0.1597
 1644POPS   CNO19717  18.596  13.602  19.703 -0.2307 -0.0504  0.2143
 1644POPS   PO419718  18.404  13.484  19.412  0.1139  0.0182  0.1369
 1644POPS   GL119719  18.396  13.511  18.962 -0.0693  0.2181  0.0485
 1644POPS   GL219720  18.678  13.521  18.824 -0.2880 -0.2828  0.2687
 1644POPS   C1A19721  18.057  13.708  18.708  0.2276 -0.0557 -0.0956
 1644POPS   D2A19722  17.660  13.633  18.468  0.3594 -0.2230  0.4063
 1644POPS   C3A19723  17.522  13.835  18.041 -0.3841 -0.2157 -0.0387
 1644POPS   C4A19724  17.403  14.291  17.828  0.0909 -0.1643  0.0088
 1644POPS   C1B19725  18.848  13.517  18.407  0.1397  0.0978 -0.3110
 1644POPS   C2B19726  19.016  13.673  18.031  0.2289  0.3096 -0.1091
 1644POPS   C3B19727  18.799  13.693  17.619 -0.1615 -0.0556  0.0530
 1644POPS   C4B19728  18.633  13.673  17.180 -0.1512  0.0679 -0.0607
 1645POPS   CNO19729   9.519  19.399  19.418 -0.2524 -0.1273 -0.2599
 1645POPS   PO419730   9.854  19.579  19.463 -0.1208 -0.0445  0.2070
 1645POPS   GL119731   9.829  19.630  19.049  0.4607  0.1077 -0.1017
 1645POPS   GL219732   9.998  19.873  19.008  0.1455 -0.0012  0.1416
 1645POPS   C1A19733   9.942  19.504  18.648  0.1568 -0.0556  0.1571
 1645POPS   D2A19734  10.009  19.184  18.325 -0.4731  0.0447 -0.0498
 1645POPS   C3A19735   9.925  18.672  18.315  0.1678 -0.1169 -0.0150
 1645POPS   C4A19736  10.013  18.270  18.545  0.1423  0.0441  0.1438
 1645POPS   C1B19737   9.981  20.037  18.597 -0.1755 -0.1229  0.7064
 1645POPS   C2B19738  10.066  20.242  18.152 -0.2295  0.0956 -0.0181
 1645POPS   C3B19739  10.029  20.201  17.689 -0.0865  0.2467  0.1319
 1645POPS   C4B19740   9.872  20.177  17.227  0.3710  0.1072  0.0104
 1646POPS   CNO19741  13.500  20.130  19.565 -0.1240  0.1630 -0.2699
 1646POPS   PO419742  13.436  20.135  19.189 -0.0360 -0.1031  0.1180
 1646POPS   GL119743  13.493  20.184  18.808  0.0862 -0.2873 -0.3280
 1646POPS   GL219744  13.689  19.965  18.673  0.1943  0.1433 -0.2205
 1646POPS   C1A19745  13.205  20.126  18.451  0.1491 -0.1375  0.1749
 1646POPS   D2A19746  12.933  20.171  18.041  0.2746 -0.0701  0.0525
 1646POPS   C3A19747  13.136  20.121  17.650  0.0203  0.1255 -0.1546
 1646POPS   C4A19748  13.018  20.341  17.204 -0.1057  0.0822 -0.0418
 1646POPS   C1B19749  13.735  20.342  18.375  0.2698 -0.1527 -0.0986
 1646POPS   C2B19750  13.841  20.758  18.228 -0.3884 -0.0836  0.0023
 1646POPS   C3B19751  13.994  21.129  17.995  0.1435  0.1110 -0.1127
 1646POPS   C4B19752  14.220  21.513  18.001  0.0633 -0.0743  0.1789
 1647POPS   CNO19753  22.664   6.950  19.381 -0.1132 -0.1152  0.2452
 1647POPS   PO419754  22.934   7.180  19.267 -0.1992  0.1099 -0.0863
 1647POPS   GL119755  23.137   7.383  19.021 -0.1439  0.1403 -0.0155
 1647POPS   GL219756  23.055   7.180  18.792 -0.0440 -0.1539  0.3837
 1647POPS   C1A19757  23.116   7.837  18.913  0.0390 -0.0376  0.0559
 1647POPS   D2A19758  23.125   8.053  18.536  0.2010  0.0163  0.1851
 1647POPS   C3A19759  23.125   8.050  18.045  0.0905  0.1105 -0.1715
 1647POPS   C4A19760  23.198   8.291  17.692 -0.0384  0.2581  0.3245
 1647POPS   C1B19761  23.203   7.096  18.347  0.0901 -0.0376 -0.0323
 1647POPS   C2B19762  23.177   7.171  17.914  0.0108  0.0292  0.0052
 1647POPS   C3B19763  23.129   7.015  17.489 -0.4506 -0.0819 -0.0980
 1647POPS   C4B19764  22.813   7.153  17.170  0.0121  0.0949 -0.1053
 1648POPS   CNO19765   7.319   2.878  19.756  0.0606 -0.3376 -0.4085
 1648POPS   PO419766   7.237   2.819  19.406  0.3532 -0.2326  0.1266
 1648POPS   GL119767   7.288   2.873  18.974 -0.1296 -0.1424  0.0725
 1648POPS   GL219768   7.379   2.547  18.941  0.1183 -0.2233  0.2207
 1648POPS   C1A19769   7.687   2.850  18.770 -0.0002  0.1134 -0.0950
 1648POPS   D2A19770   8.176   2.866  18.686  0.0389 -0.0060 -0.1515
 1648POPS   C3A19771   8.380   2.733  18.329 -0.1710  0.0309 -0.0520
 1648POPS   C4A19772   8.722   2.934  18.113  0.0728 -0.2146 -0.0206
 1648POPS   C1B19773   7.542   2.408  18.493  0.2048  0.2014  0.1535
 1648POPS   C2B19774   7.366   2.260  18.029  0.0565 -0.1094 -0.1277
 1648POPS   C3B19775   7.075   2.307  17.703 -0.0802 -0.2212 -0.1695
 1648POPS   C4B19776   7.228   2.594  17.469 -0.3712 -0.0559 -0.0579
 1649POPS   CNO19777  26.299  11.222  19.440  0.1934 -0.0568 -0.2183
 1649POPS   PO419778  25.927  11.226  19.388  0.1348  0.3734  0.2941
 1649POPS   GL119779  26.095  11.131  19.007 -0.2869 -0.2421  0.1942
 1649POPS   GL219780  26.214  11.354  18.788 -0.5244 -0.0384  0.1889
 1649POPS   C1A19781  25.864  11.081  18.582 -0.3161 -0.2575 -0.0499
 1649POPS   D2A19782  25.520  11.059  18.393  0.0616  0.0648 -0.0644
 1649POPS   C3A19783  25.470  11.137  17.967 -0.2071  0.1984  0.0148
 1649POPS   C4A19784  25.624  11.156  17.558  0.0931  0.3562 -0.3014
 1649POPS   C1B19785  26.293  11.532  18.343 -0.1557  0.0710 -0.2008
 1649POPS   C2B19786  26.359  11.546  17.885 -0.1604  0.3336 -0.1760
 1649POPS   C3B19787  26.478  11.432  17.446 -0.1801  0.1479 -0.1746
 1649POPS   C4B19788  26.720  11.428  17.041 -0.2818  0.1902  0.4312
 1650POPS   CNO19789  11.839  20.824  19.427 -0.2359 -0.1236  0.0087
 1650POPS   PO419790  11.512  20.653  19.468  0.1968  0.2719 -0.2437
 1650POPS   GL119791  11.311  20.492  19.152  0.2433  0.0755 -0.0756
 1650POPS   GL219792  11.476  20.579  18.954  0.1433 -0.0502  0.2307
 1650POPS   C1A19793  11.058  20.491  18.754 -0.1641 -0.0187  0.1031
 1650POPS   D2A19794  11.056  20.363  18.355 -0.2751 -0.0597 -0.2751
 1650POPS   C3A19795  10.979  20.519  17.946  0.0315  0.0113  0.0476
 1650POPS   C4A19796  11.176  20.682  17.584 -0.1118  0.1807 -0.1684
 1650POPS   C1B19797  11.559  20.508  18.548  0.1406 -0.0252  0.1530
 1650POPS   C2B19798  11.503  20.438  18.092 -0.2573  0.1535 -0.3206
 1650POPS   C3B19799  11.644  20.404  17.636  0.0382 -0.3495  0.0625
 1650POPS   C4B19800  11.899  20.561  17.273  0.0163  0.2634 -0.1062
 1651POPS   CNO19801   6.766  26.414  19.511 -0.1800  0.1167  0.1188
 1651POPS   PO419802   6.793  26.533  19.164 -0.1366  0.0617  0.4392
 1651POPS   GL119803   6.775  26.361  18.706 -0.1099 -0.1117  0.0215
 1651POPS   GL219804   6.491  26.222  18.745  0.0423  0.0013  0.0224
 1651POPS   C1A19805   6.774  26.441  18.257  0.1796  0.2630  0.4705
 1651POPS   D2A19806   6.481  26.358  17.868 -0.0990 -0.0283 -0.0600
 1651POPS   C3A19807   6.693  26.256  17.454 -0.0434 -0.1415 -0.0047
 1651POPS   C4A19808   7.089  26.262  17.175  0.0448  0.0840  0.0036
 1651POPS   C1B19809   6.411  26.116  18.286  0.2304  0.3097  0.0186
 1651POPS   C2B19810   6.154  25.833  18.103 -0.2512  0.3375 -0.1529
 1651POPS   C3B19811   6.032  25.684  17.668  0.2519 -0.4735 -0.0322
 1651POPS   C4B19812   6.021  25.831  17.263 -0.1498  0.2427 -0.0097
 1652POPS   CNO19813  13.938  16.253  19.492 -0.0945 -0.1022 -0.2413
 1652POPS   PO419814  14.037  16.481  19.189 -0.0996 -0.0717  0.1644
 1652POPS   GL119815  14.165  16.388  18.848  0.1741  0.1641  0.3394
 1652POPS   GL219816  14.338  16.160  18.829 -0.0535  0.0176  0.0031
 1652POPS   C1A19817  14.199  16.347  18.375 -0.0813 -0.1848 -0.0887
 1652POPS   D2A19818  13.950  16.437  17.998  0.0255  0.0488  0.0792
 1652POPS   C3A19819  14.015  16.105  17.722  0.3153  0.3956  0.0130
 1652POPS   C4A19820  14.325  15.844  17.415 -0.2604 -0.0802  0.3986
 1652POPS   C1B19821  14.664  16.313  18.585 -0.0083 -0.5694 -0.1415
 1652POPS   C2B19822  14.631  16.513  18.185  0.2247 -0.0881 -0.1987
 1652POPS   C3B19823  14.849  16.637  17.828  0.0083 -0.0520  0.3062
 1652POPS   C4B19824  15.057  16.409  17.422  0.2365 -0.3555  0.2827
 1653POPS   CNO19825   3.579  30.265  18.916  0.0449  0.0032  0.0979
 1653POPS   PO419826   3.490  29.933  18.777  0.0618  0.0986  0.0115
 1653POPS   GL119827   3.619  30.014  18.500  0.2419 -0.1432 -0.0694
 1653POPS   GL219828   3.419  29.929  18.277 -0.1916  0.0425  0.0554
 1653POPS   C1A19829   3.915  29.800  18.146  0.1941 -0.2808  0.3449
 1653POPS   D2A19830   3.962  29.917  17.702  0.1617 -0.0121 -0.0214
 1653POPS   C3A19831   4.017  29.710  17.274  0.0372  0.3275 -0.1192
 1653POPS   C4A19832   4.087  29.613  16.847 -0.0538  0.1498  0.1060
 1653POPS   C1B19833   3.493  30.026  17.846 -0.4005 -0.0061 -0.0339
 1653POPS   C2B19834   3.541  29.840  17.367  0.0836  0.0253 -0.0729
 1653POPS   C3B19835   3.523  29.802  16.912 -0.0231  0.1170  0.2363
 1653POPS   C4B19836   3.263  29.588  16.549  0.2813 -0.0525  0.2140
 1654POPS   CNO19837  24.940  20.454  19.042 -0.0316  0.1688 -0.1757
 1654POPS   PO419838  24.801  20.083  19.025  0.1491  0.1907 -0.2589
 1654POPS   GL119839  24.715  20.010  18.646  0.1782 -0.2694 -0.2029
 1654POPS   GL219840  24.531  19.822  18.590  0.2051  0.1106  0.0768
 1654POPS   C1A19841  24.745  20.163  18.216  0.1684 -0.1389  0.0594
 1654POPS   D2A19842  25.010  20.420  17.969 -0.0758  0.3615 -0.1423
 1654POPS   C3A19843  24.854  20.456  17.486 -0.0793 -0.2309  0.1326
 1654POPS   C4A19844  24.687  20.406  17.021  0.1366  0.0371  0.1335
 1654POPS   C1B19845  24.878  19.679  18.274 -0.0102 -0.2119  0.0368
 1654POPS   C2B19846  25.168  19.552  17.958  0.2360  0.1339  0.1682
 1654POPS   C3B19847  24.969  19.489  17.585  0.0924  0.0287  0.0577
 1654POPS   C4B19848  24.864  19.380  17.167  0.0404 -0.2166 -0.1010
 1655POPS   CNO19849  19.426  11.438  19.585 -0.1419  0.2217 -0.1809
 1655POPS   PO419850  19.664  11.540  19.306 -0.0424 -0.0677 -0.0292
 1655POPS   GL119851  19.715  11.551  18.919 -0.2280  0.3342 -0.1555
 1655POPS   GL219852  19.840  11.768  18.762 -0.1037  0.1236  0.2466
 1655POPS   C1A19853  19.997  11.316  18.675  0.0938  0.0380 -0.2243
 1655POPS   D2A19854  20.214  11.377  18.280 -0.0246  0.0958 -0.0680
 1655POPS   C3A19855  19.902  11.452  18.023  0.1538  0.2172 -0.0475
 1655POPS   C4A19856  19.866  11.356  17.583 -0.4115  0.0162  0.2301
 1655POPS   C1B19857  19.499  11.648  18.475 -0.1564 -0.0718  0.2463
 1655POPS   C2B19858  19.276  11.392  18.190 -0.1714 -0.1635 -0.2251
 1655POPS   C3B19859  18.888  11.186  17.951  0.0069  0.1718 -0.0619
 1655POPS   C4B19860  18.562  11.043  17.641  0.0656  0.2176 -0.0322
 1656POPS   CNO19861  12.010  29.831  19.631 -0.4603 -0.0024  0.2729
 1656POPS   PO419862  11.812  29.739  19.326  0.1184 -0.0349  0.2115
 1656POPS   GL119863  11.968  29.958  19.020 -0.0803 -0.0145  0.4653
 1656POPS   GL219864  11.703  30.105  18.975  0.1597 -0.2279  0.1283
 1656POPS   C1A19865  11.996  29.793  18.606  0.0726 -0.2341 -0.4335
 1656POPS   D2A19866  11.794  29.489  18.354 -0.1490 -0.2750  0.3103
 1656POPS   C3A19867  11.925  29.406  17.909  0.0706  0.0316 -0.1258
 1656POPS   C4A19868  12.089  29.354  17.510  0.0433  0.2395  0.1409
 1656POPS   C1B19869  11.543  30.030  18.528  0.0176  0.0529  0.0625
 1656POPS   C2B19870  11.288  29.949  18.150 -0.0297 -0.2856 -0.1611
 1656POPS   C3B19871  11.017  30.042  17.818 -0.0051  0.1137  0.1218
 1656POPS   C4B19872  10.878  29.947  17.385 -0.2982 -0.0947 -0.2706
 1657POPS   CNO19873   2.201  30.443  19.214  0.0233 -0.2806 -0.0547
 1657POPS   PO419874   1.912  30.710  19.185  0.0263 -0.0023 -0.0126
 1657POPS   GL119875   1.744  30.843  18.908 -0.1319  0.0465 -0.0387
 1657POPS   GL219876   1.641  30.580  18.744  0.1842  0.1025 -0.3008
 1657POPS   C1A19877   1.384  31.073  18.708 -0.4185  0.2489 -0.4931
 1657POPS   D2A19878   1.223  31.436  18.542 -0.0877 -0.2179 -0.0220
 1657POPS   C3A19879   1.129  31.440  18.040  0.0502 -0.0456 -0.2158
 1657POPS   C4A19880   1.208  31.148  17.619 -0.2617 -0.3676 -0.0102
 1657POPS   C1B19881   1.515  30.724  18.323 -0.2043 -0.0894  0.3038
 1657POPS   C2B19882   1.690  30.826  17.904 -0.0628 -0.2149  0.0817
 1657POPS   C3B19883   1.961  30.692  17.535  0.0889 -0.3777  0.0289
 1657POPS   C4B19884   2.356  30.640  17.333  0.1202  0.1581 -0.2946
 1658POPS   CNO19885  24.843  28.974  19.107 -0.2162 -0.0384 -0.0366
 1658POPS   PO419886  25.037  29.297  19.138  0.0824 -0.2278  0.1647
 1658POPS   GL119887  24.671  29.401  19.018 -0.0680 -0.1275 -0.4688
 1658POPS   GL219888  24.751  29.609  18.885  0.4004  0.1433  0.4530
 1658POPS   C1A19889  24.430  29.291  18.622  0.1847  0.0435 -0.2743
 1658POPS   D2A19890  24.221  29.128  18.227  0.1113  0.1129 -0.0853
 1658POPS   C3A19891  24.421  28.956  17.944  0.0929  0.1617 -0.1222
 1658POPS   C4A19892  24.641  29.030  17.559  0.0892 -0.4583 -0.1049
 1658POPS   C1B19893  24.632  29.823  18.531  0.5348  0.1403 -0.1204
 1658POPS   C2B19894  24.714  29.866  18.098 -0.1321 -0.0455 -0.0581
 1658POPS   C3B19895  25.126  29.843  17.822 -0.2343  0.0082 -0.0337
 1658POPS   C4B19896  25.175  29.462  17.553  0.0929 -0.0104 -0.1437
 1659POPS   CNO19897  21.836  10.924  19.560 -0.0173 -0.0978 -0.2968
 1659POPS   PO419898  21.845  11.276  19.676  0.2132 -0.0736  0.3802
 1659POPS   GL119899  22.033  11.424  19.362  0.0173  0.0686  0.0574
 1659POPS   GL219900  22.273  11.303  19.365 -0.1423 -0.0510 -0.0991
 1659POPS   C1A19901  22.194  11.432  18.926 -0.1162 -0.2596  0.0749
 1659POPS   D2A19902  22.339  11.316  18.485 -0.3597 -0.1162 -0.2425
 1659POPS   C3A19903  22.542  11.650  18.157  0.3074  0.0901 -0.4503
 1659POPS   C4A19904  22.713  11.584  17.731 -0.1232 -0.0390 -0.0945
 1659POPS   C1B19905  22.688  11.389  19.215  0.1676  0.3455  0.1447
 1659POPS   C2B19906  22.751  11.298  18.804 -0.1632  0.1426  0.0539
 1659POPS   C3B19907  22.813  11.198  18.292 -0.2580  0.1096  0.1092
 1659POPS   C4B19908  22.795  11.109  17.820 -0.1100  0.0672 -0.3812
 1660POPS   CNO19909  16.988  18.784  19.372  0.1242  0.1203  0.0890
 1660POPS   PO419910  17.274  19.001  19.375  0.2049 -0.2450  0.4382
 1660POPS   GL119911  17.242  18.857  18.950 -0.2109  0.2559 -0.2020
 1660POPS   GL219912  17.464  19.059  18.856  0.1279  0.0593 -0.1743
 1660POPS   C1A19913  17.325  18.620  18.597  0.0932  0.0327  0.5168
 1660POPS   D2A19914  17.113  18.739  18.145  0.1257  0.0132  0.0895
 1660POPS   C3A19915  16.782  18.527  17.906  0.0649 -0.0180 -0.0131
 1660POPS   C4A19916  16.441  18.332  17.661  0.2537  0.0029  0.1693
 1660POPS   C1B19917  17.401  19.078  18.367  0.1270  0.3468 -0.0970
 1660POPS   C2B19918  17.328  19.199  17.940 -0.0536 -0.1766  0.1315
 1660POPS   C3B19919  17.145  19.490  17.635 -0.0461 -0.0290  0.1017
 1660POPS   C4B19920  16.908  19.916  17.678 -0.1926 -0.2055  0.1409
 1661POPS   CNO19921  21.163   2.346  19.186  0.2902 -0.3173 -0.1289
 1661POPS   PO419922  21.014   2.109  18.963  0.4601  0.0754  0.1073
 1661POPS   GL119923  21.002   2.049  18.552 -0.1798  0.0262 -0.0172
 1661POPS   GL219924  21.302   2.025  18.452  0.0819 -0.0762  0.2211
 1661POPS   C1A19925  20.730   1.968  18.162 -0.1638 -0.1062 -0.0908
 1661POPS   D2A19926  20.741   1.964  17.715  0.1659  0.1031  0.2150
 1661POPS   C3A19927  20.755   1.661  17.336  0.4341 -0.0400  0.2095
 1661POPS   C4A19928  20.939   1.505  16.924 -0.2089  0.1034 -0.0216
 1661POPS   C1B19929  21.220   2.091  18.042  0.0055 -0.0610 -0.2810
 1661POPS   C2B19930  21.297   2.207  17.577  0.0472  0.1643  0.1825
 1661POPS   C3B19931  21.396   2.161  17.188  0.0890 -0.1171 -0.3448
 1661POPS   C4B19932  21.416   1.936  16.794  0.0865 -0.1365  0.0809
 1662POPS   CNO19933   9.463  15.727  19.434 -0.0801  0.1286 -0.1311
 1662POPS   PO419934   9.520  16.085  19.571 -0.1690 -0.3099  0.0764
 1662POPS   GL119935   9.391  16.199  19.151  0.3247  0.0509  0.0716
 1662POPS   GL219936   9.569  16.405  19.069  0.1386 -0.1531  0.0181
 1662POPS   C1A19937   9.193  15.853  18.912 -0.4446  0.5432  0.2743
 1662POPS   D2A19938   9.018  15.450  18.845 -0.2331 -0.1370  0.2356
 1662POPS   C3A19939   8.781  15.391  18.448 -0.0314 -0.0003  0.2547
 1662POPS   C4A19940   8.476  15.372  18.052  0.0019  0.2720 -0.1404
 1662POPS   C1B19941   9.563  16.044  18.745  0.2749  0.3798  0.2677
 1662POPS   C2B19942   9.528  15.705  18.382 -0.1475  0.1403  0.0258
 1662POPS   C3B19943   9.328  15.443  18.066 -0.1924 -0.2669 -0.2291
 1662POPS   C4B19944   8.961  15.222  17.999  0.2512  0.1710 -0.0734
 1663POPS   CNO19945  14.147  10.153  19.361  0.0488  0.2119  0.2250
 1663POPS   PO419946  14.164   9.877  19.125 -0.2003  0.0413  0.0358
 1663POPS   GL119947  14.010  10.102  18.738 -0.0599 -0.1389  0.1207
 1663POPS   GL219948  13.995   9.786  18.648 -0.1769 -0.2989 -0.0055
 1663POPS   C1A19949  13.990  10.056  18.237  0.1472  0.0537 -0.0725
 1663POPS   D2A19950  13.793   9.832  17.889  0.1551 -0.1600  0.1408
 1663POPS   C3A19951  13.989   9.780  17.505 -0.2679  0.0699  0.1462
 1663POPS   C4A19952  14.340   9.751  17.193 -0.1840  0.3758  0.1326
 1663POPS   C1B19953  13.904   9.483  18.238  0.0317  0.0751 -0.1206
 1663POPS   C2B19954  13.948   9.386  17.814  0.0967 -0.1799 -0.0296
 1663POPS   C3B19955  14.079   9.236  17.391 -0.3292 -0.2188  0.1636
 1663POPS   C4B19956  14.147   9.351  16.925  0.1349  0.0914 -0.1235
 1664POPS   CNO19957   9.624   7.027  19.997 -0.0847  0.0895  0.3086
 1664POPS   PO419958   9.953   7.121  19.829  0.2601 -0.0151  0.2324
 1664POPS   GL119959  10.171   7.393  19.573  0.2589  0.2684  0.2617
 1664POPS   GL219960   9.899   7.354  19.380 -0.1668  0.0748  0.0318
 1664POPS   C1A19961  10.412   7.635  19.247  0.1163 -0.0970  0.2661
 1664POPS   D2A19962  10.318   8.053  19.072  0.1952 -0.1161  0.0501
 1664POPS   C3A19963  10.578   8.131  18.672  0.0237  0.0448 -0.2517
 1664POPS   C4A19964  10.996   8.071  18.455 -0.3072 -0.1838 -0.2900
 1664POPS   C1B19965   9.877   7.184  18.969 -0.4135  0.2368  0.2302
 1664POPS   C2B19966  10.122   7.187  18.592 -0.2626  0.1755  0.0101
 1664POPS   C3B19967  10.238   7.374  18.147 -0.1131  0.2354 -0.2311
 1664POPS   C4B19968  10.386   7.650  17.807  0.0015  0.0156  0.2833
 1665POPS   CNO19969  12.480   1.043  19.262 -0.2698 -0.0418  0.2777
 1665POPS   PO419970  12.175   1.252  19.143 -0.0167 -0.2083 -0.1232
 1665POPS   GL119971  12.383   1.303  18.825 -0.0925  0.3023  0.0422
 1665POPS   GL219972  12.473   1.573  18.673 -0.0116  0.2665 -0.2939
 1665POPS   C1A19973  12.615   1.144  18.426  0.1682  0.0100 -0.6056
 1665POPS   D2A19974  12.652   1.115  17.994  0.1205  0.0225 -0.1336
 1665POPS   C3A19975  12.426   0.884  17.654  0.1774 -0.0529 -0.0195
 1665POPS   C4A19976  12.364   0.419  17.539 -0.0191 -0.0050  0.0145
 1665POPS   C1B19977  12.086   1.690  18.485 -0.0730  0.1899 -0.1952
 1665POPS   C2B19978  11.694   1.780  18.220  0.1896 -0.0431 -0.0799
 1665POPS   C3B19979  11.690   1.471  17.893 -0.1705  0.4584  0.0121
 1665POPS   C4B19980  11.586   1.124  17.576 -0.0297 -0.0756  0.0515
 1666POPS   CNO19981  29.462  25.756  19.530 -0.2036 -0.2894  0.1155
 1666POPS   PO419982  29.582  25.577  19.184  0.1032  0.3887 -0.1472
 1666POPS   GL119983  29.447  25.448  18.899 -0.2189  0.1953 -0.1181
 1666POPS   GL219984  29.152  25.527  18.830  0.1162 -0.1979 -0.5103
 1666POPS   C1A19985  29.495  25.448  18.458  0.0862 -0.0265  0.0145
 1666POPS   D2A19986  29.530  25.715  18.132  0.0819 -0.3326 -0.0596
 1666POPS   C3A19987  29.289  25.519  17.799 -0.1880  0.3003  0.1778
 1666POPS   C4A19988  28.820  25.572  17.699 -0.1620 -0.0256 -0.1831
 1666POPS   C1B19989  28.864  25.436  18.431  0.0323  0.0823 -0.0150
 1666POPS   C2B19990  28.745  25.297  18.070 -0.0100  0.0794  0.0988
 1666POPS   C3B19991  28.374  25.076  17.857 -0.2561 -0.0742  0.0939
 1666POPS   C4B19992  27.992  24.813  17.903  0.3679  0.0554  0.4448
 1667POPS   CNO19993  29.832   8.659  19.099 -0.0431  0.0197 -0.0850
 1667POPS   PO419994  30.112   8.491  19.269  0.2142 -0.2070 -0.0477
 1667POPS   GL119995  30.358   8.512  18.916  0.2057 -0.1201  0.0667
 1667POPS   GL219996  30.203   8.320  18.803  0.2124 -0.3557 -0.1461
 1667POPS   C1A19997  30.269   8.718  18.510  0.1105  0.1236 -0.0614
 1667POPS   D2A19998  30.450   8.882  18.114 -0.2435  0.1892  0.2534
 1667POPS   C3A19999  30.488   8.672  17.708  0.0660  0.2062 -0.1704
 1667POPS   C4A20000  30.452   8.229  17.602  0.0625  0.2010  0.0760
 1667POPS   C1B20001  29.951   8.318  18.389 -0.0658 -0.0482  0.1774
 1667POPS   C2B20002  29.652   8.234  18.002 -0.0591  0.2829 -0.0660
 1667POPS   C3B20003  29.404   8.250  17.593 -0.0473 -0.0135 -0.0232
 1667POPS   C4B20004  29.366   8.490  17.213  0.1453  0.2644  0.2249
 1668POPS   CNO20005  13.457   1.752  19.151  0.1785 -0.1117 -0.0771
 1668POPS   PO420006  13.217   1.493  19.101 -0.2180 -0.1205  0.0086
 1668POPS   GL120007  13.160   1.436  18.700  0.1883 -0.0593 -0.1659
 1668POPS   GL220008  13.353   1.658  18.646 -0.1990  0.2424 -0.0866
 1668POPS   C1A20009  12.895   1.562  18.357  0.0178  0.2104 -0.0906
 1668POPS   D2A20010  13.020   1.573  17.882  0.0773  0.0119 -0.0245
 1668POPS   C3A20011  12.754   1.647  17.528 -0.1767 -0.3984 -0.2816
 1668POPS   C4A20012  12.486   1.889  17.335 -0.2184 -0.0139 -0.4130
 1668POPS   C1B20013  13.365   1.771  18.240 -0.2361  0.1918  0.1000
 1668POPS   C2B20014  13.323   1.923  17.778 -0.0848 -0.3946  0.0278
 1668POPS   C3B20015  13.394   1.791  17.352 -0.0746  0.2237 -0.0952
 1668POPS   C4B20016  13.290   2.078  16.956  0.2940 -0.2824 -0.2845
 1669POPS   CNO20017  28.269   9.059  19.715 -0.1570 -0.2864  0.0430
 1669POPS   PO420018  28.368   9.220  19.378 -0.2617  0.0822 -0.2510
 1669POPS   GL120019  28.123   9.162  19.099 -0.2257 -0.3259 -0.0676
 1669POPS   GL220020  28.308   8.962  18.944  0.1559 -0.3239 -0.1804
 1669POPS   C1A20021  27.755   8.886  19.004  0.2378 -0.1323 -0.0776
 1669POPS   D2A20022  27.576   8.492  18.831  0.2243  0.2481 -0.3353
 1669POPS   C3A20023  27.471   8.647  18.390 -0.2928  0.1678  0.0385
 1669POPS   C4A20024  27.373   8.762  17.928 -0.1592 -0.0346  0.0337
 1669POPS   C1B20025  28.300   9.286  18.598  0.0916  0.3143 -0.0423
 1669POPS   C2B20026  27.993   9.381  18.264 -0.2093  0.1026 -0.2108
 1669POPS   C3B20027  28.060   9.354  17.806  0.0854 -0.0750 -0.2065
 1669POPS   C4B20028  28.080   9.459  17.393 -0.1115 -0.0539  0.2438
 1670POPS   CNO20029  14.920  13.698  19.850  0.4063 -0.0052 -0.1728
 1670POPS   PO420030  14.818  13.966  19.636 -0.2998  0.1932  0.1427
 1670POPS   GL120031  14.778  14.023  19.251 -0.2334  0.1098  0.3751
 1670POPS   GL220032  14.799  13.730  19.182 -0.3403 -0.0120 -0.0221
 1670POPS   C1A20033  14.472  14.306  18.916  0.0331 -0.1351 -0.1188
 1670POPS   D2A20034  14.113  14.475  18.682  0.1740  0.0085  0.1758
 1670POPS   C3A20035  14.142  14.482  18.213  0.0970 -0.1392  0.1221
 1670POPS   C4A20036  13.989  14.458  17.752  0.0546 -0.0929  0.0954
 1670POPS   C1B20037  14.547  13.676  18.726 -0.2240  0.1324 -0.0157
 1670POPS   C2B20038  14.564  13.589  18.202  0.1457  0.1631  0.1906
 1670POPS   C3B20039  14.586  13.390  17.793  0.2881 -0.2438  0.3643
 1670POPS   C4B20040  14.809  13.030  17.590  0.0344  0.0213 -0.1996
 1671POPS   CNO20041  26.162  11.665  19.187  0.2799  0.1843  0.0748
 1671POPS   PO420042  26.284  11.881  18.905 -0.1690 -0.2740 -0.1996
 1671POPS   GL120043  25.980  11.763  18.707 -0.2302 -0.0413 -0.3317
 1671POPS   GL220044  26.019  11.999  18.468  0.1246 -0.2880 -0.1983
 1671POPS   C1A20045  25.817  11.579  18.366  0.0902  0.1008 -0.0316
 1671POPS   D2A20046  25.839  11.608  17.904 -0.2216 -0.2257  0.0879
 1671POPS   C3A20047  25.460  11.677  17.670 -0.1251  0.1630 -0.1072
 1671POPS   C4A20048  25.315  11.743  17.194 -0.2348  0.0791 -0.0746
 1671POPS   C1B20049  26.186  12.032  18.085  0.4437 -0.1804  0.1112
 1671POPS   C2B20050  26.010  11.972  17.590  0.1009  0.1457 -0.1832
 1671POPS   C3B20051  25.860  11.578  17.352  0.2267  0.0768 -0.1915
 1671POPS   C4B20052  25.653  11.296  17.024  0.2254 -0.0722 -0.2619
 1672POPS   CNO20053  31.536  16.598  19.679  0.1794  0.0174  0.1988
 1672POPS   PO420054  31.243  16.732  19.483 -0.1771 -0.0062  0.0700
 1672POPS   GL120055  31.254  16.760  19.116  0.1885  0.2658  0.0109
 1672POPS   GL220056  31.011  16.875  19.074  0.2654 -0.0581 -0.0133
 1672POPS   C1A20057  31.337  16.617  18.721  0.2394  0.1669  0.1779
 1672POPS   D2A20058  31.599  16.619  18.373  0.3291 -0.1720 -0.0234
 1672POPS   C3A20059  31.681  17.051  18.173  0.2192  0.0033 -0.2090
 1672POPS   C4A20060  31.893  17.356  17.898  0.1134 -0.0113  0.5546
 1672POPS   C1B20061  30.871  16.835  18.654 -0.0168 -0.0213  0.3844
 1672POPS   C2B20062  31.042  16.815  18.198 -0.3701  0.1764  0.1426
 1672POPS   C3B20063  30.895  16.918  17.748 -0.2232  0.3170  0.1429
 1672POPS   C4B20064  30.788  16.849  17.258  0.1734 -0.1443  0.1658
 1673POPS   CNO20065   6.087  18.568  19.069  0.0697  0.0485  0.0867
 1673POPS   PO420066   6.367  18.436  19.195 -0.2186  0.2984 -0.3779
 1673POPS   GL120067   6.452  18.369  18.842 -0.1102  0.1868  0.0148
 1673POPS   GL220068   6.654  18.177  18.813 -0.0258  0.3693 -0.1730
 1673POPS   C1A20069   6.637  18.598  18.430  0.1055  0.2148  0.0482
 1673POPS   D2A20070   6.813  18.551  18.019 -0.1008  0.0600 -0.1617
 1673POPS   C3A20071   6.775  18.822  17.659 -0.1914 -0.2517 -0.1595
 1673POPS   C4A20072   6.499  18.639  17.415  0.0173 -0.1943  0.3806
 1673POPS   C1B20073   6.967  18.261  18.511 -0.2634  0.1204 -0.0592
 1673POPS   C2B20074   7.177  18.260  18.133  0.3790 -0.2354  0.0426
 1673POPS   C3B20075   7.475  18.084  17.837  0.1609  0.2467  0.0384
 1673POPS   C4B20076   7.736  17.792  17.536 -0.1416 -0.0957  0.3374
 1674POPS   CNO20077  29.408  23.187  19.522  0.0976 -0.3722  0.0137
 1674POPS   PO420078  29.465  23.146  19.162 -0.0958 -0.3460  0.2354
 1674POPS   GL120079  29.454  23.418  18.837  0.0444 -0.0796 -0.1428
 1674POPS   GL220080  29.168  23.516  18.895 -0.0803 -0.1438 -0.2424
 1674POPS   C1A20081  29.529  23.343  18.404  0.0581  0.0241 -0.4161
 1674POPS   D2A20082  29.708  22.970  18.204 -0.0960 -0.0519 -0.1532
 1674POPS   C3A20083  29.520  22.829  17.792 -0.1386  0.1647 -0.1719
 1674POPS   C4A20084  29.177  22.801  17.557  0.3190  0.1254  0.2906
 1674POPS   C1B20085  29.123  23.635  18.530  0.1206 -0.2124  0.0471
 1674POPS   C2B20086  29.148  23.742  18.058  0.0404  0.2992 -0.0297
 1674POPS   C3B20087  29.003  23.740  17.620 -0.0490  0.0705  0.1782
 1674POPS   C4B20088  28.996  23.510  17.222 -0.2323  0.0589 -0.0865
 1675POPS   CNO20089  29.840  21.069  19.292 -0.1521  0.0507 -0.0466
 1675POPS   PO420090  30.040  21.368  19.255 -0.3513  0.0798 -0.1519
 1675POPS   GL120091  30.183  21.418  18.891  0.0033 -0.1823 -0.1046
 1675POPS   GL220092  29.910  21.550  18.759  0.1815  0.0554  0.2122
 1675POPS   C1A20093  30.313  21.466  18.427 -0.0869  0.0985  0.2494
 1675POPS   D2A20094  30.282  21.540  17.993 -0.0588 -0.0179 -0.0550
 1675POPS   C3A20095  30.321  21.317  17.601 -0.0195 -0.2191  0.0876
 1675POPS   C4A20096  30.614  21.380  17.239 -0.1068  0.0880 -0.1773
 1675POPS   C1B20097  29.871  21.552  18.296 -0.0943  0.1461  0.1879
 1675POPS   C2B20098  29.763  21.330  17.870 -0.1114  0.0031  0.1103
 1675POPS   C3B20099  29.853  20.954  17.618  0.2025  0.0161 -0.0343
 1675POPS   C4B20100  29.875  20.636  17.198  0.0444 -0.3179  0.1164
 1676POPS   CNO20101   7.416   4.980  19.448 -0.2050 -0.0262  0.1612
 1676POPS   PO420102   7.328   4.640  19.268  0.2275 -0.2630  0.0203
 1676POPS   GL120103   7.244   4.788  18.883  0.0465 -0.1446  0.2405
 1676POPS   GL220104   7.403   4.686  18.658 -0.0527  0.1333  0.1460
 1676POPS   C1A20105   7.244   5.207  18.638 -0.0912  0.2459 -0.0758
 1676POPS   D2A20106   7.493   5.431  18.345 -0.2541  0.2704  0.1200
 1676POPS   C3A20107   7.333   5.245  17.993 -0.3179  0.1938  0.2212
 1676POPS   C4A20108   7.183   5.385  17.555  0.0831  0.4812 -0.1644
 1676POPS   C1B20109   7.150   4.816  18.291 -0.1973  0.1819  0.1028
 1676POPS   C2B20110   7.072   4.764  17.817  0.0830  0.0124 -0.0785
 1676POPS   C3B20111   6.871   4.795  17.434 -0.2883  0.0169 -0.0398
 1676POPS   C4B20112   6.877   5.181  17.161  0.3513 -0.0043  0.0455
 1677POPS   CNO20113   2.140  25.774  19.971  0.0464  0.1599 -0.0036
 1677POPS   PO420114   2.231  25.861  19.612 -0.1460  0.2072  0.1257
 1677POPS   GL120115   2.350  26.046  19.399  0.3639 -0.0111  0.0462
 1677POPS   GL220116   2.219  26.350  19.451  0.0352 -0.1968  0.1459
 1677POPS   C1A20117   2.642  26.158  19.021 -0.1296  0.1105 -0.3912
 1677POPS   D2A20118   2.454  26.242  18.665 -0.0138  0.2131 -0.0052
 1677POPS   C3A20119   2.062  26.437  18.427  0.2385 -0.1874 -0.0215
 1677POPS   C4A20120   1.790  26.571  18.075 -0.0202  0.0534  0.0121
 1677POPS   C1B20121   2.474  26.617  19.124 -0.0159 -0.0555  0.0322
 1677POPS   C2B20122   2.754  26.587  18.817  0.2967 -0.1320  0.1398
 1677POPS   C3B20123   3.146  26.823  18.788 -0.1787  0.0011  0.0359
 1677POPS   C4B20124   3.446  27.099  18.610 -0.2009  0.1671 -0.1482
 1678POPS   CNO20125   3.630  20.902  19.313 -0.0505 -0.0031 -0.1349
 1678POPS   PO420126   4.000  21.018  19.282  0.2780 -0.0096  0.1658
 1678POPS   GL120127   4.089  21.120  18.939 -0.1628 -0.1320  0.2761
 1678POPS   GL220128   4.174  21.404  18.903 -0.0141  0.1568  0.0735
 1678POPS   C1A20129   4.111  20.883  18.560 -0.3590 -0.1890 -0.2920
 1678POPS   D2A20130   4.267  21.008  18.147  0.2442 -0.0168  0.1743
 1678POPS   C3A20131   4.331  20.634  17.839  0.0606  0.1202  0.3130
 1678POPS   C4A20132   4.440  20.350  17.535 -0.2280  0.1928  0.2008
 1678POPS   C1B20133   4.207  21.425  18.419  0.1489 -0.0143 -0.0143
 1678POPS   C2B20134   4.149  21.725  18.062 -0.1012 -0.0170 -0.2490
 1678POPS   C3B20135   4.251  22.183  18.012  0.0901 -0.1701  0.2175
 1678POPS   C4B20136   4.415  22.604  17.785 -0.1118 -0.2026  0.0331
 1679POPS   CNO20137  25.183  18.606  19.482 -0.0213  0.0080  0.0139
 1679POPS   PO420138  25.293  18.499  19.116 -0.3862  0.0877  0.2143
 1679POPS   GL120139  24.944  18.628  19.106 -0.0941  0.3123 -0.0545
 1679POPS   GL220140  24.818  18.344  19.102  0.1306 -0.1580  0.0657
 1679POPS   C1A20141  24.643  18.832  18.751 -0.0908  0.0330 -0.0121
 1679POPS   D2A20142  24.240  18.745  18.502 -0.1791 -0.1291 -0.2614
 1679POPS   C3A20143  24.161  18.484  18.164 -0.2694 -0.0978  0.0294
 1679POPS   C4A20144  24.071  18.102  17.955 -0.2220  0.1926  0.3210
 1679POPS   C1B20145  24.452  18.371  18.816 -0.0463  0.2762 -0.1208
 1679POPS   C2B20146  23.959  18.291  18.598 -0.0190 -0.0811 -0.0949
 1679POPS   C3B20147  23.517  18.354  18.518 -0.1418 -0.1456 -0.2020
 1679POPS   C4B20148  23.099  18.306  18.287 -0.2903 -0.0261 -0.0703
 1680POPS   CNO20149  10.743   6.670  19.942  0.0959 -0.0428 -0.0434
 1680POPS   PO420150  11.101   6.786  19.942  0.0253  0.1191  0.0968
 1680POPS   GL120151  11.408   6.893  19.584 -0.0797 -0.3777 -0.1888
 1680POPS   GL220152  11.229   7.145  19.574  0.1197 -0.5090 -0.2057
 1680POPS   C1A20153  11.658   7.205  19.288  0.0263 -0.0448 -0.0548
 1680POPS   D2A20154  11.653   7.629  19.176 -0.0232 -0.0043 -0.0432
 1680POPS   C3A20155  11.407   7.704  18.759  0.1169  0.0488 -0.1389
 1680POPS   C4A20156  10.983   7.582  18.579  0.0065  0.0534 -0.2526
 1680POPS   C1B20157  11.176   7.313  19.147 -0.0793 -0.0427  0.0535
 1680POPS   C2B20158  11.456   7.143  18.787 -0.2683 -0.2208 -0.2820
 1680POPS   C3B20159  11.632   7.022  18.392  0.0329  0.2055 -0.0114
 1680POPS   C4B20160  11.626   7.180  17.952  0.0173  0.2242 -0.2526
 1681POPS   CNO20161   8.337   0.461  20.114  0.0023  0.0985 -0.0843
 1681POPS   PO420162   8.290   0.131  19.944 -0.1674 -0.1481  0.1500
 1681POPS   GL120163   8.600   0.210  19.711 -0.4539 -0.0887  0.1727
 1681POPS   GL220164   8.463   0.471  19.605  0.0845  0.0698  0.2726
 1681POPS   C1A20165   8.837   0.179  19.263  0.0627 -0.1623 -0.2146
 1681POPS   D2A20166   9.132   0.441  19.037  0.0070 -0.0751 -0.0310
 1681POPS   C3A20167   8.916   0.290  18.620 -0.0398 -0.0874  0.0223
 1681POPS   C4A20168   8.926   0.638  18.226 -0.1642  0.1729 -0.1766
 1681POPS   C1B20169   8.726   0.716  19.353  0.2570  0.0589 -0.3676
 1681POPS   C2B20170   8.984   1.066  19.103  0.2020 -0.0077 -0.3098
 1681POPS   C3B20171   9.101   1.360  18.793  0.5685  0.1677  0.0737
 1681POPS   C4B20172   9.072   1.517  18.318 -0.0855 -0.1716 -0.2141
 1682POPS   CNO20173  13.613   9.373  19.683  0.3236 -0.0376  0.1070
 1682POPS   PO420174  13.376   9.514  19.415 -0.0793  0.0057 -0.0620
 1682POPS   GL120175  13.426   9.627  19.000 -0.1715  0.0004  0.1976
 1682POPS   GL220176  13.132   9.554  18.857 -0.0429 -0.0434 -0.1515
 1682POPS   C1A20177  13.474   9.657  18.484 -0.1442  0.1842 -0.2703
 1682POPS   D2A20178  13.430   9.494  18.046 -0.0361 -0.3237 -0.0163
 1682POPS   C3A20179  13.138   9.408  17.680  0.3087  0.3351 -0.2568
 1682POPS   C4A20180  13.065   9.088  17.320 -0.1645 -0.0011  0.0347
 1682POPS   C1B20181  12.967   9.457  18.376  0.0179  0.1573 -0.1942
 1682POPS   C2B20182  12.661   9.748  18.098  0.0513 -0.1133  0.0568
 1682POPS   C3B20183  12.325  10.014  18.209  0.2115 -0.0961  0.0593
 1682POPS   C4B20184  12.076   9.947  18.574  0.3668  0.2196  0.0010
 1683POPS   CNO20185  16.207   8.364  19.219  0.2072 -0.0623 -0.0230
 1683POPS   PO420186  15.910   8.594  19.202  0.0835 -0.3374 -0.0340
 1683POPS   GL120187  16.023   8.751  18.869 -0.2087  0.2172 -0.1963
 1683POPS   GL220188  15.869   9.030  18.857  0.0224 -0.0010 -0.0168
 1683POPS   C1A20189  15.866   8.786  18.404  0.1804  0.0827 -0.0599
 1683POPS   D2A20190  15.821   8.703  17.935 -0.1038 -0.1051  0.3008
 1683POPS   C3A20191  15.974   8.969  17.553  0.3890  0.0365  0.2812
 1683POPS   C4A20192  15.887   9.195  17.074 -0.0779 -0.3375 -0.1372
 1683POPS   C1B20193  15.975   9.283  18.569 -0.1281  0.0987  0.0654
 1683POPS   C2B20194  16.035   9.543  18.188  0.0699 -0.3778 -0.0788
 1683POPS   C3B20195  16.143   9.649  17.734  0.1111  0.0072 -0.0364
 1683POPS   C4B20196  15.977   9.671  17.309 -0.0258  0.1443 -0.2818
 1684POPS   CNO20197  15.844  10.597  19.299 -0.0462 -0.0093  0.2560
 1684POPS   PO420198  15.897  10.596  18.907 -0.2827  0.1938 -0.0394
 1684POPS   GL120199  16.095  10.609  18.498  0.2392  0.3287  0.1253
 1684POPS   GL220200  15.998  10.410  18.360  0.1960 -0.3184  0.0140
 1684POPS   C1A20201  15.927  10.861  18.089 -0.2526 -0.1182  0.0298
 1684POPS   D2A20202  15.803  10.822  17.638  0.3030  0.2633  0.1393
 1684POPS   C3A20203  15.695  10.926  17.194  0.0325  0.0307 -0.0605
 1684POPS   C4A20204  15.697  10.689  16.810  0.0112 -0.0375  0.3169
 1684POPS   C1B20205  15.752  10.410  17.975  0.2702  0.2055  0.0888
 1684POPS   C2B20206  15.543  10.417  17.599 -0.3483 -0.3311  0.1075
 1684POPS   C3B20207  15.426  10.430  17.177  0.1159  0.1464  0.2182
 1684POPS   C4B20208  15.155  10.518  16.763  0.1107 -0.1015  0.0104
 1685POPS   CNO20209  10.345  25.500  19.368 -0.1934  0.1089  0.3040
 1685POPS   PO420210  10.538  25.498  19.097  0.0493  0.0328 -0.2298
 1685POPS   GL120211  10.646  25.461  18.729  0.2763 -0.1168  0.2357
 1685POPS   GL220212  10.836  25.670  18.669 -0.2690 -0.2030 -0.0845
 1685POPS   C1A20213  10.357  25.289  18.451 -0.0733  0.1964  0.2899
 1685POPS   D2A20214   9.998  25.208  18.155 -0.1830 -0.0510  0.2131
 1685POPS   C3A20215   9.957  25.349  17.743  0.1625 -0.0164  0.0995
 1685POPS   C4A20216  10.241  25.363  17.367  0.0861  0.3357  0.1126
 1685POPS   C1B20217  10.772  25.672  18.260  0.1790 -0.1030  0.1254
 1685POPS   C2B20218  10.856  25.688  17.849 -0.3725 -0.0543 -0.1039
 1685POPS   C3B20219  10.596  25.639  17.496  0.1738  0.3580 -0.1563
 1685POPS   C4B20220  10.414  25.796  17.100 -0.1349  0.1039 -0.0221
 1686POPS   CNO20221  16.292  18.937  19.896 -0.0130 -0.0624  0.0086
 1686POPS   PO420222  16.194  19.138  19.589  0.4173  0.1108  0.0399
 1686POPS   GL120223  16.466  19.125  19.264  0.0612 -0.2830 -0.0332
 1686POPS   GL220224  16.617  18.966  19.083  0.1758  0.1715 -0.0155
 1686POPS   C1A20225  16.643  19.571  19.093  0.1221  0.3581 -0.1334
 1686POPS   D2A20226  16.807  19.962  18.958  0.2723  0.1998  0.0160
 1686POPS   C3A20227  16.510  20.076  18.587  0.1742 -0.0644 -0.1522
 1686POPS   C4A20228  16.441  20.305  18.218 -0.1451 -0.1216  0.0601
 1686POPS   C1B20229  16.532  19.119  18.640 -0.2006 -0.1359 -0.1643
 1686POPS   C2B20230  16.731  18.997  18.272  0.1245 -0.2017 -0.1239
 1686POPS   C3B20231  16.828  19.057  17.826 -0.1141 -0.2546 -0.2082
 1686POPS   C4B20232  17.229  18.811  17.627  0.1041 -0.0669 -0.2566
 1687POPS   CNO20233  25.537  14.018  19.263  0.1371  0.1531  0.2005
 1687POPS   PO420234  25.227  13.872  19.124  0.2717 -0.0413 -0.2503
 1687POPS   GL120235  25.045  13.729  18.760 -0.0502  0.0117 -0.0150
 1687POPS   GL220236  25.242  13.871  18.596  0.2595  0.2150 -0.1101
 1687POPS   C1A20237  24.978  13.538  18.341 -0.3019  0.3311  0.2346
 1687POPS   D2A20238  24.739  13.091  18.294 -0.0557 -0.2502  0.0107
 1687POPS   C3A20239  24.478  13.058  17.980 -0.1451 -0.0109 -0.1047
 1687POPS   C4A20240  24.350  12.724  17.617  0.3497 -0.2437 -0.0110
 1687POPS   C1B20241  25.383  14.037  18.186 -0.0886 -0.0811 -0.1976
 1687POPS   C2B20242  25.541  13.988  17.758  0.1111 -0.2467 -0.0721
 1687POPS   C3B20243  25.628  14.006  17.316 -0.1023  0.1607 -0.1525
 1687POPS   C4B20244  25.820  14.222  16.960 -0.0083 -0.2727  0.0134
 1688POPS   CNO20245  15.437  19.846  20.126  0.0894 -0.2460  0.0334
 1688POPS   PO420246  15.323  19.741  19.813  0.6785  0.0003  0.2116
 1688POPS   GL120247  15.265  19.868  19.390 -0.0524 -0.0870  0.0876
 1688POPS   GL220248  15.498  19.649  19.300  0.1483  0.0612 -0.1261
 1688POPS   C1A20249  15.452  20.137  19.008 -0.1956  0.0470 -0.0155
 1688POPS   D2A20250  15.665  20.368  18.684 -0.2500  0.0670 -0.1974
 1688POPS   C3A20251  15.997  20.110  18.480  0.0847 -0.0641  0.0681
 1688POPS   C4A20252  16.141  19.753  18.317 -0.2036  0.1843 -0.2360
 1688POPS   C1B20253  15.838  19.738  18.968 -0.0243 -0.0621  0.2340
 1688POPS   C2B20254  16.266  19.560  18.823  0.1341 -0.0929 -0.0843
 1688POPS   C3B20255  16.642  19.609  18.547 -0.1239  0.2135  0.0648
 1688POPS   C4B20256  17.138  19.616  18.552 -0.1850  0.3325 -0.0086
 1689POPS   CNO20257  19.223   6.296  19.709  0.1763 -0.0179  0.0945
 1689POPS   PO420258  18.890   6.447  19.597 -0.2112 -0.0765 -0.2969
 1689POPS   GL120259  18.949   6.507  19.267  0.0375  0.3135 -0.3963
 1689POPS   GL220260  18.863   6.792  19.188  0.0351 -0.1059  0.0649
 1689POPS   C1A20261  18.877   6.271  18.861  0.2059 -0.0809  0.1294
 1689POPS   D2A20262  19.231   6.381  18.591  0.1140  0.1896  0.1077
 1689POPS   C3A20263  19.351   6.386  18.153  0.1069  0.0830 -0.1483
 1689POPS   C4A20264  19.418   6.473  17.731  0.1879 -0.2771  0.0231
 1689POPS   C1B20265  19.043   6.852  18.735  0.0235 -0.4914  0.1452
 1689POPS   C2B20266  19.089   6.806  18.313  0.0624 -0.0855 -0.2233
 1689POPS   C3B20267  19.072   6.861  17.888 -0.2666  0.0990  0.1325
 1689POPS   C4B20268  19.349   6.905  17.506  0.4141  0.0605  0.1210
 1690POPS   CNO20269  25.392   7.767  19.535 -0.1397  0.0123 -0.0929
 1690POPS   PO420270  25.150   7.656  19.236 -0.0045 -0.1212 -0.1202
 1690POPS   GL120271  24.857   7.613  18.908  0.0525  0.1058 -0.0824
 1690POPS   GL220272  24.799   7.369  18.736 -0.1723  0.1467 -0.0324
 1690POPS   C1A20273  24.952   7.698  18.405 -0.0035 -0.0864  0.0509
 1690POPS   D2A20274  24.965   7.581  17.947  0.1649 -0.1801 -0.3016
 1690POPS   C3A20275  24.796   7.272  17.608  0.0966  0.2472  0.0329
 1690POPS   C4A20276  24.809   7.105  17.228  0.3737 -0.1123 -0.0437
 1690POPS   C1B20277  24.606   7.272  18.302  0.1771 -0.1289 -0.2389
 1690POPS   C2B20278  24.625   6.978  17.939  0.1058  0.3112  0.1405
 1690POPS   C3B20279  24.456   6.906  17.503  0.1386 -0.3122  0.0495
 1690POPS   C4B20280  24.224   6.588  17.304  0.0206  0.0612  0.0642
 1691POPS   CNO20281  20.230   0.393  19.355  0.0566 -0.1663 -0.3469
 1691POPS   PO420282  19.897   0.391  19.234 -0.1779 -0.1761  0.0116
 1691POPS   GL120283  20.101   0.325  18.904  0.0931  0.4118  0.0563
 1691POPS   GL220284  19.942   0.064  18.844  0.0316  0.1186  0.0388
 1691POPS   C1A20285  20.303   0.303  18.468 -0.0964 -0.0493  0.1216
 1691POPS   D2A20286  20.235   0.114  18.084 -0.1007 -0.0866 -0.1245
 1691POPS   C3A20287  20.183  -0.097  17.639  0.1637 -0.0214 -0.0956
 1691POPS   C4A20288  20.100  -0.321  17.275  0.1207 -0.1355  0.1702
 1691POPS   C1B20289  19.769   0.079  18.412 -0.3004 -0.0444  0.2245
 1691POPS   C2B20290  19.718   0.209  17.967 -0.0450  0.0142 -0.2757
 1691POPS   C3B20291  19.513   0.282  17.574 -0.0848  0.1274 -0.1094
 1691POPS   C4B20292  19.591   0.602  17.266 -0.1217  0.0074  0.2723
 1692POPS   CNO20293   3.456  31.598  19.479  0.0202 -0.0169 -0.2055
 1692POPS   PO420294   3.481  31.658  19.100 -0.0982 -0.1582 -0.0299
 1692POPS   GL120295   3.402  31.839  18.853 -0.0287  0.1703 -0.0850
 1692POPS   GL220296   3.181  31.942  18.826  0.4494 -0.0203  0.1628
 1692POPS   C1A20297   3.672  32.019  18.505  0.0327  0.1631  0.1252
 1692POPS   D2A20298   4.117  32.259  18.344 -0.0832  0.1272  0.2382
 1692POPS   C3A20299   4.107  32.410  17.929 -0.1444  0.0947 -0.0934
 1692POPS   C4A20300   3.744  32.311  17.597 -0.0264  0.1303 -0.0982
 1692POPS   C1B20301   2.913  31.928  18.467 -0.1314  0.1378  0.1091
 1692POPS   C2B20302   2.880  31.771  18.018  0.3999  0.2650 -0.3191
 1692POPS   C3B20303   2.566  32.013  17.787  0.0196  0.0938 -0.3707
 1692POPS   C4B20304   2.261  32.170  17.460 -0.1484  0.1327  0.0539
 1693POPS   CNO20305   2.777   8.588  19.337 -0.0053  0.0138  0.0637
 1693POPS   PO420306   2.694   8.682  18.957 -0.1442 -0.0312  0.1424
 1693POPS   GL120307   2.791   8.627  18.585  0.0753  0.2644  0.0129
 1693POPS   GL220308   3.024   8.648  18.480 -0.0306 -0.0693  0.2282
 1693POPS   C1A20309   2.499   8.540  18.256  0.1402  0.0491  0.1791
 1693POPS   D2A20310   2.520   8.566  17.824  0.0295  0.3217 -0.1013
 1693POPS   C3A20311   2.348   8.460  17.396 -0.3759 -0.0221  0.0937
 1693POPS   C4A20312   1.993   8.744  17.206 -0.1392  0.0356  0.1819
 1693POPS   C1B20313   2.985   8.364  18.120 -0.1581 -0.1595 -0.0494
 1693POPS   C2B20314   3.150   8.314  17.652 -0.4759  0.1451 -0.0480
 1693POPS   C3B20315   3.246   7.898  17.445  0.0846 -0.1051  0.0399
 1693POPS   C4B20316   3.181   7.468  17.197  0.1477  0.1123  0.1581
 1694POPS   CNO20317   8.200  13.694  19.533 -0.3865  0.1339 -0.0375
 1694POPS   PO420318   8.061  13.364  19.398 -0.1855 -0.2212  0.1267
 1694POPS   GL120319   8.088  13.424  19.021 -0.3209  0.0462 -0.3910
 1694POPS   GL220320   8.279  13.378  18.835 -0.2711 -0.0489 -0.1988
 1694POPS   C1A20321   7.811  13.273  18.629  0.0442  0.2000  0.2518
 1694POPS   D2A20322   7.888  13.383  18.156 -0.3040  0.0394  0.2281
 1694POPS   C3A20323   7.885  13.378  17.663  0.0402  0.0839 -0.1276
 1694POPS   C4A20324   7.927  12.946  17.453  0.0422 -0.1706 -0.2367
 1694POPS   C1B20325   8.071  13.685  18.547  0.0458 -0.1343 -0.2989
 1694POPS   C2B20326   8.285  14.117  18.385 -0.4910  0.0996 -0.1678
 1694POPS   C3B20327   8.475  14.265  17.993  0.0820 -0.1621 -0.1540
 1694POPS   C4B20328   8.470  14.671  17.705  0.3969  0.0480  0.2214
 1695POPS   CNO20329  27.131  10.968  19.555  0.0365  0.0858  0.1917
 1695POPS   PO420330  27.343  10.717  19.345  0.2430  0.2234  0.2123
 1695POPS   GL120331  27.459  10.623  18.972  0.1287  0.2446 -0.4284
 1695POPS   GL220332  27.423  10.311  18.968 -0.1649 -0.2634 -0.1663
 1695POPS   C1A20333  27.273  10.865  18.647 -0.4586 -0.2708  0.0595
 1695POPS   D2A20334  27.266  10.962  18.196 -0.0847  0.1097  0.4126
 1695POPS   C3A20335  27.326  11.139  17.796 -0.0547 -0.0056 -0.0046
 1695POPS   C4A20336  27.332  11.277  17.345 -0.0627  0.1565 -0.0352
 1695POPS   C1B20337  27.531  10.446  18.575 -0.1530 -0.0624 -0.0258
 1695POPS   C2B20338  27.596  10.619  18.176 -0.0850  0.0970 -0.0379
 1695POPS   C3B20339  27.562  10.756  17.731  0.2512  0.2577 -0.2888
 1695POPS   C4B20340  27.722  10.992  17.372 -0.0813  0.2249  0.0862
 1696POPS   CNO20341  26.868  12.836  19.825  0.0959 -0.3677 -0.3656
 1696POPS   PO420342  27.037  12.766  19.498 -0.0154 -0.3242 -0.1297
 1696POPS   GL120343  27.002  12.745  19.082 -0.1492 -0.0241  0.2079
 1696POPS   GL220344  27.174  12.508  19.059 -0.3538  0.1369 -0.2520
 1696POPS   C1A20345  26.791  12.535  18.701  0.3265 -0.2769 -0.0267
 1696POPS   D2A20346  26.473  12.407  18.360 -0.1305  0.0597 -0.2460
 1696POPS   C3A20347  26.498  12.475  17.880 -0.0731 -0.0760  0.1406
 1696POPS   C4A20348  26.450  12.730  17.528  0.5419  0.1193 -0.0100
 1696POPS   C1B20349  27.289  12.630  18.639 -0.1667  0.0959 -0.0873
 1696POPS   C2B20350  27.557  12.748  18.302 -0.1438 -0.1264  0.0528
 1696POPS   C3B20351  27.834  12.561  17.993 -0.0920 -0.1000  0.2217
 1696POPS   C4B20352  28.286  12.653  17.909 -0.0481 -0.0651 -0.1991
 1697POPS   CNO20353  22.306  14.797  20.270  0.4554 -0.4006 -0.2291
 1697POPS   PO420354  22.653  14.765  20.044  0.0938 -0.0428  0.2848
 1697POPS   GL120355  22.872  15.110  20.078  0.0805  0.0617 -0.0447
 1697POPS   GL220356  23.100  14.965  20.001 -0.0318 -0.0887 -0.2041
 1697POPS   C1A20357  22.974  15.559  20.175 -0.0162 -0.1567 -0.0671
 1697POPS   D2A20358  23.062  16.017  20.144  0.1401 -0.0593 -0.4073
 1697POPS   C3A20359  23.412  16.235  20.167  0.0139  0.2890  0.3060
 1697POPS   C4A20360  23.835  16.397  20.224 -0.2825  0.0430 -0.0173
 1697POPS   C1B20361  23.318  15.198  19.681 -0.2875  0.1054  0.1809
 1697POPS   C2B20362  23.332  15.192  19.205 -0.3011 -0.0517 -0.4332
 1697POPS   C3B20363  23.071  15.083  18.784  0.0977  0.1285 -0.0222
 1697POPS   C4B20364  22.951  15.365  18.459  0.3957  0.0098  0.2375
 1698POPS   CNO20365  15.361   2.092  19.593 -0.2218 -0.3306  0.0225
 1698POPS   PO420366  15.416   1.755  19.382 -0.0509 -0.0243  0.1813
 1698POPS   GL120367  15.335   2.095  19.087  0.1290 -0.1331 -0.5218
 1698POPS   GL220368  15.149   2.290  19.168 -0.0953 -0.0742  0.0705
 1698POPS   C1A20369  15.518   2.122  18.665  0.0036 -0.0641  0.0203
 1698POPS   D2A20370  15.579   1.998  18.237 -0.1130  0.3796  0.0119
 1698POPS   C3A20371  15.452   2.246  17.929  0.0848  0.1431 -0.0599
 1698POPS   C4A20372  15.442   2.331  17.500 -0.0218 -0.0811  0.0022
 1698POPS   C1B20373  15.086   2.441  18.750 -0.0238  0.0096  0.1399
 1698POPS   C2B20374  15.126   2.396  18.276  0.2160  0.0443 -0.0963
 1698POPS   C3B20375  14.901   2.677  17.945 -0.2047 -0.3075 -0.0178
 1698POPS   C4B20376  14.728   2.933  17.586 -0.2661  0.0467  0.1770
 1699POPS   CNO20377  29.693   5.586  19.715  0.0502 -0.2622 -0.1192
 1699POPS   PO420378  29.571   5.561  19.377 -0.1938 -0.1601 -0.2581
 1699POPS   GL120379  29.585   5.426  18.978  0.3833  0.1545 -0.1164
 1699POPS   GL220380  29.849   5.474  18.954 -0.1234  0.0739 -0.0244
 1699POPS   C1A20381  29.690   5.174  18.609  0.0054  0.0351 -0.0885
 1699POPS   D2A20382  29.933   4.972  18.282  0.2251  0.0964  0.3374
 1699POPS   C3A20383  29.986   4.906  17.859  0.1971  0.2767  0.0495
 1699POPS   C4A20384  30.049   4.613  17.499  0.1173 -0.1598  0.2078
 1699POPS   C1B20385  30.117   5.411  18.545  0.1485  0.0281  0.1137
 1699POPS   C2B20386  30.340   5.204  18.181 -0.1388  0.1170 -0.0086
 1699POPS   C3B20387  30.478   4.880  17.847 -0.0240  0.1556 -0.1001
 1699POPS   C4B20388  30.560   4.731  17.404 -0.4362 -0.2968  0.0217
 1700POPS   CNO20389  18.126  17.303  19.581  0.3127 -0.3669  0.1447
 1700POPS   PO420390  18.204  17.139  19.213 -0.0879  0.3320  0.0384
 1700POPS   GL120391  18.126  17.427  18.845  0.1416  0.1307  0.2075
 1700POPS   GL220392  18.376  17.437  18.762  0.1544 -0.0100  0.0196
 1700POPS   C1A20393  17.874  17.433  18.443  0.0863  0.2888 -0.1108
 1700POPS   D2A20394  17.720  17.305  18.030  0.1229  0.3779  0.0927
 1700POPS   C3A20395  17.528  17.571  17.729 -0.0091  0.1241 -0.0312
 1700POPS   C4A20396  17.238  17.957  17.657 -0.0574  0.3897 -0.1897
 1700POPS   C1B20397  18.389  17.459  18.316  0.2007 -0.2007  0.4060
 1700POPS   C2B20398  18.223  17.539  17.842  0.4118 -0.0097 -0.2988
 1700POPS   C3B20399  17.978  17.477  17.480  0.1965 -0.1024  0.0222
 1700POPS   C4B20400  17.550  17.376  17.242  0.2640  0.1028 -0.1607
 1701POPS   CNO20401  21.333  13.667  19.238 -0.3622  0.0398 -0.0404
 1701POPS   PO420402  21.036  13.472  19.103  0.3083  0.1918 -0.1188
 1701POPS   GL120403  21.218  13.440  18.791 -0.2863 -0.0243 -0.1094
 1701POPS   GL220404  21.136  13.103  18.758  0.0696  0.2075 -0.1806
 1701POPS   C1A20405  21.535  13.662  18.523  0.0473 -0.0527  0.2032
 1701POPS   D2A20406  21.682  13.635  18.080  0.1764 -0.2767 -0.0821
 1701POPS   C3A20407  22.152  13.512  18.071 -0.0317  0.2556 -0.3897
 1701POPS   C4A20408  22.488  13.486  18.382 -0.1704 -0.2770  0.1605
 1701POPS   C1B20409  21.316  13.270  18.410  0.0410 -0.1297  0.1532
 1701POPS   C2B20410  21.425  13.272  17.922 -0.1215  0.0324 -0.0904
 1701POPS   C3B20411  21.763  13.350  17.594 -0.0258  0.1256 -0.3067
 1701POPS   C4B20412  22.156  13.495  17.593 -0.0389 -0.0174 -0.2924
 1702POPS   CNO20413  18.273  26.949  20.055 -0.0196 -0.0869  0.2662
 1702POPS   PO420414  17.935  26.846  19.919 -0.4458  0.1233 -0.2056
 1702POPS   GL120415  17.750  27.002  19.549  0.1349 -0.1779  0.1599
 1702POPS   GL220416  17.674  26.764  19.448 -0.0882 -0.2085  0.1527
 1702POPS   C1A20417  17.746  27.067  19.063  0.1144 -0.0573 -0.2017
 1702POPS   D2A20418  17.806  26.957  18.606 -0.0887  0.0263  0.0645
 1702POPS   C3A20419  17.807  27.174  18.189  0.0865 -0.0674 -0.1038
 1702POPS   C4A20420  17.728  27.395  17.810  0.1713  0.0871 -0.4539
 1702POPS   C1B20421  17.510  26.506  19.066  0.2101 -0.1267  0.1514
 1702POPS   C2B20422  17.416  26.653  18.621  0.2198 -0.2589 -0.0145
 1702POPS   C3B20423  17.380  26.826  18.177 -0.3402  0.0244  0.1159
 1702POPS   C4B20424  17.406  26.954  17.758  0.1083  0.0910 -0.3442
 1703POPS   CNO20425  18.832  30.279  19.881  0.1006  0.0708 -0.0517
 1703POPS   PO420426  18.816  29.933  19.644  0.0682  0.3070 -0.2494
 1703POPS   GL120427  18.741  29.958  19.269 -0.1370 -0.0912  0.3396
 1703POPS   GL220428  18.992  30.034  19.166  0.0718  0.0788  0.1681
 1703POPS   C1A20429  18.665  29.697  18.904  0.1348 -0.1920 -0.0118
 1703POPS   D2A20430  18.477  29.643  18.449  0.2862 -0.3905  0.2312
 1703POPS   C3A20431  18.665  29.525  18.072 -0.2154 -0.1280 -0.1093
 1703POPS   C4A20432  18.996  29.423  17.768 -0.2097 -0.4371 -0.1010
 1703POPS   C1B20433  18.867  30.028  18.663  0.1098  0.2310 -0.0546
 1703POPS   C2B20434  18.740  30.069  18.200  0.0484  0.0011 -0.0095
 1703POPS   C3B20435  18.469  29.956  17.837 -0.1854 -0.0117  0.2571
 1703POPS   C4B20436  18.075  29.786  17.820 -0.1168  0.3458 -0.0390
 1704POPS   CNO20437   7.123  13.113  19.447  0.0084  0.0339 -0.0403
 1704POPS   PO420438   7.297  13.091  19.109 -0.0020  0.0721  0.0047
 1704POPS   GL120439   7.305  13.384  18.780  0.0076  0.1235  0.1055
 1704POPS   GL220440   7.478  13.622  18.777  0.2634 -0.0762  0.0557
 1704POPS   C1A20441   7.352  13.241  18.339  0.1320  0.2773 -0.0043
 1704POPS   D2A20442   7.349  13.329  17.853 -0.0896  0.0613 -0.1187
 1704POPS   C3A20443   7.416  13.034  17.552  0.2324  0.0532 -0.1148
 1704POPS   C4A20444   7.628  12.573  17.492 -0.2988 -0.0814 -0.2279
 1704POPS   C1B20445   7.612  13.745  18.311  0.1457  0.1560 -0.0972
 1704POPS   C2B20446   7.609  13.763  17.811 -0.1534  0.0557 -0.0752
 1704POPS   C3B20447   7.389  13.587  17.415  0.2362 -0.2615 -0.1093
 1704POPS   C4B20448   7.401  13.255  17.077  0.1755 -0.1659  0.2706
 1705POPS   CNO20449   6.951  24.763  19.464  0.1598 -0.0729 -0.0200
 1705POPS   PO420450   6.617  24.667  19.381  0.0415  0.1176 -0.3036
 1705POPS   GL120451   6.595  24.493  19.054 -0.1067  0.0038  0.0336
 1705POPS   GL220452   6.880  24.311  18.944 -0.1405  0.2660 -0.3105
 1705POPS   C1A20453   6.272  24.627  18.704 -0.1173  0.1056 -0.2446
 1705POPS   D2A20454   5.894  24.721  18.439 -0.1025 -0.2234  0.1208
 1705POPS   C3A20455   5.755  24.437  18.095  0.1956  0.0058 -0.0439
 1705POPS   C4A20456   5.539  24.314  17.705  0.1609  0.4334 -0.2040
 1705POPS   C1B20457   6.754  24.641  18.647  0.0242  0.0371  0.0208
 1705POPS   C2B20458   7.040  24.747  18.293  0.1035 -0.1425 -0.4032
 1705POPS   C3B20459   6.978  24.756  17.850  0.0335 -0.1681  0.2734
 1705POPS   C4B20460   6.920  24.518  17.490  0.0011  0.1895 -0.0681
 1706POPS   CNO20461  29.179   6.687  18.971  0.0862  0.1997  0.2063
 1706POPS   PO420462  29.413   6.905  18.782 -0.4150 -0.4385 -0.0506
 1706POPS   GL120463  29.523   6.671  18.508  0.3468 -0.1565 -0.3130
 1706POPS   GL220464  29.375   6.406  18.626 -0.3187  0.1125  0.0149
 1706POPS   C1A20465  29.587   6.444  18.074  0.1828  0.1106  0.4639
 1706POPS   D2A20466  29.357   6.249  17.782  0.1342 -0.0522 -0.0909
 1706POPS   C3A20467  29.536   6.014  17.373 -0.1157 -0.2118 -0.1713
 1706POPS   C4A20468  29.569   5.868  16.893 -0.2873  0.1178 -0.1084
 1706POPS   C1B20469  29.339   6.079  18.342  0.1027 -0.0942 -0.2425
 1706POPS   C2B20470  29.416   5.801  17.979  0.1545  0.3507  0.1702
 1706POPS   C3B20471  29.282   5.618  17.568  0.1058 -0.3304 -0.0721
 1706POPS   C4B20472  29.207   5.702  17.165 -0.0350 -0.3224  0.0180
 1707POPS   CNO20473   1.393   3.904  19.476 -0.1576  0.1834 -0.0365
 1707POPS   PO420474   1.066   4.053  19.352 -0.0188 -0.0613 -0.1318
 1707POPS   GL120475   1.191   4.290  18.960  0.3267 -0.2697 -0.1941
 1707POPS   GL220476   1.233   4.103  18.831 -0.0060 -0.4768  0.1647
 1707POPS   C1A20477   1.315   4.637  18.658  0.1295  0.0399  0.0638
 1707POPS   D2A20478   1.709   4.528  18.437  0.1076 -0.2423 -0.1065
 1707POPS   C3A20479   1.742   4.612  17.979 -0.0926 -0.1494  0.4112
 1707POPS   C4A20480   1.560   4.530  17.567 -0.0663 -0.0227 -0.2139
 1707POPS   C1B20481   1.286   4.163  18.363 -0.2075  0.0314  0.1929
 1707POPS   C2B20482   1.398   4.147  17.924 -0.0757  0.2726 -0.4854
 1707POPS   C3B20483   1.254   4.131  17.490  0.1893  0.1678  0.1922
 1707POPS   C4B20484   1.305   4.107  17.020  0.2153  0.1384  0.2650
 1708POPS   CNO20485   2.679  27.781  19.634 -0.0682 -0.1013 -0.1032
 1708POPS   PO420486   2.685  27.909  19.273 -0.0078 -0.3190  0.1493
 1708POPS   GL120487   2.545  27.916  18.915 -0.1335  0.0749 -0.3119
 1708POPS   GL220488   2.492  28.205  18.905  0.0623 -0.3823 -0.1357
 1708POPS   C1A20489   2.418  27.875  18.497  0.1238  0.1141 -0.0970
 1708POPS   D2A20490   2.300  27.916  18.037 -0.2030 -0.1507 -0.1766
 1708POPS   C3A20491   2.366  28.283  17.760 -0.0918 -0.2621 -0.1407
 1708POPS   C4A20492   2.753  28.521  17.773 -0.1274 -0.0471  0.2902
 1708POPS   C1B20493   2.193  28.364  18.534 -0.2822 -0.1756 -0.1210
 1708POPS   C2B20494   1.960  28.290  18.192  0.0122  0.4032  0.0689
 1708POPS   C3B20495   1.847  28.425  17.738  0.2020 -0.2344  0.1074
 1708POPS   C4B20496   2.027  28.322  17.307 -0.0612 -0.1191 -0.0266
 1709POPS   CNO20497  16.565  16.592  19.375  0.0816  0.1620  0.3052
 1709POPS   PO420498  16.566  16.596  18.987  0.2610  0.1824  0.0866
 1709POPS   GL120499  16.448  16.842  18.662 -0.1242  0.0823  0.2396
 1709POPS   GL220500  16.680  16.967  18.668 -0.0482 -0.0103  0.2033
 1709POPS   C1A20501  16.286  17.042  18.261 -0.1370  0.0129 -0.0185
 1709POPS   D2A20502  16.296  17.377  17.989 -0.3077 -0.1613  0.1330
 1709POPS   C3A20503  16.260  17.371  17.530 -0.2521 -0.0623  0.1426
 1709POPS   C4A20504  16.309  17.043  17.230 -0.1063  0.2287 -0.0035
 1709POPS   C1B20505  16.784  16.950  18.243  0.0773 -0.1088  0.1914
 1709POPS   C2B20506  16.915  16.659  17.893 -0.1558 -0.1505 -0.0587
 1709POPS   C3B20507  17.172  16.526  17.519  0.0209  0.0010 -0.1476
 1709POPS   C4B20508  17.492  16.189  17.402  0.4514  0.0574 -0.1249
 1710POPS   CNO20509  20.933  17.911  19.998  0.0251 -0.2146  0.0680
 1710POPS   PO420510  20.782  18.201  19.768  0.3067 -0.1643  0.1198
 1710POPS   GL120511  21.137  18.553  19.605  0.1266 -0.1004 -0.2139
 1710POPS   GL220512  20.993  18.504  19.294  0.2620 -0.2722 -0.0716
 1710POPS   C1A20513  21.195  18.954  19.890  0.1824  0.1647  0.0148
 1710POPS   D2A20514  21.402  19.014  20.315 -0.0540 -0.1874 -0.0004
 1710POPS   C3A20515  21.691  18.671  20.467  0.0248 -0.2944 -0.0326
 1710POPS   C4A20516  22.040  18.385  20.360  0.3070 -0.4348  0.2685
 1710POPS   C1B20517  21.441  18.415  19.184  0.0104 -0.0083 -0.1781
 1710POPS   C2B20518  21.882  18.477  19.206 -0.1903  0.1618  0.4125
 1710POPS   C3B20519  22.088  18.633  19.536 -0.1829  0.0310 -0.1886
 1710POPS   C4B20520  22.319  18.551  19.913  0.1821  0.0620 -0.0918
 1711POPS   CNO20521  29.083  29.487  19.251  0.2028  0.2216  0.2550
 1711POPS   PO420522  29.151  29.820  19.404  0.1710  0.0615 -0.0292
 1711POPS   GL120523  29.256  29.827  18.983  0.2240 -0.1792 -0.1164
 1711POPS   GL220524  29.442  30.033  19.024 -0.2074  0.1702 -0.0636
 1711POPS   C1A20525  29.202  29.493  18.665 -0.1147 -0.2887  0.1281
 1711POPS   D2A20526  29.158  29.082  18.725  0.1275  0.0298  0.1577
 1711POPS   C3A20527  29.126  28.844  18.354 -0.2393 -0.2505  0.0227
 1711POPS   C4A20528  28.900  28.840  17.971  0.1226  0.2217 -0.2445
 1711POPS   C1B20529  29.722  30.177  18.673  0.2806 -0.2023 -0.1411
 1711POPS   C2B20530  29.873  30.073  18.244 -0.1938  0.0017  0.0615
 1711POPS   C3B20531  29.861  30.107  17.789  0.0558  0.0717  0.1505
 1711POPS   C4B20532  30.185  30.151  17.456  0.1322  0.0290  0.1037
 1712POPS   CNO20533   1.559  17.773  19.534  0.1147  0.0834 -0.4101
 1712POPS   PO420534   1.251  17.595  19.617  0.2497  0.1208 -0.0212
 1712POPS   GL120535   1.299  17.511  19.203  0.0494  0.6062 -0.1617
 1712POPS   GL220536   1.390  17.657  19.086 -0.0418 -0.0785 -0.1446
 1712POPS   C1A20537   1.214  17.284  18.805  0.0959 -0.1823  0.1760
 1712POPS   D2A20538   1.474  17.371  18.430 -0.3017  0.1563  0.1281
 1712POPS   C3A20539   1.649  17.777  18.274  0.0370 -0.0511  0.0439
 1712POPS   C4A20540   1.921  17.894  17.928  0.2281 -0.2812 -0.0228
 1712POPS   C1B20541   1.616  17.872  18.727  0.0521  0.1883  0.0936
 1712POPS   C2B20542   1.954  18.132  18.443 -0.0258 -0.0201  0.1548
 1712POPS   C3B20543   2.378  17.965  18.224 -0.2571 -0.4591  0.1822
 1712POPS   C4B20544   2.441  17.592  17.953  0.1758 -0.0084 -0.2519
 1713POPS   CNO20545   7.321   3.817  19.330  0.2530  0.0842  0.1836
 1713POPS   PO420546   7.663   3.670  19.169  0.1999 -0.0546  0.1096
 1713POPS   GL120547   7.689   3.758  18.774 -0.0116  0.1459  0.1181
 1713POPS   GL220548   7.969   3.730  18.730  0.3838 -0.1529 -0.1580
 1713POPS   C1A20549   7.332   3.619  18.493  0.0475 -0.1903 -0.1530
 1713POPS   D2A20550   7.352   3.393  18.108 -0.2473 -0.0663  0.1793
 1713POPS   C3A20551   7.708   3.251  17.952 -0.0430 -0.0026 -0.1110
 1713POPS   C4A20552   7.928   2.863  18.147  0.1562 -0.0623  0.3102
 1713POPS   C1B20553   8.094   4.067  18.492  0.1081 -0.0262  0.1494
 1713POPS   C2B20554   8.218   4.159  18.100  0.0343 -0.2235 -0.0763
 1713POPS   C3B20555   8.293   4.223  17.630  0.0426 -0.1114 -0.3636
 1713POPS   C4B20556   8.487   4.436  17.218 -0.2536  0.2942  0.1076
 1714POPS   CNO20557   5.100   8.520  19.600 -0.1637 -0.0232  0.0366
 1714POPS   PO420558   5.084   8.552  19.224 -0.0363  0.0070  0.2486
 1714POPS   GL120559   5.135   8.666  18.839  0.1421  0.1148  0.2085
 1714POPS   GL220560   4.867   8.843  18.773  0.0280 -0.3589  0.3206
 1714POPS   C1A20561   5.199   8.910  18.394  0.1327  0.1285 -0.2557
 1714POPS   D2A20562   4.972   8.884  18.031 -0.1139  0.2030  0.0932
 1714POPS   C3A20563   5.122   9.011  17.587 -0.1573  0.1104 -0.3185
 1714POPS   C4A20564   5.034   9.314  17.305 -0.0416  0.2011 -0.0898
 1714POPS   C1B20565   4.836   8.489  18.510  0.1273  0.0629  0.2459
 1714POPS   C2B20566   4.580   8.095  18.398  0.2944  0.1233  0.3154
 1714POPS   C3B20567   4.528   7.766  18.051 -0.0789  0.0670 -0.2728
 1714POPS   C4B20568   4.871   7.488  17.834 -0.0901  0.3309 -0.0852
 1715POPS   CNO20569  29.075  29.058  19.574 -0.1067 -0.0117  0.2118
 1715POPS   PO420570  28.943  28.959  19.243 -0.0349  0.0393  0.1809
 1715POPS   GL120571  28.800  28.820  18.832 -0.1933 -0.4391 -0.0113
 1715POPS   GL220572  28.950  28.614  18.751 -0.2232 -0.3152 -0.2236
 1715POPS   C1A20573  28.689  29.041  18.421 -0.3060  0.1801  0.0891
 1715POPS   D2A20574  28.519  29.316  18.076 -0.0084  0.1992  0.3870
 1715POPS   C3A20575  28.565  29.114  17.669  0.1275 -0.0887  0.2004
 1715POPS   C4A20576  28.671  28.886  17.350 -0.1300  0.2135  0.1237
 1715POPS   C1B20577  28.684  28.461  18.342  0.0805  0.2889 -0.5683
 1715POPS   C2B20578  28.431  28.687  18.066 -0.0043  0.2005 -0.2820
 1715POPS   C3B20579  28.246  28.670  17.642  0.1144 -0.1745  0.1239
 1715POPS   C4B20580  27.888  28.434  17.386  0.0253 -0.2779 -0.1556
 1716POPS   CNO20581  18.522  28.387  19.262  0.1585 -0.0811  0.0037
 1716POPS   PO420582  18.385  28.069  19.466 -0.0911  0.0382  0.0962
 1716POPS   GL120583  18.223  28.136  19.040  0.1592  0.2441 -0.3179
 1716POPS   GL220584  18.201  27.866  19.027 -0.2577  0.2442 -0.1583
 1716POPS   C1A20585  18.584  28.075  18.720 -0.0118 -0.0977  0.1461
 1716POPS   D2A20586  18.667  28.342  18.414 -0.3774  0.1283  0.1549
 1716POPS   C3A20587  18.658  28.180  17.946 -0.0533  0.0211 -0.1186
 1716POPS   C4A20588  18.507  28.094  17.518  0.0825  0.0878  0.2053
 1716POPS   C1B20589  17.868  27.911  18.728  0.0615  0.0291  0.1497
 1716POPS   C2B20590  17.688  27.844  18.284 -0.1367  0.0077  0.0331
 1716POPS   C3B20591  17.472  27.833  17.857 -0.3525  0.0916 -0.0331
 1716POPS   C4B20592  17.681  27.843  17.462  0.1111  0.1415 -0.1360
 1717POPS   CNO20593  30.407   6.100  19.484  0.1925 -0.0277 -0.1524
 1717POPS   PO420594  30.597   6.349  19.252  0.1438  0.0594  0.0205
 1717POPS   GL120595  30.808   6.484  18.905 -0.1114 -0.1537  0.3586
 1717POPS   GL220596  30.751   6.254  18.770 -0.3097  0.0849 -0.0252
 1717POPS   C1A20597  30.775   6.767  18.560 -0.0011 -0.0766  0.2311
 1717POPS   D2A20598  30.851   7.069  18.222  0.1487 -0.1096  0.2158
 1717POPS   C3A20599  30.774   6.984  17.782 -0.0969 -0.1378  0.0477
 1717POPS   C4A20600  30.432   6.985  17.475 -0.3773  0.2369  0.0163
 1717POPS   C1B20601  30.570   6.353  18.363 -0.1578  0.1664  0.1344
 1717POPS   C2B20602  30.601   6.283  17.886 -0.3651 -0.0662 -0.1786
 1717POPS   C3B20603  30.763   6.132  17.468  0.5204  0.0227 -0.0108
 1717POPS   C4B20604  30.696   5.679  17.293 -0.0134 -0.3185 -0.0317
 1718POPS   CNO20605   9.925  10.026  19.559 -0.0694  0.2818 -0.0957
 1718POPS   PO420606   9.718  10.316  19.626  0.5055  0.1318 -0.0375
 1718POPS   GL120607   9.602  10.268  19.227  0.1509 -0.1569 -0.1017
 1718POPS   GL220608   9.718  10.538  19.067  0.2399  0.0463 -0.1929
 1718POPS   C1A20609   9.763   9.892  19.027 -0.2398 -0.0314  0.0004
 1718POPS   D2A20610  10.136   9.661  19.021 -0.0730 -0.3297 -0.0239
 1718POPS   C3A20611  10.178   9.361  18.691 -0.3453  0.0055 -0.0046
 1718POPS   C4A20612  10.485   8.996  18.483 -0.1394 -0.2930 -0.2050
 1718POPS   C1B20613   9.687  10.232  18.672  0.2777 -0.0545  0.1865
 1718POPS   C2B20614   9.663  10.088  18.180  0.0870  0.0666 -0.1043
 1718POPS   C3B20615   9.557  10.168  17.692 -0.1861  0.2725  0.1372
 1718POPS   C4B20616   9.464  10.029  17.272  0.2445 -0.0102 -0.0302
 1719POPS   CNO20617  17.879   6.471  19.487 -0.2771 -0.1209  0.0310
 1719POPS   PO420618  18.059   6.225  19.279  0.0405  0.1823 -0.2505
 1719POPS   GL120619  17.976   5.978  18.918 -0.1673 -0.1854  0.0996
 1719POPS   GL220620  18.200   6.221  18.775  0.2333 -0.0286 -0.1473
 1719POPS   C1A20621  18.091   5.730  18.553  0.1185  0.0843  0.2715
 1719POPS   D2A20622  18.321   5.628  18.206  0.1057 -0.1023 -0.0207
 1719POPS   C3A20623  18.126   5.379  17.840 -0.2361 -0.0945  0.1849
 1719POPS   C4A20624  17.806   5.284  17.578 -0.1489  0.0202 -0.2983
 1719POPS   C1B20625  18.092   6.399  18.366 -0.3130 -0.1720 -0.1932
 1719POPS   C2B20626  17.719   6.613  18.155  0.0598 -0.0701  0.1130
 1719POPS   C3B20627  17.680   6.835  17.768 -0.0927  0.4282 -0.3428
 1719POPS   C4B20628  18.044   6.801  17.496  0.2786 -0.2914  0.2533
 1720SAP2    C120629  23.879  13.806  19.707  0.0018  0.0134 -0.1582
 1720SAP2    C220630  24.126  13.683  19.686  0.1758  0.3362 -0.0704
 1720SAP2    C320631  23.970  13.757  19.974 -0.2387 -0.2641 -0.1220
 1720SAP2    C420632  23.992  13.749  19.789 -0.0007 -0.0007  0.6972
 1720SAP2   PO420633  23.617  13.685  19.506  0.3104 -0.1172 -0.3595
 1720SAP2    P420634  24.118  13.611  20.198 -0.0710 -0.1708  0.0607
 1720SAP2    P520635  24.402  13.553  19.775 -0.0019 -0.0826 -0.0072
 1720SAP2   GL120636  23.723  13.514  19.125  0.0939  0.1266  0.0641
 1720SAP2   GL220637  23.502  13.471  19.071  0.2307 -0.1011 -0.2300
 1720SAP2   D1A20638  24.158  13.474  18.868  0.3681  0.0591 -0.0189
 1720SAP2   D2A20639  23.793  13.651  18.624  0.1417 -0.0956 -0.1373
 1720SAP2   D3A20640  23.884  13.865  18.190 -0.0347  0.0744 -0.2612
 1720SAP2   D4A20641  24.028  13.836  17.719  0.0635 -0.1552 -0.0162
 1720SAP2   C5A20642  24.435  14.074  17.725 -0.6005 -0.1063 -0.0148
 1720SAP2   C1B20643  23.322  13.266  18.643 -0.0701 -0.0827  0.1713
 1720SAP2   C2B20644  23.583  13.308  18.251 -0.1364 -0.1362 -0.2279
 1720SAP2   C3B20645  23.627  12.974  17.892  0.2775 -0.0557 -0.1956
 1720SAP2   C4B20646  23.401  12.804  17.549 -0.1160  0.3234 -0.1024
 1721SAP2    C120647   6.804  21.217  20.654 -0.0574  0.1399  0.0121
 1721SAP2    C220648   6.741  21.232  20.923  0.0518  0.0578  0.0430
 1721SAP2    C320649   6.675  20.970  20.723  0.2506 -0.0111  0.0651
 1721SAP2    C420650   6.740  21.139  20.767 -0.0007 -0.0007  0.6972
 1721SAP2   PO420651   7.082  21.337  20.641 -0.3107 -0.4169  0.1144
 1721SAP2    P420652   6.468  20.790  20.831 -0.0546 -0.0707 -0.2074
 1721SAP2    P520653   6.596  21.145  21.138  0.1099 -0.0107  0.1902
 1721SAP2   GL120654   7.301  21.489  20.426 -0.2845 -0.0935 -0.1310
 1721SAP2   GL220655   7.207  21.563  20.191  0.0980 -0.0252 -0.0411
 1721SAP2   D1A20656   7.734  21.448  20.281 -0.1460 -0.0185 -0.1974
 1721SAP2   D2A20657   7.620  21.137  19.987  0.1208  0.3104 -0.1268
 1721SAP2   D3A20658   8.006  21.129  19.898  0.0556 -0.1906  0.0425
 1721SAP2   D4A20659   7.922  21.424  19.575  0.1086  0.0509 -0.2080
 1721SAP2   C5A20660   7.827  21.408  19.174 -0.2411  0.1016 -0.0011
 1721SAP2   C1B20661   6.987  21.772  19.852  0.1467  0.1566 -0.0837
 1721SAP2   C2B20662   6.940  21.868  19.431  0.0202  0.0872 -0.1210
 1721SAP2   C3B20663   7.108  22.230  19.175 -0.2792  0.1928  0.0128
 1721SAP2   C4B20664   7.364  22.542  18.897 -0.1103  0.3452  0.1137
 1722SAP2    C120665   7.102  20.536  20.317  0.3053  0.1344 -0.0166
 1722SAP2    C220666   7.304  20.585  20.500  0.1872  0.0079  0.1513
 1722SAP2    C320667   7.166  20.285  20.440 -0.1277  0.1341  0.2268
 1722SAP2    C420668   7.191  20.468  20.419 -0.0007 -0.0007  0.6972
 1722SAP2   PO420669   7.089  20.751  20.082 -0.0301  0.0468  0.0961
 1722SAP2    P420670   7.384  20.170  20.706 -0.0746 -0.0663  0.0842
 1722SAP2    P520671   7.423  20.659  20.725  0.0840 -0.0539  0.0923
 1722SAP2   GL120672   7.332  20.849  19.818  0.1914 -0.1102 -0.0961
 1722SAP2   GL220673   7.126  21.039  19.797  0.0566  0.0140  0.3104
 1722SAP2   D1A20674   7.610  21.034  19.503  0.2372  0.3237  0.0916
 1722SAP2   D2A20675   8.046  20.904  19.423 -0.1750 -0.0195 -0.0332
 1722SAP2   D3A20676   8.301  21.079  19.086  0.3190 -0.0561 -0.2683
 1722SAP2   D4A20677   8.407  21.318  19.496  0.1934 -0.0075  0.2427
 1722SAP2   C5A20678   8.293  21.541  19.150 -0.2060  0.1175 -0.1830
 1722SAP2   C1B20679   7.346  21.391  19.638  0.3855 -0.0144  0.3178
 1722SAP2   C2B20680   7.501  21.715  19.359  0.1556 -0.0137  0.0032
 1722SAP2   C3B20681   7.536  21.987  18.982 -0.0645 -0.0415  0.3224
 1722SAP2   C4B20682   7.675  22.061  18.530 -0.0593  0.3036 -0.1808
 1723SAP2    C120683  30.453  27.482  19.781  0.1774 -0.0854 -0.0436
 1723SAP2    C220684  30.256  27.492  19.975  0.1044  0.1867 -0.1269
 1723SAP2    C320685  30.582  27.432  20.032 -0.0056 -0.3360  0.0037
 1723SAP2    C420686  30.430  27.469  19.929 -0.0007 -0.0007  0.6972
 1723SAP2   PO420687  30.365  27.744  19.600 -0.1731 -0.1409 -0.3220
 1723SAP2    P420688  30.601  27.474  20.340  0.1866  0.0321 -0.0892
 1723SAP2    P520689  30.140  27.281  20.099 -0.1052 -0.0053  0.4852
 1723SAP2   GL120690  30.486  27.880  19.372  0.1872  0.2202 -0.0181
 1723SAP2   GL220691  30.533  28.166  19.304 -0.1224  0.3859  0.0160
 1723SAP2   D1A20692  30.382  27.660  18.940 -0.2571  0.1669 -0.0966
 1723SAP2   D2A20693  30.090  27.917  18.731 -0.0709 -0.0414  0.0608
 1723SAP2   D3A20694  29.879  27.812  19.052  0.0408 -0.1111 -0.0352
 1723SAP2   D4A20695  29.684  27.583  18.748  0.0906  0.0893  0.2506
 1723SAP2   C5A20696  29.341  27.711  18.475  0.5112 -0.5814 -0.1062
 1723SAP2   C1B20697  30.475  28.275  18.874 -0.0167  0.0066  0.1227
 1723SAP2   C2B20698  30.374  28.197  18.441 -0.0208 -0.2063 -0.0710
 1723SAP2   C3B20699  30.406  27.997  18.040 -0.2195  0.1770 -0.1731
 1723SAP2   C4B20700  30.481  27.774  17.612 -0.1329 -0.1431 -0.1042
 1724SAP2    C120701   3.838  13.768  19.778  0.0555 -0.0638 -0.0170
 1724SAP2    C220702   3.777  13.547  19.933 -0.1029 -0.1233 -0.1622
 1724SAP2    C320703   3.830  13.857  20.051 -0.2750 -0.1562  0.0074
 1724SAP2    C420704   3.815  13.724  19.921 -0.0007 -0.0007  0.6972
 1724SAP2   PO420705   3.655  13.727  19.521  0.0677 -0.0572  0.2287
 1724SAP2    P420706   3.854  13.778  20.365 -0.1224 -0.0107 -0.2668
 1724SAP2    P520707   3.959  13.358  20.085 -0.1921  0.2318  0.0650
 1724SAP2   GL120708   3.732  13.554  19.282 -0.0548  0.1815 -0.1408
 1724SAP2   GL220709   3.842  13.648  19.029  0.0158  0.1280  0.1610
 1724SAP2   D1A20710   3.389  13.288  19.154  0.1247 -0.1126 -0.2135
 1724SAP2   D2A20711   3.216  13.630  18.944 -0.2206  0.1029  0.0680
 1724SAP2   D3A20712   3.435  14.012  19.063  0.2940 -0.3001  0.3957
 1724SAP2   D4A20713   3.311  14.193  18.620  0.0467  0.0816 -0.1199
 1724SAP2   C5A20714   3.350  13.895  18.282 -0.2242 -0.1731 -0.0999
 1724SAP2   C1B20715   3.697  13.612  18.523  0.0412 -0.0024  0.0002
 1724SAP2   C2B20716   3.557  13.516  18.067 -0.2730  0.1528  0.1733
 1724SAP2   C3B20717   3.335  13.770  17.731  0.0113  0.0566  0.0406
 1724SAP2   C4B20718   2.963  13.725  17.444  0.1001  0.1071 -0.4742
 1725SAP2    C120719   3.087   5.637  20.716 -0.2580  0.2007 -0.0032
 1725SAP2    C220720   3.247   5.775  20.895  0.0744 -0.0151 -0.1254
 1725SAP2    C320721   3.083   5.490  20.962 -0.3122  0.2334  0.0154
 1725SAP2    C420722   3.139   5.634  20.858 -0.0007 -0.0007  0.6972
 1725SAP2   PO420723   3.281   5.595  20.462 -0.1238  0.0987  0.0228
 1725SAP2    P420724   3.147   5.383  21.240 -0.0179 -0.1635 -0.2336
 1725SAP2    P520725   3.149   5.930  21.171  0.0604  0.2509 -0.1533
 1725SAP2   GL120726   3.209   5.806  20.191  0.0640 -0.2531  0.2155
 1725SAP2   GL220727   2.980   5.664  20.067  0.2413 -0.2667 -0.1791
 1725SAP2   D1A20728   3.193   6.113  19.853 -0.0572  0.5396 -0.0797
 1725SAP2   D2A20729   2.726   6.016  19.818 -0.2610  0.0268  0.1148
 1725SAP2   D3A20730   2.272   5.851  19.708  0.0528 -0.0198  0.1091
 1725SAP2   D4A20731   1.966   5.618  19.896 -0.2729  0.6063  0.0074
 1725SAP2   C5A20732   1.700   5.245  19.962  0.2480 -0.0844 -0.0221
 1725SAP2   C1B20733   3.007   5.641  19.591  0.3843 -0.0741 -0.0904
 1725SAP2   C2B20734   3.282   5.633  19.265  0.2400  0.0207  0.3299
 1725SAP2   C3B20735   3.497   5.398  18.882  0.2626  0.0895 -0.1991
 1725SAP2   C4B20736   3.825   5.279  18.528  0.2140 -0.1048 -0.0056
 1726SAP2    C120737  30.863  22.040  19.476  0.0394  0.0738  0.1545
 1726SAP2    C220738  30.870  21.955  19.740 -0.1294 -0.1956  0.0758
 1726SAP2    C320739  30.676  22.202  19.620  0.1843  0.1488  0.2607
 1726SAP2    C420740  30.803  22.066  19.612 -0.0007 -0.0007  0.6972
 1726SAP2   PO420741  30.932  21.784  19.299  0.3411  0.1537  0.0162
 1726SAP2    P420742  30.492  22.397  19.739 -0.1991 -0.0223  0.2844
 1726SAP2    P520743  30.918  22.152  19.997 -0.1141  0.1672 -0.1383
 1726SAP2   GL120744  30.814  21.869  18.981  0.1190 -0.1977 -0.1145
 1726SAP2   GL220745  30.632  21.725  18.781  0.1207 -0.0478  0.0422
 1726SAP2   D1A20746  30.956  22.028  18.504  0.3978  0.0972 -0.0497
 1726SAP2   D2A20747  30.947  22.330  18.891  0.0070  0.1988 -0.4405
 1726SAP2   D3A20748  31.400  22.290  18.772  0.0813  0.0077 -0.0305
 1726SAP2   D4A20749  31.418  22.529  18.338 -0.0177 -0.0158 -0.3410
 1726SAP2   C5A20750  30.988  22.573  18.391 -0.1130  0.4657 -0.1396
 1726SAP2   C1B20751  30.846  21.526  18.403  0.2920 -0.2260  0.0239
 1726SAP2   C2B20752  31.198  21.400  18.126  0.1840  0.3289  0.1024
 1726SAP2   C3B20753  31.195  21.152  17.772 -0.2055 -0.1254  0.3638
 1726SAP2   C4B20754  31.164  20.793  17.516 -0.0109 -0.2459  0.0167
 1727SAP2    C120755  24.021  15.019  20.661  0.1129 -0.0428 -0.0205
 1727SAP2    C220756  24.168  14.848  20.501 -0.0806 -0.1065 -0.1334
 1727SAP2    C320757  23.975  14.754  20.760  0.3343  0.0077  0.2285
 1727SAP2    C420758  24.055  14.874  20.641 -0.0007 -0.0007  0.6972
 1727SAP2   PO420759  23.893  15.187  20.415 -0.1074 -0.4646  0.1316
 1727SAP2    P420760  24.094  14.433  20.719  0.0552 -0.2581 -0.0757
 1727SAP2    P520761  24.508  14.724  20.604  0.2091  0.0769  0.0262
 1727SAP2   GL120762  23.564  15.170  20.376  0.2775 -0.2035  0.0639
 1727SAP2   GL220763  23.626  15.197  20.066 -0.0371 -0.1245 -0.0685
 1727SAP2   D1A20764  23.446  15.652  20.468  0.1602  0.0952  0.0537
 1727SAP2   D2A20765  23.761  15.906  20.289 -0.0923  0.1841 -0.1799
 1727SAP2   D3A20766  23.754  15.987  19.845  0.0862 -0.3655 -0.0027
 1727SAP2   D4A20767  23.513  16.339  19.709  0.2980  0.1028 -0.1594
 1727SAP2   C5A20768  23.201  16.383  19.348 -0.0520  0.0902  0.0748
 1727SAP2   C1B20769  23.461  15.618  19.960 -0.2296 -0.0928 -0.0982
 1727SAP2   C2B20770  23.229  15.796  19.671 -0.0046  0.1611 -0.0862
 1727SAP2   C3B20771  22.989  15.887  19.324  0.1853 -0.2266 -0.1081
 1727SAP2   C4B20772  22.599  15.976  19.198 -0.1403  0.3527  0.0853
 1728SAP2    C120773  24.086  25.704  19.515  0.0052 -0.1412 -0.3767
 1728SAP2    C220774  24.276  25.508  19.563  0.1091  0.0160 -0.1265
 1728SAP2    C320775  24.018  25.582  19.765 -0.0411  0.0110 -0.3139
 1728SAP2    C420776  24.127  25.598  19.614 -0.0007 -0.0007  0.6972
 1728SAP2   PO420777  24.106  25.757  19.196  0.0344  0.0712  0.3573
 1728SAP2    P420778  24.081  25.407  20.021  0.0213 -0.0581 -0.0654
 1728SAP2    P520779  24.440  25.435  19.762  0.0025 -0.1325  0.1194
 1728SAP2   GL120780  24.247  26.069  19.193  0.0365 -0.1709 -0.2010
 1728SAP2   GL220781  24.080  26.223  19.037 -0.3679 -0.0049 -0.0699
 1728SAP2   D1A20782  24.559  26.376  19.017  0.2040 -0.3636  0.0004
 1728SAP2   D2A20783  24.823  26.004  18.961 -0.2841  0.1413  0.2651
 1728SAP2   D3A20784  24.470  25.784  18.853 -0.1495  0.0556 -0.0497
 1728SAP2   D4A20785  24.636  25.492  18.555  0.1096 -0.1259  0.0580
 1728SAP2   C5A20786  24.474  25.528  18.097  0.2919  0.1571 -0.0363
 1728SAP2   C1B20787  24.280  26.205  18.649 -0.2575 -0.0315 -0.1080
 1728SAP2   C2B20788  24.616  25.963  18.434  0.2601  0.0465  0.2388
 1728SAP2   C3B20789  24.709  26.004  18.008  0.3030  0.1504 -0.5249
 1728SAP2   C4B20790  24.556  25.741  17.646  0.2962  0.1058  0.0612
 1729SAP2    C120791  23.837  12.679  19.833 -0.1502  0.0534 -0.0112
 1729SAP2    C220792  23.650  12.692  20.036 -0.1438 -0.1715  0.0105
 1729SAP2    C320793  23.690  12.923  19.796 -0.4216 -0.1003  0.0286
 1729SAP2    C420794  23.726  12.765  19.888 -0.0007 -0.0007  0.6972
 1729SAP2   PO420795  23.780  12.350  19.732 -0.0843 -0.1788  0.1544
 1729SAP2    P420796  23.444  13.157  19.957 -0.2160 -0.0498 -0.0135
 1729SAP2    P520797  23.544  12.847  20.266 -0.0881 -0.0333  0.0375
 1729SAP2   GL120798  23.972  12.285  19.464 -0.1578  0.4522 -0.0669
 1729SAP2   GL220799  24.021  12.469  19.309  0.3837  0.1430  0.0908
 1729SAP2   D1A20800  23.678  12.133  19.119  0.0111 -0.0569 -0.0419
 1729SAP2   D2A20801  23.543  11.732  18.876  0.0764 -0.0964 -0.2058
 1729SAP2   D3A20802  23.282  11.832  19.246 -0.2051 -0.1471  0.1050
 1729SAP2   D4A20803  23.191  12.280  19.131 -0.1298  0.1115  0.0171
 1729SAP2   C5A20804  22.787  12.302  18.849 -0.0887 -0.0157  0.4125
 1729SAP2   C1B20805  24.170  12.371  18.917  0.0277  0.2081  0.3639
 1729SAP2   C2B20806  24.253  12.249  18.470  0.1603  0.4002  0.2910
 1729SAP2   C3B20807  23.914  12.157  18.092 -0.0170 -0.0441 -0.2216
 1729SAP2   C4B20808  23.716  12.087  17.728 -0.0017  0.1738 -0.1346
 1730SAP2    C120809  29.734  14.263  19.765 -0.1118  0.0552 -0.0217
 1730SAP2    C220810  29.724  14.228  20.039  0.0435 -0.0230 -0.0245
 1730SAP2    C320811  29.676  14.519  19.878  0.0373  0.0405  0.0910
 1730SAP2    C420812  29.712  14.337  19.894 -0.0007 -0.0007  0.6972
 1730SAP2   PO420813  29.620  13.991  19.602 -0.4550 -0.1272  0.0246
 1730SAP2    P420814  29.644  14.668  20.152  0.0397 -0.1023 -0.3058
 1730SAP2    P520815  29.685  14.142  20.335  0.0953  0.1554 -0.0631
 1730SAP2   GL120816  29.611  13.997  19.237 -0.1864 -0.1710 -0.1245
 1730SAP2   GL220817  29.540  13.737  19.122 -0.2951  0.1257 -0.0365
 1730SAP2   D1A20818  29.366  14.287  18.882 -0.2600  0.4279  0.1097
 1730SAP2   D2A20819  29.067  14.099  18.616  0.0533  0.1169  0.0775
 1730SAP2   D3A20820  28.975  14.032  18.184  0.0627 -0.0927  0.0793
 1730SAP2   D4A20821  29.381  13.833  18.065  0.3223  0.0239 -0.2864
 1730SAP2   C5A20822  29.330  13.394  17.848  0.1919  0.1214  0.2577
 1730SAP2   C1B20823  29.508  13.881  18.684  0.1142  0.2051 -0.1144
 1730SAP2   C2B20824  29.460  14.190  18.393 -0.1363 -0.1329 -0.0860
 1730SAP2   C3B20825  29.357  14.395  17.938  0.0975 -0.2598 -0.0750
 1730SAP2   C4B20826  29.280  14.320  17.458  0.1091  0.0210  0.5031
 1731SAP2    C120827  19.878   6.970  20.097 -0.2065  0.0839  0.1139
 1731SAP2    C220828  19.939   6.768  20.276  0.0603  0.0308 -0.0324
 1731SAP2    C320829  19.642   6.922  20.252 -0.0531 -0.1294  0.2876
 1731SAP2    C420830  19.819   6.887  20.208 -0.0007 -0.0007  0.6972
 1731SAP2   PO420831  19.996   6.852  19.791  0.1158 -0.0467 -0.0483
 1731SAP2    P420832  19.411   6.756  20.389 -0.1893  0.2039 -0.1924
 1731SAP2    P520833  19.955   6.949  20.570  0.3883  0.0400 -0.0438
 1731SAP2   GL120834  19.753   6.678  19.573  0.0442 -0.0257 -0.0490
 1731SAP2   GL220835  19.786   6.797  19.312  0.0397  0.2025  0.0027
 1731SAP2   D1A20836  20.134   6.417  19.553  0.0945  0.2848  0.1080
 1731SAP2   D2A20837  20.356   6.746  19.328 -0.3394  0.1036 -0.0994
 1731SAP2   D3A20838  20.612   6.836  18.992 -0.3210  0.0429  0.2729
 1731SAP2   D4A20839  20.336   7.104  18.814  0.0962 -0.0472  0.2612
 1731SAP2   C5A20840  20.521   6.995  18.364 -0.0535 -0.1328 -0.0319
 1731SAP2   C1B20841  20.046   6.585  19.062  0.0223 -0.1637 -0.1914
 1731SAP2   C2B20842  20.322   6.595  18.684  0.1079  0.1419  0.1565
 1731SAP2   C3B20843  20.515   6.403  18.323 -0.0023  0.0023  0.1195
 1731SAP2   C4B20844  20.588   6.255  17.896  0.2315 -0.0373 -0.3005
 1732SAP2    C120845  12.594  11.152  20.260  0.1547 -0.1034 -0.3190
 1732SAP2    C220846  12.406  11.109  20.459 -0.0788  0.0392 -0.5035
 1732SAP2    C320847  12.722  10.995  20.463 -0.0284  0.1707  0.0208
 1732SAP2    C420848  12.574  11.085  20.394 -0.0007 -0.0007  0.6972
 1732SAP2   PO420849  12.586  11.431  20.112 -0.3870 -0.1126 -0.1333
 1732SAP2    P420850  12.717  10.856  20.722 -0.0209  0.2526 -0.0270
 1732SAP2    P520851  12.235  10.880  20.599 -0.1243 -0.0226  0.0781
 1732SAP2   GL120852  12.770  11.416  19.832 -0.1791  0.1458 -0.0571
 1732SAP2   GL220853  12.675  11.448  19.527 -0.1024 -0.2575 -0.3777
 1732SAP2   D1A20854  13.209  11.410  19.727 -0.0163 -0.1727 -0.0611
 1732SAP2   D2A20855  13.282  11.782  19.499 -0.0173  0.0123  0.1410
 1732SAP2   D3A20856  13.211  12.186  19.232  0.1240  0.1606  0.1864
 1732SAP2   D4A20857  12.893  12.494  19.279 -0.2001  0.0067  0.3035
 1732SAP2   C5A20858  13.149  12.368  19.667 -0.0006  0.3912  0.1270
 1732SAP2   C1B20859  12.619  11.658  19.123  0.4634  0.0580  0.1739
 1732SAP2   C2B20860  12.604  12.018  18.856  0.4989  0.1519 -0.1256
 1732SAP2   C3B20861  12.940  12.256  18.769  0.0592 -0.0404 -0.1457
 1732SAP2   C4B20862  13.148  12.632  18.866 -0.2925 -0.1631 -0.3300
 1733SAP2    C120863  17.110  13.537  20.140  0.1340 -0.0554  0.1466
 1733SAP2    C220864  17.079  13.788  20.252  0.4654 -0.0387  0.2097
 1733SAP2    C320865  16.999  13.499  20.402 -0.1074  0.0304  0.0597
 1733SAP2    C420866  17.062  13.608  20.265 -0.0007 -0.0007  0.6972
 1733SAP2   PO420867  17.359  13.647  19.955 -0.0507 -0.0512  0.2234
 1733SAP2    P420868  16.907  13.614  20.648  0.0681 -0.2479 -0.0987
 1733SAP2    P520869  16.924  13.932  20.387 -0.1942  0.0539 -0.2041
 1733SAP2   GL120870  17.284  13.577  19.640  0.1079  0.1085  0.2466
 1733SAP2   GL220871  17.272  13.867  19.510 -0.0459 -0.0378 -0.1464
 1733SAP2   D1A20872  16.959  13.359  19.320  0.1266 -0.2721 -0.1337
 1733SAP2   D2A20873  16.758  13.550  18.971 -0.1877  0.1984  0.0772
 1733SAP2   D3A20874  16.674  13.397  18.613  0.0176 -0.0248 -0.2182
 1733SAP2   D4A20875  16.642  13.162  18.215  0.1517 -0.0976  0.0061
 1733SAP2   C5A20876  16.279  12.907  18.098  0.0963  0.2020  0.0281
 1733SAP2   C1B20877  17.138  13.833  19.070  0.1245 -0.0318  0.2093
 1733SAP2   C2B20878  17.057  13.748  18.581 -0.1194 -0.2340 -0.2628
 1733SAP2   C3B20879  17.133  14.045  18.241 -0.1714 -0.3506 -0.1030
 1733SAP2   C4B20880  17.030  14.503  18.062 -0.2770  0.3737 -0.3835
 1734SAP2    C120881  20.639  17.771  20.725  0.1924  0.2360 -0.0152
 1734SAP2    C220882  20.651  17.647  20.973  0.1614  0.1744 -0.0445
 1734SAP2    C320883  20.382  17.653  20.772  0.1587  0.3001 -0.0381
 1734SAP2    C420884  20.558  17.690  20.823 -0.0007 -0.0007  0.6972
 1734SAP2   PO420885  20.874  17.776  20.547 -0.1080 -0.1895 -0.0744
 1734SAP2    P420886  20.109  17.586  20.932 -0.2202  0.1369 -0.3729
 1734SAP2    P520887  20.503  17.747  21.241  0.0203  0.1395 -0.3476
 1734SAP2   GL120888  21.215  17.903  20.562  0.2075 -0.3124  0.0385
 1734SAP2   GL220889  21.353  17.849  20.312 -0.0850  0.1424  0.1487
 1734SAP2   D1A20890  21.272  18.336  20.409 -0.1336  0.0694  0.3170
 1734SAP2   D2A20891  21.336  18.444  20.026  0.0530 -0.3770 -0.1243
 1734SAP2   D3A20892  21.583  18.525  19.657 -0.1744 -0.1194  0.0785
 1734SAP2   D4A20893  21.859  18.755  19.990 -0.2154 -0.0252  0.3550
 1734SAP2   C5A20894  21.641  19.086  19.671  0.2294  0.2353 -0.2727
 1734SAP2   C1B20895  21.695  18.096  20.110 -0.0647 -0.0304  0.0393
 1734SAP2   C2B20896  21.980  18.233  19.856  0.1273  0.3628  0.0447
 1734SAP2   C3B20897  22.406  18.040  19.939  0.1340  0.0468 -0.1867
 1734SAP2   C4B20898  22.698  17.825  20.144  0.0701  0.2527  0.2640
 1735SAP2    C120899  21.392  14.177  19.502 -0.0424  0.3278 -0.2989
 1735SAP2    C220900  21.227  14.253  19.712  0.2558  0.0104  0.0650
 1735SAP2    C320901  21.521  14.397  19.634  0.1689  0.0962 -0.1081
 1735SAP2    C420902  21.380  14.276  19.616 -0.0007 -0.0007  0.6972
 1735SAP2   PO420903  21.112  14.091  19.339  0.2600 -0.2841  0.1935
 1735SAP2    P420904  21.549  14.531  19.926  0.1110 -0.3000  0.1030
 1735SAP2    P520905  21.298  14.187  19.974  0.0955  0.2484  0.0110
 1735SAP2   GL120906  21.159  14.224  19.007 -0.1711  0.2602 -0.0626
 1735SAP2   GL220907  21.331  13.953  18.875 -0.0215  0.1952  0.0755
 1735SAP2   D1A20908  21.443  14.437  18.673 -0.0322  0.3065  0.0946
 1735SAP2   D2A20909  21.422  14.120  18.375  0.1021  0.1982 -0.0296
 1735SAP2   D3A20910  21.460  14.200  17.922  0.1653  0.1333  0.2690
 1735SAP2   D4A20911  21.352  14.587  18.165 -0.0691  0.2042  0.0939
 1735SAP2   C5A20912  21.485  14.603  17.679 -0.3838 -0.1331 -0.1519
 1735SAP2   C1B20913  21.062  13.780  18.522  0.1287  0.1103 -0.2519
 1735SAP2   C2B20914  21.186  13.719  18.129  0.1594 -0.2616  0.3219
 1735SAP2   C3B20915  21.389  13.772  17.673  0.0341 -0.1590  0.0535
 1735SAP2   C4B20916  21.579  13.731  17.257 -0.2573 -0.0069  0.0475
 1736SAP2    C120917  11.053  10.138  20.030  0.1170 -0.1393 -0.0154
 1736SAP2    C220918  11.132  10.042  20.278  0.0665  0.0316  0.0689
 1736SAP2    C320919  11.215  10.341  20.150  0.0374 -0.0282 -0.0933
 1736SAP2    C420920  11.133  10.174  20.153 -0.0007 -0.0007  0.6972
 1736SAP2   PO420921  10.743  10.085  20.000  0.0257 -0.1055 -0.1072
 1736SAP2    P420922  11.423  10.363  20.430  0.1356 -0.0383  0.3338
 1736SAP2    P520923  11.385   9.925  20.366  0.2235 -0.2678  0.0494
 1736SAP2   GL120924  10.738   9.942  19.659  0.1223 -0.1829  0.0779
 1736SAP2   GL220925  10.534   9.748  19.672 -0.0725  0.1777  0.1244
 1736SAP2   D1A20926  10.887   9.630  19.335 -0.2896 -0.0400 -0.1113
 1736SAP2   D2A20927  10.987  10.069  19.161 -0.0349  0.1792  0.0373
 1736SAP2   D3A20928  11.112   9.789  18.824  0.2592 -0.2918 -0.2389
 1736SAP2   D4A20929  11.430   9.716  19.206 -0.3061  0.1977  0.1721
 1736SAP2   C5A20930  11.284   9.529  19.600 -0.1732 -0.2555 -0.0787
 1736SAP2   C1B20931  10.489   9.929  19.251  0.0289  0.1108  0.0655
 1736SAP2   C2B20932  10.491   9.828  18.757 -0.3395  0.3431  0.0222
 1736SAP2   C3B20933  10.717   9.738  18.374  0.1095  0.1011 -0.0907
 1736SAP2   C4B20934  10.573   9.782  17.922  0.5690 -0.1784 -0.0233
 1737SAP2    C120935  11.937   8.547  20.328 -0.2639  0.0846 -0.0353
 1737SAP2    C220936  12.205   8.502  20.376 -0.2209  0.1713 -0.1864
 1737SAP2    C320937  11.951   8.369  20.551 -0.0817  0.0433 -0.0789
 1737SAP2    C420938  12.031   8.472  20.418 -0.0007 -0.0007  0.6972
 1737SAP2   PO420939  11.889   8.521  19.970  0.1843 -0.1946  0.3374
 1737SAP2    P420940  12.200   8.155  20.685  0.0661  0.1513 -0.0730
 1737SAP2    P520941  12.417   8.475  20.560 -0.0311  0.1892  0.1486
 1737SAP2   GL120942  11.573   8.550  19.864  0.0226  0.1538 -0.0421
 1737SAP2   GL220943  11.695   8.369  19.673  0.0125  0.3354  0.1164
 1737SAP2   D1A20944  11.260   8.883  19.656 -0.0218 -0.3585  0.1490
 1737SAP2   D2A20945  11.022   9.143  19.355  0.0087 -0.0196  0.3867
 1737SAP2   D3A20946  10.790   9.229  19.737 -0.0052 -0.0684  0.2767
 1737SAP2   D4A20947  10.470   8.880  19.543 -0.0296 -0.0840 -0.0717
 1737SAP2   C5A20948  10.806   8.562  19.658  0.0198  0.1168 -0.0373
 1737SAP2   C1B20949  11.554   8.631  19.331  0.1778 -0.0159 -0.1355
 1737SAP2   C2B20950  11.612   8.761  18.866 -0.1279  0.0781 -0.1322
 1737SAP2   C3B20951  11.537   8.760  18.421 -0.1815 -0.0837  0.1255
 1737SAP2   C4B20952  11.762   8.925  18.037  0.5317  0.0818 -0.0510
 1738SAP2    C120953  23.988  18.165  21.340  0.2806  0.1182  0.1850
 1738SAP2    C220954  23.927  17.951  21.504  0.1170  0.0783  0.0748
 1738SAP2    C320955  24.216  18.122  21.508  0.2865 -0.2026  0.1004
 1738SAP2    C420956  24.044  18.079  21.450 -0.0007 -0.0007  0.6972
 1738SAP2   PO420957  23.624  18.346  21.374 -0.3301  0.1828 -0.2235
 1738SAP2    P420958  24.392  17.976  21.773  0.1364  0.0947  0.0000
 1738SAP2    P520959  24.114  17.660  21.523 -0.0726 -0.2455 -0.3000
 1738SAP2   GL120960  23.541  18.138  21.087  0.2536  0.0140 -0.4858
 1738SAP2   GL220961  23.300  18.298  20.907 -0.1464  0.1444 -0.1981
 1738SAP2   D1A20962  23.973  17.941  20.967 -0.0451  0.1056  0.0839
 1738SAP2   D2A20963  23.646  17.695  21.193 -0.0109  0.1416  0.0262
 1738SAP2   D3A20964  23.270  17.787  20.994  0.3522 -0.2659  0.2434
 1738SAP2   D4A20965  23.472  17.831  20.587  0.1424  0.0299  0.1097
 1738SAP2   C5A20966  23.787  17.530  20.722  0.0737  0.0951  0.1780
 1738SAP2   C1B20967  22.936  18.188  21.196  0.0669  0.2424  0.1405
 1738SAP2   C2B20968  22.565  18.409  21.439 -0.2725 -0.1403  0.0139
 1738SAP2   C3B20969  22.188  18.634  21.296  0.1571  0.2028  0.2882
 1738SAP2   C4B20970  21.774  18.674  21.194  0.1430  0.0144 -0.1281
 1739SAP2    C120971  20.887  17.267  20.894  0.4876 -0.0293 -0.2471
 1739SAP2    C220972  20.780  17.039  20.778 -0.2380  0.1604  0.0027
 1739SAP2    C320973  20.740  17.353  20.664 -0.0659  0.2524  0.1891
 1739SAP2    C420974  20.802  17.220  20.779 -0.0007 -0.0007  0.6972
 1739SAP2   PO420975  21.242  17.156  20.932  0.1626  0.0747 -0.4062
 1739SAP2    P420976  20.592  17.269  20.424  0.0747 -0.0787  0.1656
 1739SAP2    P520977  20.550  16.859  20.645 -0.1235 -0.1565 -0.1405
 1739SAP2   GL120978  21.197  17.449  20.642  0.2162 -0.2492  0.0257
 1739SAP2   GL220979  21.440  17.353  20.507  0.0682  0.2734  0.5207
 1739SAP2   D1A20980  21.557  17.706  20.866 -0.1949 -0.2051  0.0910
 1739SAP2   D2A20981  21.626  18.115  20.688  0.1976  0.1619  0.0817
 1739SAP2   D3A20982  21.827  18.181  21.108  0.4128 -0.1675 -0.2349
 1739SAP2   D4A20983  22.168  18.011  21.378 -0.2000 -0.4313  0.0414
 1739SAP2   C5A20984  22.051  17.840  20.963 -0.0550  0.1100 -0.3260
 1739SAP2   C1B20985  21.923  17.409  20.685 -0.1482 -0.1808  0.2463
 1739SAP2   C2B20986  22.338  17.502  20.671 -0.1387  0.0348  0.3488
 1739SAP2   C3B20987  22.756  17.693  20.622  0.2042  0.0361 -0.1555
 1739SAP2   C4B20988  22.965  18.043  20.554  0.1330 -0.2502  0.1326
 1740SAP2    C120989  14.261  11.933  20.140 -0.3686  0.4506 -0.1002
 1740SAP2    C220990  14.278  11.860  20.406  0.3341 -0.3215 -0.3141
 1740SAP2    C320991  14.376  12.155  20.280 -0.0023  0.0549  0.2560
 1740SAP2    C420992  14.305  11.983  20.275 -0.0007 -0.0007  0.6972
 1740SAP2   PO420993  14.011  11.762  19.988 -0.2032 -0.0044 -0.0870
 1740SAP2    P420994  14.434  12.337  20.484 -0.0497 -0.1907 -0.1016
 1740SAP2    P520995  14.593  11.914  20.569  0.1182 -0.2371  0.2489
 1740SAP2   GL120996  13.883  11.927  19.747  0.2160  0.2427 -0.0214
 1740SAP2   GL220997  13.774  11.772  19.571 -0.1661 -0.1542 -0.0286
 1740SAP2   D1A20998  13.696  12.319  19.517  0.0788  0.2143  0.0418
 1740SAP2   D2A20999  14.016  12.638  19.416  0.1063 -0.0989 -0.0502
 1740SAP2   D3A21000  13.678  12.833  19.651 -0.2940  0.2629 -0.4470
 1740SAP2   D4A21001  13.356  12.726  19.394 -0.1628  0.1150  0.1768
 1740SAP2   C5A21002  13.600  12.597  19.122 -0.2070  0.1829  0.2426
 1740SAP2   C1B21003  13.586  11.843  19.125 -0.2215  0.2265 -0.1587
 1740SAP2   C2B21004  13.803  11.712  18.763 -0.0869  0.0971 -0.2146
 1740SAP2   C3B21005  14.074  11.609  18.388 -0.1809 -0.0319  0.1846
 1740SAP2   C4B21006  14.120  11.698  17.928 -0.1404  0.0220  0.3801
 1741SAP2    C121007  22.922  29.467  20.110 -0.1290 -0.3145 -0.0748
 1741SAP2    C221008  22.795  29.275  20.263 -0.1256 -0.2064  0.0659
 1741SAP2    C321009  22.823  29.599  20.344  0.0228 -0.1806 -0.0850
 1741SAP2    C421010  22.846  29.447  20.239 -0.0007 -0.0007  0.6972
 1741SAP2   PO421011  22.770  29.450  19.824  0.2693 -0.0298 -0.0054
 1741SAP2    P421012  22.663  29.577  20.581 -0.2556 -0.3611  0.0943
 1741SAP2    P521013  22.933  29.187  20.484 -0.0800 -0.2883 -0.2636
 1741SAP2   GL121014  22.746  29.589  19.530  0.0143 -0.2162 -0.0950
 1741SAP2   GL221015  22.952  29.572  19.338  0.3178 -0.0932 -0.2151
 1741SAP2   D1A21016  22.481  29.881  19.248  0.1394  0.1032  0.0245
 1741SAP2   D2A21017  22.246  30.265  19.442 -0.0772  0.2296 -0.0041
 1741SAP2   D3A21018  21.929  30.087  19.096  0.2385 -0.0515 -0.0775
 1741SAP2   D4A21019  21.774  30.375  19.377  0.1972  0.3367 -0.0070
 1741SAP2   C5A21020  22.088  30.617  19.087 -0.0351 -0.1249 -0.0373
 1741SAP2   C1B21021  22.591  29.391  19.065 -0.2449  0.3139 -0.1518
 1741SAP2   C2B21022  22.402  29.145  18.663  0.1449  0.0080  0.1121
 1741SAP2   C3B21023  22.389  28.954  18.224  0.2136  0.1085  0.0547
 1741SAP2   C4B21024  22.598  28.784  17.859  0.0663  0.2613 -0.1078
 1742SAP2    C121025  19.296  10.456  19.920  0.1386 -0.1342  0.0209
 1742SAP2    C221026  19.244  10.718  19.991 -0.0331 -0.1894  0.1045
 1742SAP2    C321027  19.546  10.572  19.995  0.0233 -0.0711  0.3195
 1742SAP2    C421028  19.362  10.582  19.969 -0.0007 -0.0007  0.6972
 1742SAP2   PO421029  19.075  10.499  19.591  0.2581 -0.0632  0.1100
 1742SAP2    P421030  19.750  10.706  20.197  0.0405 -0.0059 -0.2413
 1742SAP2    P521031  19.209  10.932  20.200  0.0756 -0.1006  0.0822
 1742SAP2   GL121032  19.063  10.376  19.212  0.1153 -0.0279  0.4155
 1742SAP2   GL221033  18.947  10.694  19.111 -0.0259  0.1013 -0.1678
 1742SAP2   D1A21034  19.099   9.992  18.992  0.2951 -0.3159  0.1911
 1742SAP2   D2A21035  19.321   9.709  18.641  0.3423 -0.1819  0.0062
 1742SAP2   D3A21036  18.917   9.448  18.506 -0.1110  0.0835  0.1046
 1742SAP2   D4A21037  18.838   9.443  18.020  0.3430  0.1518 -0.4094
 1742SAP2   C5A21038  19.110   9.777  18.180 -0.1065 -0.0907  0.4983
 1742SAP2   C1B21039  19.207  10.697  18.706 -0.0585  0.0112 -0.0397
 1742SAP2   C2B21040  19.289  10.859  18.254 -0.1061  0.1228  0.0290
 1742SAP2   C3B21041  19.492  10.959  17.882  0.2295 -0.0753 -0.2442
 1742SAP2   C4B21042  19.661  10.935  17.386  0.2610 -0.2320  0.0079
 1743SAP2    C121043   8.021   1.240  20.319 -0.1123 -0.2574 -0.0463
 1743SAP2    C221044   7.938   1.481  20.427  0.1023 -0.1086 -0.2059
 1743SAP2    C321045   8.258   1.383  20.394  0.0306 -0.2680 -0.4549
 1743SAP2    C421046   8.072   1.368  20.380 -0.0007 -0.0007  0.6972
 1743SAP2   PO421047   7.879   1.164  20.035 -0.2873 -0.1389 -0.0935
 1743SAP2    P421048   8.317   1.689  20.547 -0.0084  0.0272 -0.1384
 1743SAP2    P521049   7.973   1.429  20.774 -0.0166  0.4564  0.4239
 1743SAP2   GL121050   8.083   1.280  19.840 -0.2661 -0.1605 -0.0079
 1743SAP2   GL221051   8.013   1.480  19.668  0.0785 -0.1558  0.1362
 1743SAP2   D1A21052   8.522   1.253  20.013 -0.0471 -0.3293 -0.1206
 1743SAP2   D2A21053   8.884   1.016  20.284 -0.3573 -0.1764  0.1371
 1743SAP2   D3A21054   8.701   0.766  19.941 -0.1270  0.0230  0.0034
 1743SAP2   D4A21055   8.893   1.126  19.731  0.1303  0.2743  0.2387
 1743SAP2   C5A21056   9.228   1.304  20.010  0.0553 -0.1020 -0.1017
 1743SAP2   C1B21057   8.446   1.605  19.646 -0.1472 -0.3439 -0.0496
 1743SAP2   C2B21058   8.899   1.673  19.725  0.0639 -0.0794  0.0660
 1743SAP2   C3B21059   9.310   1.817  19.698  0.0013 -0.0561 -0.2253
 1743SAP2   C4B21060   9.645   2.122  19.748  0.1806  0.0912 -0.2155
 1744SAP2    C121061  11.690  12.895  19.937  0.0222 -0.1430 -0.1166
 1744SAP2    C221062  11.523  12.693  20.027  0.0804  0.0079  0.3560
 1744SAP2    C321063  11.422  12.988  19.902 -0.0052 -0.0212  0.3562
 1744SAP2    C421064  11.545  12.859  19.955 -0.0007 -0.0007  0.6972
 1744SAP2   PO421065  11.954  12.738  19.882 -0.0716  0.0461 -0.0856
 1744SAP2    P421066  11.121  12.897  19.899 -0.1338  0.0224  0.1303
 1744SAP2    P521067  11.384  12.541  20.256  0.0258 -0.0995  0.0476
 1744SAP2   GL121068  11.925  12.603  19.563 -0.1134 -0.1633 -0.1019
 1744SAP2   GL221069  11.658  12.432  19.599  0.0427  0.1527  0.2261
 1744SAP2   D1A21070  12.373  12.604  19.418 -0.1000 -0.0060 -0.0684
 1744SAP2   D2A21071  12.394  12.194  19.253  0.1007  0.1151 -0.1537
 1744SAP2   D3A21072  12.768  11.930  19.456 -0.1737  0.0164 -0.2369
 1744SAP2   D4A21073  12.557  11.924  19.842  0.0540 -0.2695 -0.1670
 1744SAP2   C5A21074  12.717  12.338  19.931  0.2348 -0.1610  0.2730
 1744SAP2   C1B21075  11.903  12.267  19.180  0.3750 -0.4252  0.1155
 1744SAP2   C2B21076  12.080  11.968  18.907 -0.2981 -0.2668 -0.2572
 1744SAP2   C3B21077  12.067  11.863  18.394  0.3558 -0.2274 -0.2905
 1744SAP2   C4B21078  12.174  11.656  17.950  0.0721 -0.1532  0.0152
 1745SAP2    C121079   6.496  16.559  20.032  0.2463 -0.0277  0.1872
 1745SAP2    C221080   6.328  16.779  20.013  0.0605 -0.1799  0.0160
 1745SAP2    C321081   6.449  16.651  20.299  0.2251  0.1808  0.1137
 1745SAP2    C421082   6.424  16.663  20.115 -0.0007 -0.0007  0.6972
 1745SAP2   PO421083   6.707  16.563  19.748 -0.4510  0.2506  0.0225
 1745SAP2    P421084   6.468  16.804  20.545 -0.3583 -0.1793 -0.1739
 1745SAP2    P521085   6.117  16.933  20.218  0.1847 -0.1511 -0.1310
 1745SAP2   GL121086   6.554  16.548  19.469  0.4263  0.1089 -0.1944
 1745SAP2   GL221087   6.586  16.192  19.361  0.5102  0.1888 -0.2764
 1745SAP2   D1A21088   6.892  16.572  19.158  0.0181  0.3308 -0.4069
 1745SAP2   D2A21089   6.961  16.931  18.896 -0.0904  0.1137 -0.0438
 1745SAP2   D3A21090   7.337  17.046  18.729  0.3146 -0.1496  0.1464
 1745SAP2   D4A21091   7.098  17.457  18.588 -0.1957  0.4130  0.0125
 1745SAP2   C5A21092   7.431  17.366  18.262  0.3989  0.2110  0.1957
 1745SAP2   C1B21093   6.668  16.158  18.976  0.0788  0.1891 -0.2209
 1745SAP2   C2B21094   6.804  16.114  18.538 -0.1104  0.2752 -0.2407
 1745SAP2   C3B21095   6.661  16.051  18.127  0.2101 -0.1926  0.0932
 1745SAP2   C4B21096   6.333  16.010  17.839  0.0113 -0.1853  0.1084
 1746SAP2    C121097  20.478  24.668  19.685  0.0152 -0.0556  0.1706
 1746SAP2    C221098  20.247  24.643  19.837  0.0764  0.1240  0.2971
 1746SAP2    C321099  20.561  24.626  19.956  0.1314 -0.1061  0.1278
 1746SAP2    C421100  20.429  24.646  19.826 -0.0007 -0.0007  0.6972
 1746SAP2   PO421101  20.411  24.942  19.512  0.0385 -0.0973 -0.3253
 1746SAP2    P421102  20.572  24.605  20.256  0.0157 -0.2977 -0.1675
 1746SAP2    P521103  20.063  24.464  20.019 -0.0752  0.3920  0.0859
 1746SAP2   GL121104  20.378  24.912  19.227  0.2903  0.0837  0.2259
 1746SAP2   GL221105  20.671  24.920  19.082  0.3516 -0.1285 -0.0075
 1746SAP2   D1A21106  20.324  25.044  18.774  0.0943  0.2281  0.0034
 1746SAP2   D2A21107  19.967  25.071  18.523 -0.0916 -0.3494  0.0703
 1746SAP2   D3A21108  19.921  25.375  18.826 -0.2014 -0.4467  0.0402
 1746SAP2   D4A21109  19.930  25.047  19.139 -0.1993 -0.1029 -0.1411
 1746SAP2   C5A21110  19.978  24.746  18.883 -0.0683  0.0557 -0.0131
 1746SAP2   C1B21111  20.687  24.717  18.682 -0.2065  0.1332 -0.1843
 1746SAP2   C2B21112  20.820  24.676  18.248 -0.1375  0.0973  0.0562
 1746SAP2   C3B21113  20.952  24.340  17.868 -0.0275 -0.1204  0.2860
 1746SAP2   C4B21114  21.161  24.179  17.495  0.1427  0.0745 -0.2276
 1747SAP2    C121115  14.035   7.635  19.925  0.0099  0.1686  0.1537
 1747SAP2    C221116  13.997   7.447  20.124  0.0008 -0.1012 -0.0968
 1747SAP2    C321117  13.752   7.590  19.944  0.0315 -0.1688 -0.1935
 1747SAP2    C421118  13.928   7.557  19.998 -0.0007 -0.0007  0.6972
 1747SAP2   PO421119  14.316   7.560  19.797  0.1043 -0.1560  0.0822
 1747SAP2    P421120  13.538   7.443  20.039  0.0498  0.0025 -0.0689
 1747SAP2    P521121  13.861   7.419  20.393  0.1888 -0.1016  0.3057
 1747SAP2   GL121122  14.209   7.484  19.513 -0.2575 -0.1666  0.0387
 1747SAP2   GL221123  14.358   7.197  19.454 -0.1033 -0.1448  0.1321
 1747SAP2   D1A21124  14.217   7.684  19.114 -0.1283 -0.1332 -0.0154
 1747SAP2   D2A21125  14.590   7.507  18.885 -0.1442 -0.0138  0.0402
 1747SAP2   D3A21126  14.436   7.795  18.582  0.2820  0.0443  0.1371
 1747SAP2   D4A21127  14.568   7.453  18.323  0.0777  0.4084  0.1959
 1747SAP2   C5A21128  14.286   7.115  18.128 -0.3498  0.0482  0.0530
 1747SAP2   C1B21129  14.066   7.209  19.128  0.2188 -0.1195  0.0343
 1747SAP2   C2B21130  14.146   7.355  18.667 -0.3326 -0.0344  0.0389
 1747SAP2   C3B21131  14.077   7.620  18.310  0.0943  0.1619 -0.1948
 1747SAP2   C4B21132  14.193   7.819  17.934  0.1286  0.0966  0.0126
 1748SAP2    C121133   9.294   7.964  20.367  0.0183 -0.3407 -0.1792
 1748SAP2    C221134   9.138   7.944  20.595  0.3145 -0.2964  0.0322
 1748SAP2    C321135   9.375   7.724  20.502  0.1777 -0.3285 -0.2506
 1748SAP2    C421136   9.269   7.877  20.488 -0.0007 -0.0007  0.6972
 1748SAP2   PO421137   9.345   8.283  20.351 -0.0012 -0.1090 -0.0944
 1748SAP2    P421138   9.391   7.484  20.748 -0.2172  0.0282  0.0221
 1748SAP2    P521139   8.969   7.748  20.623  0.3723 -0.1910  0.0044
 1748SAP2   GL121140   9.527   8.227  20.045 -0.0148 -0.0817  0.2182
 1748SAP2   GL221141   9.760   8.427  20.140 -0.1430  0.4014  0.1261
 1748SAP2   D1A21142   9.630   8.049  19.645 -0.2362  0.1826  0.2086
 1748SAP2   D2A21143  10.013   7.897  19.406  0.0958  0.0667 -0.0306
 1748SAP2   D3A21144   9.808   8.201  19.086 -0.3165 -0.1666 -0.0005
 1748SAP2   D4A21145  10.120   8.534  19.058  0.1194  0.1194  0.0480
 1748SAP2   C5A21146  10.314   8.547  18.598  0.3561 -0.0762  0.0473
 1748SAP2   C1B21147  10.028   8.137  19.946  0.0426 -0.0623  0.1780
 1748SAP2   C2B21148  10.382   7.875  19.876 -0.0961 -0.0236  0.3012
 1748SAP2   C3B21149  10.694   7.685  19.649  0.0887  0.4184  0.0429
 1748SAP2   C4B21150  10.773   7.315  19.389 -0.0676  0.1087  0.1965
 1749SAP2    C121151  25.540  20.870  19.533 -0.1676 -0.1429  0.2020
 1749SAP2    C221152  25.530  20.778  19.794 -0.1261  0.0171  0.2614
 1749SAP2    C321153  25.531  21.101  19.702 -0.1719 -0.0384  0.0608
 1749SAP2    C421154  25.534  20.916  19.677 -0.0007 -0.0007  0.6972
 1749SAP2   PO421155  25.351  20.716  19.310  0.2034  0.5036 -0.2542
 1749SAP2    P421156  25.420  21.211  19.998  0.1500  0.0076 -0.1557
 1749SAP2    P521157  25.656  20.713  20.123  0.3356 -0.0317  0.0310
 1749SAP2   GL121158  25.391  20.744  18.960 -0.1804  0.0376  0.0055
 1749SAP2   GL221159  25.326  20.728  18.702  0.0287 -0.3785  0.0388
 1749SAP2   D1A21160  25.713  21.122  18.846  0.2066 -0.1754  0.0960
 1749SAP2   D2A21161  25.664  20.911  18.393  0.0476  0.0261 -0.2166
 1749SAP2   D3A21162  25.455  20.717  17.990  0.1335  0.3758 -0.0049
 1749SAP2   D4A21163  25.721  20.701  17.686 -0.2522  0.1359  0.1189
 1749SAP2   C5A21164  26.130  20.743  17.353 -0.1092 -0.2412 -0.1426
 1749SAP2   C1B21165  25.556  20.373  18.557 -0.1778 -0.0543 -0.0148
 1749SAP2   C2B21166  25.761  20.076  18.212 -0.0327  0.0099  0.0109
 1749SAP2   C3B21167  25.948  19.957  17.781 -0.0698 -0.1389 -0.0012
 1749SAP2   C4B21168  25.771  20.186  17.419 -0.1016  0.1921  0.1929
 1750SAP2    C121169  13.692  30.588  19.505 -0.1455  0.1941 -0.1847
 1750SAP2    C221170  13.595  30.824  19.613 -0.1285  0.0162  0.2391
 1750SAP2    C321171  13.890  30.682  19.690 -0.0939 -0.0973 -0.0870
 1750SAP2    C421172  13.726  30.698  19.603 -0.0007 -0.0007  0.6972
 1750SAP2   PO421173  13.607  30.534  19.173 -0.1460 -0.0792 -0.0604
 1750SAP2    P421174  13.925  30.893  19.884 -0.0978  0.0069 -0.0195
 1750SAP2    P521175  13.666  31.156  19.665 -0.0908  0.2777 -0.3148
 1750SAP2   GL121176  13.706  30.690  19.007 -0.0901 -0.0484  0.1174
 1750SAP2   GL221177  13.923  30.663  18.781  0.2639  0.1642  0.0166
 1750SAP2   D1A21178  13.484  30.349  18.735  0.0959 -0.0482 -0.2210
 1750SAP2   D2A21179  13.751  30.081  18.464  0.0702 -0.1633  0.0644
 1750SAP2   D3A21180  13.589  29.600  18.482 -0.3001  0.3052 -0.0408
 1750SAP2   D4A21181  13.259  29.431  18.136 -0.3165 -0.0705 -0.1561
 1750SAP2   C5A21182  13.084  29.634  18.473 -0.1176  0.0958 -0.1366
 1750SAP2   C1B21183  13.705  30.690  18.407  0.1447 -0.0216  0.0227
 1750SAP2   C2B21184  13.476  30.479  18.070  0.3273 -0.2662  0.0606
 1750SAP2   C3B21185  13.404  30.461  17.631 -0.1526 -0.0502 -0.2699
 1750SAP2   C4B21186  13.522  30.229  17.277 -0.0250 -0.3221 -0.0904
 1751SAP2    C121187   5.565   4.755  19.882  0.0403  0.1409  0.0596
 1751SAP2    C221188   5.378   4.885  20.039 -0.1464  0.2659 -0.2548
 1751SAP2    C321189   5.706   4.955  20.030 -0.1476  0.3150  0.0081
 1751SAP2    C421190   5.550   4.865  19.984 -0.0007 -0.0007  0.6972
 1751SAP2   PO421191   5.469   4.701  19.550 -0.0926  0.0358 -0.1436
 1751SAP2    P421192   5.674   5.124  20.248 -0.2865 -0.1088 -0.1572
 1751SAP2    P521193   5.269   5.065  20.278 -0.1819  0.0511  0.1902
 1751SAP2   GL121194   5.717   4.598  19.277  0.3925 -0.1136 -0.2047
 1751SAP2   GL221195   5.578   4.810  19.076 -0.1754 -0.2548 -0.1501
 1751SAP2   D1A21196   5.972   4.639  18.872 -0.1523 -0.0728  0.2603
 1751SAP2   D2A21197   6.176   4.231  18.819  0.0322 -0.1465 -0.0450
 1751SAP2   D3A21198   5.924   4.026  18.552  0.1988  0.0757 -0.0589
 1751SAP2   D4A21199   6.201   3.849  18.267  0.2111  0.1076  0.0991
 1751SAP2   C5A21200   6.451   4.146  18.084 -0.0319  0.0498  0.0147
 1751SAP2   C1B21201   5.269   4.702  18.785  0.1347 -0.4716  0.0859
 1751SAP2   C2B21202   5.224   4.492  18.349  0.1050  0.0671  0.2133
 1751SAP2   C3B21203   5.039   4.314  18.002 -0.1742  0.3258 -0.2010
 1751SAP2   C4B21204   4.892   4.259  17.532 -0.0010  0.0042 -0.1339
 1752SAP2    C121205  11.112  16.449  19.493 -0.0265 -0.0179 -0.0196
 1752SAP2    C221206  11.082  16.482  19.766 -0.1339  0.3216 -0.0671
 1752SAP2    C321207  11.080  16.187  19.604  0.3699  0.0761  0.3427
 1752SAP2    C421208  11.092  16.373  19.621 -0.0007 -0.0007  0.6972
 1752SAP2   PO421209  11.362  16.626  19.358 -0.0255  0.1315 -0.1622
 1752SAP2    P421210  11.058  16.037  19.868  0.0003 -0.0485 -0.0020
 1752SAP2    P521211  10.985  16.500  20.061 -0.1225  0.1186  0.0357
 1752SAP2   GL121212  11.490  16.451  19.085 -0.1910  0.4267  0.2426
 1752SAP2   GL221213  11.173  16.427  18.950 -0.2218 -0.0886  0.2031
 1752SAP2   D1A21214  11.523  16.174  18.702 -0.0508  0.1089 -0.1174
 1752SAP2   D2A21215  11.129  15.972  18.789  0.1229 -0.0988  0.2698
 1752SAP2   D3A21216  10.969  16.156  18.367 -0.0287 -0.1119  0.0245
 1752SAP2   D4A21217  10.742  16.312  18.004  0.4032 -0.1884 -0.0742
 1752SAP2   C5A21218  10.481  16.425  18.327 -0.1638 -0.3154  0.3387
 1752SAP2   C1B21219  10.897  16.606  18.624 -0.1250  0.0127  0.1419
 1752SAP2   C2B21220  11.036  16.625  18.198 -0.1269 -0.2674  0.2235
 1752SAP2   C3B21221  11.067  16.910  17.796  0.0467 -0.1793  0.3539
 1752SAP2   C4B21222  10.922  17.012  17.347  0.0776 -0.0413  0.3160
 1753SAP2    C121223  15.395  26.413  20.088  0.0188 -0.2206  0.0597
 1753SAP2    C221224  15.478  26.303  20.328 -0.0153 -0.0913  0.1316
 1753SAP2    C321225  15.163  26.299  20.211 -0.0191 -0.0586  0.1412
 1753SAP2    C421226  15.345  26.338  20.209 -0.0007 -0.0007  0.6972
 1753SAP2   PO421227  15.652  26.330  19.917  0.0164  0.0543  0.2136
 1753SAP2    P421228  15.053  26.125  20.434  0.1033  0.4387 -0.1458
 1753SAP2    P521229  15.512  26.235  20.618  0.0068 -0.1879 -0.2423
 1753SAP2   GL121230  15.787  26.445  19.564 -0.0395  0.3078  0.0088
 1753SAP2   GL221231  15.541  26.640  19.565 -0.0694 -0.0748 -0.3583
 1753SAP2   D1A21232  16.164  26.648  19.358  0.3324 -0.0469 -0.0443
 1753SAP2   D2A21233  16.441  26.805  19.702  0.0284  0.0292 -0.0131
 1753SAP2   D3A21234  16.864  26.992  19.557 -0.1050 -0.0885  0.1228
 1753SAP2   D4A21235  17.189  26.658  19.427  0.0585 -0.3788 -0.1020
 1753SAP2   C5A21236  16.917  26.581  19.826 -0.0453  0.1330  0.1951
 1753SAP2   C1B21237  15.698  26.708  19.149  0.1030 -0.1460  0.3862
 1753SAP2   C2B21238  15.882  26.493  18.749 -0.1509  0.1446  0.0132
 1753SAP2   C3B21239  15.987  26.617  18.349  0.0972  0.3939  0.2881
 1753SAP2   C4B21240  16.174  26.334  18.021 -0.0722  0.0401  0.1004
 1754SAP2    C121241  12.136  28.159  19.760  0.1656  0.2445  0.1945
 1754SAP2    C221242  12.300  28.000  19.917 -0.1822 -0.2628  0.0694
 1754SAP2    C321243  12.052  28.195  20.032  0.1815  0.1286  0.2156
 1754SAP2    C421244  12.162  28.118  19.903 -0.0007 -0.0007  0.6972
 1754SAP2   PO421245  12.044  27.942  19.513 -0.0184  0.0279 -0.4350
 1754SAP2    P421246  12.132  28.099  20.316 -0.0480  0.2276 -0.0185
 1754SAP2    P521247  12.501  28.011  20.150 -0.0263 -0.1961  0.2047
 1754SAP2   GL121248  12.238  28.141  19.293  0.3120 -0.1013  0.0623
 1754SAP2   GL221249  12.366  27.954  19.092  0.0657  0.0739 -0.0962
 1754SAP2   D1A21250  12.105  28.410  18.952 -0.0718  0.0129  0.0717
 1754SAP2   D2A21251  11.705  28.652  18.895 -0.0716  0.2173 -0.1944
 1754SAP2   D3A21252  11.549  28.412  18.564 -0.1631  0.3682 -0.1527
 1754SAP2   D4A21253  11.357  28.185  18.926  0.0454  0.2374 -0.2397
 1754SAP2   C5A21254  11.786  27.992  18.863  0.3832 -0.1141 -0.2015
 1754SAP2   C1B21255  12.495  28.220  18.767 -0.1744 -0.0000  0.1754
 1754SAP2   C2B21256  12.767  28.190  18.400 -0.0677 -0.0078 -0.1111
 1754SAP2   C3B21257  12.797  28.078  17.935  0.2708  0.0166  0.0322
 1754SAP2   C4B21258  12.624  27.960  17.490  0.0480  0.0631 -0.0473
 1755SAP2    C121259   3.157   4.734  20.104  0.0425 -0.3099 -0.1629
 1755SAP2    C221260   3.149   4.559  20.319  0.1691  0.0817  0.1741
 1755SAP2    C321261   3.357   4.821  20.290 -0.0299  0.1978 -0.3081
 1755SAP2    C421262   3.221   4.705  20.238 -0.0007 -0.0007  0.6972
 1755SAP2   PO421263   2.813   4.768  20.017 -0.0122 -0.2797 -0.1327
 1755SAP2    P421264   3.488   4.706  20.598 -0.1491  0.2740 -0.1498
 1755SAP2    P521265   3.193   4.298  20.462 -0.1582 -0.0795  0.0993
 1755SAP2   GL121266   2.685   5.008  19.783 -0.0617  0.1428 -0.0032
 1755SAP2   GL221267   2.831   5.200  19.815  0.0839  0.0750 -0.2217
 1755SAP2   D1A21268   2.335   5.250  20.029  0.2541 -0.2182  0.3833
 1755SAP2   D2A21269   2.120   5.534  20.348  0.0662  0.1527 -0.1426
 1755SAP2   D3A21270   2.421   5.899  20.213 -0.0566 -0.1618  0.4920
 1755SAP2   D4A21271   2.272   6.282  20.467  0.0081  0.1816  0.1287
 1755SAP2   C5A21272   2.683   6.417  20.165  0.1156 -0.2606 -0.0115
 1755SAP2   C1B21273   2.560   5.471  19.644  0.0731 -0.0358  0.1731
 1755SAP2   C2B21274   2.565   5.627  19.259  0.1412 -0.1132  0.0917
 1755SAP2   C3B21275   2.774   5.656  18.878  0.1491 -0.0999  0.5671
 1755SAP2   C4B21276   3.040   5.883  18.578 -0.1713  0.1324 -0.0783
 1756SAP2    C121277  24.000   8.447  19.957  0.0966 -0.1881  0.0477
 1756SAP2    C221278  24.132   8.675  20.044 -0.0684 -0.0662 -0.0168
 1756SAP2    C321279  24.272   8.371  20.011  0.1045 -0.0211  0.2589
 1756SAP2    C421280  24.135   8.497  20.004 -0.0007 -0.0007  0.6972
 1756SAP2   PO421281  23.784   8.605  19.734  0.0069  0.0632 -0.1783
 1756SAP2    P421282  24.531   8.517  20.046 -0.1191 -0.0665  0.1233
 1756SAP2    P521283  24.172   8.699  20.352  0.0710  0.1033 -0.1583
 1756SAP2   GL121284  23.603   8.527  19.532 -0.0909  0.1475 -0.1716
 1756SAP2   GL221285  23.672   8.289  19.291  0.2735 -0.2382 -0.0941
 1756SAP2   D1A21286  23.381   8.693  19.154  0.2935 -0.0454 -0.0372
 1756SAP2   D2A21287  23.229   8.330  18.939  0.0846  0.0338  0.2811
 1756SAP2   D3A21288  22.874   8.647  18.920 -0.3270 -0.1022 -0.2305
 1756SAP2   D4A21289  22.945   9.057  18.725  0.1231  0.0285 -0.0847
 1756SAP2   C5A21290  23.405   8.966  18.605 -0.0503  0.1067 -0.0369
 1756SAP2   C1B21291  23.638   8.036  18.858 -0.3183 -0.0937 -0.0330
 1756SAP2   C2B21292  23.590   7.922  18.409 -0.0446  0.0491  0.3981
 1756SAP2   C3B21293  23.578   8.029  17.940  0.0231  0.1164 -0.1316
 1756SAP2   C4B21294  23.582   8.095  17.482 -0.0145  0.1853 -0.2526
 1757SAP2    C121295  10.472   2.011  20.648  0.2868  0.1810 -0.2472
 1757SAP2    C221296  10.215   2.107  20.610  0.1208 -0.1966 -0.1296
 1757SAP2    C321297  10.489   2.297  20.653 -0.2001  0.2163  0.1726
 1757SAP2    C421298  10.392   2.138  20.637 -0.0007 -0.0007  0.6972
 1757SAP2   PO421299  10.454   1.742  20.408  0.1715 -0.1293 -0.3254
 1757SAP2    P421300  10.393   2.607  20.627 -0.0234  0.1219 -0.1111
 1757SAP2    P521301  10.027   2.354  20.600  0.1126 -0.0354  0.0992
 1757SAP2   GL121302  10.266   1.554  20.169  0.0885  0.1820  0.1604
 1757SAP2   GL221303  10.169   1.789  19.981  0.3069 -0.0956  0.0544
 1757SAP2   D1A21304  10.508   1.334  19.839 -0.1503 -0.0338 -0.2644
 1757SAP2   D2A21305  10.143   1.215  19.756 -0.1792  0.0045 -0.2464
 1757SAP2   D3A21306  10.159   0.761  19.722 -0.0887  0.2120  0.0773
 1757SAP2   D4A21307   9.670   0.669  19.804 -0.0586 -0.2852 -0.0001
 1757SAP2   C5A21308   9.656   1.157  19.869 -0.2547  0.0545 -0.1829
 1757SAP2   C1B21309  10.394   1.789  19.596 -0.0188 -0.1013 -0.0049
 1757SAP2   C2B21310  10.384   1.867  19.201 -0.0334  0.0361 -0.2526
 1757SAP2   C3B21311  10.219   1.945  18.770 -0.2343  0.1179  0.1547
 1757SAP2   C4B21312   9.937   2.034  18.448 -0.1035 -0.1707 -0.0841
 1758SAP2    C121313  14.591   6.723  19.946  0.0235 -0.5109  0.0909
 1758SAP2    C221314  14.365   6.812  20.079  0.1571  0.0155 -0.0094
 1758SAP2    C321315  14.669   6.775  20.217  0.1231 -0.2161  0.0089
 1758SAP2    C421316  14.541   6.770  20.081 -0.0007 -0.0007  0.6972
 1758SAP2   PO421317  14.650   6.793  19.634 -0.1180  0.0885 -0.1261
 1758SAP2    P421318  14.670   6.854  20.518 -0.1543  0.0630  0.0436
 1758SAP2    P521319  14.187   6.690  20.269  0.0528  0.0490 -0.0371
 1758SAP2   GL121320  14.590   6.819  19.386 -0.0660  0.2458  0.5756
 1758SAP2   GL221321  14.346   6.640  19.298  0.0445 -0.3312  0.2627
 1758SAP2   D1A21322  14.575   7.002  18.983 -0.1146 -0.0435  0.2484
 1758SAP2   D2A21323  14.635   7.037  18.565  0.1753 -0.0600  0.0539
 1758SAP2   D3A21324  14.622   6.645  18.676 -0.2421 -0.0460 -0.0160
 1758SAP2   D4A21325  14.771   6.547  18.199 -0.3244  0.1367  0.1072
 1758SAP2   C5A21326  14.794   6.989  18.020  0.1724 -0.1901 -0.1434
 1758SAP2   C1B21327  14.166   6.730  18.902 -0.1776  0.3003  0.1668
 1758SAP2   C2B21328  14.183   6.782  18.427  0.0315 -0.3328 -0.2572
 1758SAP2   C3B21329  13.919   6.812  18.125  0.1615 -0.0233 -0.3212
 1758SAP2   C4B21330  13.582   6.882  17.877  0.1454 -0.2731 -0.0565
 1759SAP2    C121331   1.060  13.186  20.034 -0.1020 -0.0933 -0.0139
 1759SAP2    C221332   1.001  13.453  20.078  0.0149 -0.0859  0.1019
 1759SAP2    C321333   1.256  13.285  20.218  0.1272 -0.1790 -0.2066
 1759SAP2    C421334   1.106  13.308  20.110 -0.0007 -0.0007  0.6972
 1759SAP2   PO421335   1.013  13.089  19.753 -0.3631  0.0083  0.0583
 1759SAP2    P421336   1.358  13.558  20.395 -0.1040 -0.3136 -0.1451
 1759SAP2    P521337   0.885  13.582  20.286  0.1076 -0.1553  0.1894
 1759SAP2   GL121338   1.134  13.211  19.491  0.2589 -0.1174  0.2715
 1759SAP2   GL221339   1.356  13.192  19.311  0.1653 -0.1566 -0.2849
 1759SAP2   D1A21340   0.904  13.488  19.163  0.3478 -0.5122 -0.3384
 1759SAP2   D2A21341   1.258  13.577  18.895 -0.0492  0.1152 -0.0780
 1759SAP2   D3A21342   1.109  13.986  18.901 -0.1922 -0.3814  0.2631
 1759SAP2   D4A21343   1.152  13.815  18.444 -0.0124 -0.4253 -0.1523
 1759SAP2   C5A21344   1.550  13.903  18.637  0.1743  0.2093 -0.0239
 1759SAP2   C1B21345   1.530  13.201  18.912 -0.0358  0.0797 -0.0005
 1759SAP2   C2B21346   1.663  13.040  18.559 -0.1629  0.1581  0.2374
 1759SAP2   C3B21347   1.766  12.952  18.082  0.1480  0.1238 -0.0457
 1759SAP2   C4B21348   1.536  12.823  17.723 -0.0076  0.1964 -0.3531
 1760SAP2    C121349  22.728  19.917  21.316  0.1206 -0.1708  0.0113
 1760SAP2    C221350  22.759  20.110  21.512  0.1675  0.1614 -0.3123
 1760SAP2    C321351  22.994  19.888  21.419  0.1955  0.0988 -0.0982
 1760SAP2    C421352  22.827  19.972  21.416 -0.0007 -0.0007  0.6972
 1760SAP2   PO421353  22.668  20.089  21.047  0.0161  0.0090 -0.4711
 1760SAP2    P421354  23.223  20.008  21.609  0.3195  0.2620  0.2311
 1760SAP2    P521355  22.724  20.257  21.690  0.0095  0.0915 -0.1813
 1760SAP2   GL121356  22.845  19.859  20.898  0.3165 -0.0356  0.4630
 1760SAP2   GL221357  22.696  19.646  20.827  0.2239 -0.1076 -0.0738
 1760SAP2   D1A21358  22.823  19.888  20.412  0.0843  0.1610 -0.3600
 1760SAP2   D2A21359  23.004  19.721  20.079 -0.1835  0.1593  0.1515
 1760SAP2   D3A21360  22.749  19.385  20.036  0.0784 -0.1354  0.0317
 1760SAP2   D4A21361  22.810  18.873  20.109  0.3261 -0.1298 -0.0039
 1760SAP2   C5A21362  23.257  19.022  20.132 -0.2183 -0.3750 -0.1139
 1760SAP2   C1B21363  22.597  19.202  21.014 -0.1204 -0.2420 -0.1951
 1760SAP2   C2B21364  22.209  19.062  21.017  0.5697  0.1040  0.1651
 1760SAP2   C3B21365  21.747  19.140  20.836  0.0245  0.0040  0.0300
 1760SAP2   C4B21366  21.369  19.069  20.980 -0.2988  0.0360 -0.0695
 1761SAP2    C121367   8.518  16.468  19.930 -0.0227 -0.0581 -0.1391
 1761SAP2    C221368   8.510  16.421  20.203 -0.0948  0.0304 -0.1255
 1761SAP2    C321369   8.736  16.614  20.046  0.0545 -0.1619 -0.1516
 1761SAP2    C421370   8.588  16.501  20.060 -0.0007 -0.0007  0.6972
 1761SAP2   PO421371   8.209  16.496  19.841 -0.1536  0.1316 -0.3243
 1761SAP2    P421372   8.907  16.678  20.314  0.2732  0.0405  0.1104
 1761SAP2    P521373   8.692  16.425  20.505 -0.1221 -0.1331 -0.0990
 1761SAP2   GL121374   8.211  16.562  19.503  0.0171 -0.1424 -0.0067
 1761SAP2   GL221375   8.073  16.279  19.520  0.1113 -0.1755  0.1375
 1761SAP2   D1A21376   8.116  16.459  19.030  0.1206 -0.0724 -0.2417
 1761SAP2   D2A21377   8.400  16.129  19.124  0.0000  0.1670  0.1075
 1761SAP2   D3A21378   8.728  15.796  19.147  0.0073 -0.1124  0.0543
 1761SAP2   D4A21379   8.323  15.583  19.031  0.4396 -0.1860  0.0689
 1761SAP2   C5A21380   8.597  15.238  19.087  0.0698 -0.2663  0.0712
 1761SAP2   C1B21381   7.964  15.864  19.319  0.1171  0.0759  0.0549
 1761SAP2   C2B21382   7.764  15.567  19.021  0.0189  0.2598  0.0238
 1761SAP2   C3B21383   7.646  15.304  18.685  0.2340 -0.1042 -0.0299
 1761SAP2   C4B21384   7.363  15.218  18.317 -0.2881  0.0601  0.0568
 1762SAP2    C121385  31.108  17.237  20.074  0.1309 -0.1569  0.1145
 1762SAP2    C221386  31.102  17.423  20.280  0.0880  0.0225 -0.0457
 1762SAP2    C321387  31.366  17.231  20.199  0.0915 -0.0803  0.2008
 1762SAP2    C421388  31.192  17.297  20.185 -0.0007 -0.0007  0.6972
 1762SAP2   PO421389  30.911  17.349  19.841 -0.0470 -0.3162  0.3421
 1762SAP2    P421390  31.544  17.325  20.430  0.1039 -0.2926 -0.1142
 1762SAP2    P521391  31.120  17.323  20.574  0.0542 -0.0636 -0.0231
 1762SAP2   GL121392  30.908  17.414  19.557 -0.3021 -0.4090  0.2025
 1762SAP2   GL221393  31.095  17.286  19.363 -0.4193  0.1108  0.0808
 1762SAP2   D1A21394  30.768  17.540  19.130  0.0868  0.1695 -0.1905
 1762SAP2   D2A21395  30.608  17.153  19.084 -0.2164 -0.1327 -0.0188
 1762SAP2   D3A21396  30.258  17.547  18.938  0.0218  0.1645  0.1044
 1762SAP2   D4A21397  30.353  17.373  18.472 -0.1323 -0.1309  0.0283
 1762SAP2   C5A21398  30.266  17.460  18.093 -0.0482  0.0324  0.2652
 1762SAP2   C1B21399  31.340  17.248  18.932 -0.1794  0.1600  0.2570
 1762SAP2   C2B21400  31.321  17.139  18.493 -0.0870  0.1187 -0.0234
 1762SAP2   C3B21401  31.205  17.304  18.088 -0.2115 -0.3823  0.1819
 1762SAP2   C4B21402  31.396  17.319  17.631 -0.0719 -0.0157  0.0932
 1763SAP2    C121403   5.557  25.263  19.631 -0.4358 -0.0552  0.0886
 1763SAP2    C221404   5.763  25.247  19.816  0.0458 -0.0181 -0.4182
 1763SAP2    C321405   5.462  25.100  19.847  0.2159 -0.2620  0.2423
 1763SAP2    C421406   5.594  25.203  19.765 -0.0007 -0.0007  0.6972
 1763SAP2   PO421407   5.710  25.264  19.331  0.0035 -0.0647 -0.0080
 1763SAP2    P421408   5.506  24.876  20.069  0.1642  0.1808 -0.0915
 1763SAP2    P521409   5.680  25.436  20.079  0.3267 -0.2859 -0.1375
 1763SAP2   GL121410   5.641  25.331  18.993 -0.1257 -0.0077 -0.1608
 1763SAP2   GL221411   5.760  25.604  19.073 -0.0026  0.2131 -0.2754
 1763SAP2   D1A21412   5.412  25.435  18.648  0.0676 -0.1063 -0.0430
 1763SAP2   D2A21413   5.512  24.975  18.579  0.2530 -0.3278  0.0089
 1763SAP2   D3A21414   5.284  25.150  18.257  0.0447 -0.0640 -0.2762
 1763SAP2   D4A21415   5.033  25.032  17.883 -0.1609 -0.0128  0.0924
 1763SAP2   C5A21416   5.102  25.400  17.568  0.1169 -0.1604 -0.1782
 1763SAP2   C1B21417   5.932  25.488  18.682  0.0314 -0.2142  0.2124
 1763SAP2   C2B21418   5.806  25.284  18.312 -0.0249 -0.0502  0.0941
 1763SAP2   C3B21419   5.705  24.931  18.012  0.3408  0.1507  0.0105
 1763SAP2   C4B21420   5.461  24.806  17.640  0.3083  0.0271  0.0477
 1764POPC   NC321421  14.518  18.503  15.125  0.1798  0.0288  0.0876
 1764POPC   PO421422  14.362  18.612  14.784 -0.1091 -0.5796 -0.1352
 1764POPC   GL121423  13.960  18.744  14.869  0.2042 -0.1736 -0.0289
 1764POPC   GL221424  13.789  18.521  14.679  0.2605  0.1168 -0.1816
 1764POPC   C1A21425  13.698  19.087  14.978  0.1304 -0.0007  0.1680
 1764POPC   D2A21426  13.304  19.178  15.175  0.2548  0.0339  0.0417
 1764POPC   C3A21427  13.091  19.348  15.582 -0.1607  0.1958  0.0481
 1764POPC   C4A21428  13.055  19.364  16.040  0.0838 -0.2325 -0.0818
 1764POPC   C1B21429  13.586  18.556  15.058 -0.0656 -0.0269 -0.4260
 1764POPC   C2B21430  13.201  18.716  15.308 -0.0700  0.0022  0.0453
 1764POPC   C3B21431  12.783  18.942  15.363 -0.0269 -0.2060  0.0662
 1764POPC   C4B21432  12.406  19.162  15.476  0.2143  0.1234  0.3751
 1765POPC   NC321433  31.611  17.682  15.400  0.2784  0.0241  0.0899
 1765POPC   PO421434  31.943  17.439  15.331  0.0697 -0.0360  0.2014
 1765POPC   GL121435  32.039  17.278  15.595  0.0518 -0.0825  0.1852
 1765POPC   GL221436  31.919  17.387  15.864 -0.1584  0.0059  0.4233
 1765POPC   C1A21437  32.335  17.079  15.918  0.0239  0.0315 -0.0596
 1765POPC   D2A21438  32.453  16.862  16.301  0.1647  0.0232  0.0452
 1765POPC   C3A21439  32.827  17.032  16.577  0.3256 -0.3545  0.0764
 1765POPC   C4A21440  33.049  17.427  16.669  0.1613 -0.3290 -0.1192
 1765POPC   C1B21441  31.935  17.263  16.335 -0.0606 -0.1652  0.0012
 1765POPC   C2B21442  32.137  16.978  16.605 -0.0215  0.0851  0.0150
 1765POPC   C3B21443  32.450  16.795  16.921  0.2640  0.0457  0.1412
 1765POPC   C4B21444  32.670  16.536  17.301  0.1030 -0.0295  0.3643
 1766POPC   NC321445  28.044  29.560  14.590 -0.1223  0.2836 -0.0254
 1766POPC   PO421446  28.194  29.696  14.923  0.0474  0.1694  0.0273
 1766POPC   GL121447  28.109  29.600  15.259  0.1686 -0.0157 -0.0430
 1766POPC   GL221448  27.861  29.541  15.296  0.0341  0.1153  0.0459
 1766POPC   C1A21449  28.247  29.645  15.735 -0.0656 -0.2619  0.0061
 1766POPC   D2A21450  28.291  29.391  16.144 -0.1798 -0.1320  0.0032
 1766POPC   C3A21451  28.051  29.686  16.353  0.0063 -0.0330 -0.0933
 1766POPC   C4A21452  27.667  29.718  16.565 -0.1709  0.0583 -0.2917
 1766POPC   C1B21453  27.746  29.496  15.740 -0.1993 -0.1343 -0.4612
 1766POPC   C2B21454  27.403  29.354  16.007 -0.0656  0.0916  0.0966
 1766POPC   C3B21455  27.252  29.363  16.458 -0.0955  0.1779  0.1459
 1766POPC   C4B21456  27.208  29.405  16.908 -0.5643 -0.0177 -0.1127
 1767POPC   NC321457  13.488  20.032  15.361 -0.1071  0.0613  0.2579
 1767POPC   PO421458  13.872  19.943  15.386  0.0446  0.0882  0.0849
 1767POPC   GL121459  13.749  19.640  15.548 -0.2240  0.4390 -0.0466
 1767POPC   GL221460  13.499  19.552  15.440  0.1555 -0.0911  0.2407
 1767POPC   C1A21461  13.725  19.371  15.945  0.2622 -0.1491  0.0808
 1767POPC   D2A21462  13.480  19.169  16.327  0.2129  0.1445  0.2352
 1767POPC   C3A21463  13.596  19.176  16.791  0.1408 -0.1289  0.0369
 1767POPC   C4A21464  13.640  19.521  17.111  0.4071 -0.4673  0.0823
 1767POPC   C1B21465  13.395  19.729  15.835 -0.0295 -0.1826 -0.2085
 1767POPC   C2B21466  13.432  19.634  16.258 -0.2094 -0.2816 -0.0531
 1767POPC   C3B21467  13.170  19.424  16.572 -0.0270 -0.0780  0.1237
 1767POPC   C4B21468  13.013  19.035  16.775 -0.0475 -0.0035 -0.1875
 1768POPC   NC321469  18.330  25.488  15.597 -0.4296 -0.0039  0.0406
 1768POPC   PO421470  18.157  25.167  15.501 -0.0655 -0.1469 -0.1968
 1768POPC   GL121471  18.273  25.078  15.920  0.3506  0.3281  0.0149
 1768POPC   GL221472  18.158  25.298  16.095 -0.3706  0.2903 -0.1359
 1768POPC   C1A21473  18.260  24.769  16.294 -0.2317 -0.2733  0.0652
 1768POPC   D2A21474  18.505  24.505  16.553  0.0679  0.3158 -0.1607
 1768POPC   C3A21475  18.461  24.361  17.004  0.0470  0.0406  0.1930
 1768POPC   C4A21476  18.754  24.539  17.288 -0.2728 -0.1036  0.0106
 1768POPC   C1B21477  18.041  25.196  16.472  0.2746 -0.1612 -0.1643
 1768POPC   C2B21478  18.042  25.181  16.956  0.2121  0.0253 -0.3198
 1768POPC   C3B21479  18.038  25.190  17.381 -0.0061  0.4055 -0.1165
 1768POPC   C4B21480  18.236  25.194  17.822  0.0039  0.0017  0.2978
 1769POPC   NC321481   4.437   7.096  15.490 -0.0963 -0.2023  0.0737
 1769POPC   PO421482   4.418   6.716  15.557  0.0773  0.2835  0.1285
 1769POPC   GL121483   4.154   6.724  15.795  0.0127  0.0074  0.0528
 1769POPC   GL221484   4.171   7.004  15.890 -0.1610 -0.1830  0.2832
 1769POPC   C1A21485   3.995   6.653  16.219 -0.0708 -0.2722 -0.3560
 1769POPC   D2A21486   4.066   6.494  16.647 -0.1139 -0.1852 -0.0831
 1769POPC   C3A21487   4.474   6.266  16.609 -0.0211  0.3003  0.1080
 1769POPC   C4A21488   4.851   6.296  16.285 -0.0922  0.3437  0.2052
 1769POPC   C1B21489   4.315   7.144  16.297 -0.2210 -0.0149  0.3364
 1769POPC   C2B21490   4.456   7.424  16.682  0.0917  0.1477  0.1530
 1769POPC   C3B21491   4.727   7.530  17.114  0.2137  0.1851 -0.1735
 1769POPC   C4B21492   4.477   7.693  17.465 -0.1519  0.1037  0.0592
 1770POPC   NC321493   7.145  11.799  14.662 -0.3063  0.0619  0.2340
 1770POPC   PO421494   7.250  12.085  14.892 -0.0636  0.1797  0.0104
 1770POPC   GL121495   7.024  11.942  15.135 -0.4250  0.1657  0.1803
 1770POPC   GL221496   6.851  11.684  15.076 -0.2488 -0.2151  0.2613
 1770POPC   C1A21497   6.941  11.886  15.604  0.1213  0.2145 -0.0750
 1770POPC   D2A21498   6.900  11.966  16.085  0.5118  0.1726 -0.3716
 1770POPC   C3A21499   6.477  11.988  16.384 -0.0833  0.0300 -0.1230
 1770POPC   C4A21500   6.050  11.917  16.555 -0.0064 -0.0076 -0.0770
 1770POPC   C1B21501   6.569  11.550  15.414 -0.1661  0.1699  0.1299
 1770POPC   C2B21502   6.403  11.259  15.758  0.1749 -0.0086  0.0720
 1770POPC   C3B21503   6.175  11.062  16.147  0.3314  0.0541 -0.0738
 1770POPC   C4B21504   6.221  10.640  16.369  0.2847 -0.1615  0.0752
 1771POPC   NC321505  12.768  27.903  15.571 -0.0173  0.1534  0.2405
 1771POPC   PO421506  12.652  28.187  15.373 -0.3627 -0.0300 -0.1321
 1771POPC   GL121507  13.019  28.282  15.706  0.1253 -0.3181 -0.1494
 1771POPC   GL221508  12.854  28.529  15.793 -0.3189  0.2707  0.0907
 1771POPC   C1A21509  13.235  28.384  16.117 -0.2635 -0.0487  0.0784
 1771POPC   D2A21510  13.657  28.575  16.145 -0.0835  0.0817 -0.1257
 1771POPC   C3A21511  13.753  29.029  16.206  0.0088  0.4040  0.3145
 1771POPC   C4A21512  13.988  29.368  16.390  0.0034  0.3900  0.2082
 1771POPC   C1B21513  12.780  28.544  16.272 -0.1807 -0.1254 -0.1438
 1771POPC   C2B21514  13.009  28.432  16.684  0.1679  0.0509 -0.0985
 1771POPC   C3B21515  13.265  28.571  17.060  0.0177  0.1324  0.0671
 1771POPC   C4B21516  13.539  28.400  17.337  0.1213 -0.2425  0.0592
 1772POPC   NC321517  18.160  14.004  14.725 -0.1214  0.3465  0.1384
 1772POPC   PO421518  18.221  13.639  14.860 -0.0816  0.0849 -0.1798
 1772POPC   GL121519  18.124  13.873  15.160 -0.1888 -0.0630 -0.0718
 1772POPC   GL221520  18.116  13.919  15.509  0.0419  0.1310  0.2181
 1772POPC   C1A21521  18.414  14.232  15.332 -0.1161  0.1568  0.0805
 1772POPC   D2A21522  18.834  14.208  15.530 -0.0641 -0.0547  0.0163
 1772POPC   C3A21523  18.965  14.252  15.994 -0.0963 -0.3299 -0.1774
 1772POPC   C4A21524  18.961  14.146  16.449  0.4316 -0.3485  0.1584
 1772POPC   C1B21525  17.885  13.950  15.913 -0.0826 -0.3237 -0.4640
 1772POPC   C2B21526  18.067  14.171  16.346 -0.0629  0.2434  0.0750
 1772POPC   C3B21527  18.205  14.364  16.748  0.1669 -0.0735  0.1466
 1772POPC   C4B21528  18.279  14.526  17.197 -0.1186 -0.0620 -0.0327
 1773POPC   NC321529   0.633  30.260  15.381 -0.1805 -0.1515 -0.1724
 1773POPC   PO421530   0.411  29.969  15.169 -0.1831  0.1364 -0.0151
 1773POPC   GL121531   0.410  29.771  15.427 -0.0377  0.1534  0.0044
 1773POPC   GL221532   0.626  29.626  15.431  0.1501  0.2785 -0.0418
 1773POPC   C1A21533   0.456  29.951  15.825 -0.0665  0.0496  0.1526
 1773POPC   D2A21534   0.314  30.256  16.135 -0.0410 -0.0966  0.0121
 1773POPC   C3A21535   0.531  30.063  16.506 -0.3728 -0.0769 -0.3111
 1773POPC   C4A21536   0.567  29.623  16.808  0.0181 -0.0975 -0.0266
 1773POPC   C1B21537   0.850  29.444  15.825 -0.3798 -0.1293  0.0418
 1773POPC   C2B21538   1.215  29.540  16.159 -0.0268  0.3583 -0.4258
 1773POPC   C3B21539   1.438  29.505  16.562 -0.0297 -0.0216 -0.0695
 1773POPC   C4B21540   1.557  29.698  16.929  0.1028 -0.1109 -0.0920
 1774POPC   NC321541   3.457  22.194  15.340 -0.1122 -0.1808  0.4303
 1774POPC   PO421542   3.590  21.862  15.459  0.0922  0.1192 -0.0399
 1774POPC   GL121543   3.502  21.679  15.810  0.4575  0.0702  0.2340
 1774POPC   GL221544   3.277  21.554  15.875 -0.1519  0.1386  0.2411
 1774POPC   C1A21545   3.567  21.813  16.201  0.1728 -0.0530  0.1202
 1774POPC   D2A21546   3.513  21.864  16.644 -0.0132  0.3260 -0.0193
 1774POPC   C3A21547   3.506  21.640  16.996  0.0004  0.3430  0.3130
 1774POPC   C4A21548   3.447  21.390  17.385  0.1936  0.0566  0.0424
 1774POPC   C1B21549   3.266  21.452  16.313 -0.0217  0.0133  0.0100
 1774POPC   C2B21550   3.193  21.324  16.755  0.0359 -0.0112 -0.0348
 1774POPC   C3B21551   2.990  21.360  17.130  0.1390 -0.3190  0.3441
 1774POPC   C4B21552   2.773  21.661  17.352 -0.0398  0.3868 -0.1638
 1775POPC   NC321553   8.254  13.099  15.057  0.0355  0.2571  0.1917
 1775POPC   PO421554   7.923  13.269  15.160  0.4302  0.2831  0.0681
 1775POPC   GL121555   7.850  13.109  15.436 -0.0415  0.2192  0.0986
 1775POPC   GL221556   7.927  12.800  15.414 -0.1024 -0.4269 -0.3958
 1775POPC   C1A21557   7.975  13.275  15.900  0.2463 -0.1584  0.0692
 1775POPC   D2A21558   7.962  13.119  16.302  0.0167  0.1924 -0.1356
 1775POPC   C3A21559   7.816  12.898  16.642  0.0358 -0.0013 -0.3514
 1775POPC   C4A21560   7.696  12.798  17.035 -0.0613 -0.0834  0.0233
 1775POPC   C1B21561   7.653  12.931  15.776  0.2431 -0.1318  0.1956
 1775POPC   C2B21562   7.522  12.940  16.209  0.2662 -0.0636 -0.2294
 1775POPC   C3B21563   7.308  12.901  16.629  0.2098  0.2147 -0.0582
 1775POPC   C4B21564   7.227  12.723  17.102  0.0607  0.0013 -0.1370
 1776POPC   NC321565   6.745  13.666  15.129 -0.2072  0.1561  0.0789
 1776POPC   PO421566   7.100  13.529  15.190  0.3208 -0.2858  0.1637
 1776POPC   GL121567   6.987  13.245  15.417  0.0668 -0.1118  0.1922
 1776POPC   GL221568   6.713  13.199  15.466 -0.0082  0.0066 -0.0612
 1776POPC   C1A21569   7.117  13.229  15.853 -0.1222  0.0145 -0.3597
 1776POPC   D2A21570   6.908  13.056  16.318 -0.1919 -0.1935 -0.1346
 1776POPC   C3A21571   6.821  12.886  16.699  0.1622  0.2630 -0.2840
 1776POPC   C4A21572   6.731  12.965  17.134  0.2951  0.1179 -0.0253
 1776POPC   C1B21573   6.605  13.011  15.889  0.0716 -0.1962  0.3585
 1776POPC   C2B21574   6.481  12.851  16.305  0.0292  0.4083  0.1529
 1776POPC   C3B21575   6.318  12.851  16.739 -0.0515  0.0331 -0.1252
 1776POPC   C4B21576   6.252  13.020  17.123  0.1420  0.2310 -0.3926
 1777POPC   NC321577  12.171  11.184  15.391 -0.0008 -0.2850 -0.0496
 1777POPC   PO421578  11.761  11.053  15.473 -0.1405 -0.0658 -0.0080
 1777POPC   GL121579  12.025  11.042  15.808 -0.0141  0.4505 -0.2470
 1777POPC   GL221580  12.063  10.749  15.823  0.2335 -0.1111 -0.1229
 1777POPC   C1A21581  12.186  10.906  16.266  0.0450 -0.5500 -0.0937
 1777POPC   D2A21582  12.367  10.858  16.649 -0.1215 -0.2752 -0.0681
 1777POPC   C3A21583  12.026  10.641  16.935  0.0230 -0.0725 -0.0848
 1777POPC   C4A21584  12.119  10.339  17.338 -0.0722  0.1275 -0.0704
 1777POPC   C1B21585  11.808  10.625  16.180  0.1495 -0.2831  0.1087
 1777POPC   C2B21586  11.675  10.544  16.595  0.0615 -0.2798  0.1553
 1777POPC   C3B21587  11.547  10.577  17.054 -0.0000 -0.2671  0.0505
 1777POPC   C4B21588  11.250  10.775  17.376  0.1140 -0.3095 -0.0655
 1778POPC   NC321589   7.403   8.324  14.839 -0.2667  0.1788 -0.0105
 1778POPC   PO421590   7.011   8.301  14.982  0.2674 -0.0935 -0.4652
 1778POPC   GL121591   7.079   8.398  15.378  0.2149 -0.4631  0.0876
 1778POPC   GL221592   6.888   8.551  15.402  0.5660 -0.2206  0.0372
 1778POPC   C1A21593   7.331   8.214  15.681  0.0845  0.1415 -0.1210
 1778POPC   D2A21594   7.474   8.083  16.121 -0.0510  0.0131  0.1962
 1778POPC   C3A21595   7.623   8.446  16.356  0.0640  0.0365  0.0860
 1778POPC   C4A21596   7.336   8.738  16.581  0.0703 -0.1759  0.3617
 1778POPC   C1B21597   6.808   8.723  15.817  0.0510 -0.0810 -0.0046
 1778POPC   C2B21598   6.553   8.957  16.071  0.0826  0.2648  0.0390
 1778POPC   C3B21599   6.272   8.971  16.449 -0.2356 -0.0510 -0.2285
 1778POPC   C4B21600   6.384   9.277  16.784  0.1125  0.5093  0.0661
 1779POPC   NC321601   4.352   3.594  15.315 -0.2532  0.3841  0.0189
 1779POPC   PO421602   4.094   3.909  15.186  0.1727 -0.3384  0.0638
 1779POPC   GL121603   3.829   3.690  15.317 -0.1417  0.1239  0.2463
 1779POPC   GL221604   3.703   3.798  15.537 -0.2417  0.0571  0.1932
 1779POPC   C1A21605   3.931   3.332  15.590 -0.1834  0.1708 -0.4861
 1779POPC   D2A21606   4.076   2.965  15.851 -0.2226  0.4378  0.1830
 1779POPC   C3A21607   4.121   3.053  16.270  0.2197 -0.1775 -0.1789
 1779POPC   C4A21608   4.101   2.756  16.634 -0.0497 -0.3323 -0.0709
 1779POPC   C1B21609   3.669   3.578  15.950 -0.1597  0.0936  0.2216
 1779POPC   C2B21610   3.605   3.142  16.151 -0.0402  0.0200  0.3877
 1779POPC   C3B21611   3.705   2.813  16.343 -0.2315 -0.0232  0.0197
 1779POPC   C4B21612   3.786   2.362  16.321 -0.0928 -0.3130 -0.0888
 1780POPC   NC321613  31.150   0.687  15.434 -0.3290  0.0499  0.1718
 1780POPC   PO421614  30.807   0.491  15.445 -0.1911 -0.0623 -0.0837
 1780POPC   GL121615  30.499   0.458  15.766 -0.2512 -0.0122 -0.1240
 1780POPC   GL221616  30.523   0.189  15.958 -0.0082 -0.1000  0.1012
 1780POPC   C1A21617  30.504   0.696  16.187 -0.1843 -0.1388 -0.3307
 1780POPC   D2A21618  30.466   0.899  16.617  0.2682  0.1763 -0.2090
 1780POPC   C3A21619  30.299   0.760  17.048 -0.3106 -0.2334 -0.1335
 1780POPC   C4A21620  30.028   0.776  17.436 -0.0694  0.2027 -0.1311
 1780POPC   C1B21621  30.502  -0.348  15.962  0.0625  0.0137  0.4174
 1780POPC   C2B21622  30.250  -0.662  16.246 -0.1464  0.0846  0.1993
 1780POPC   C3B21623  30.077  -0.888  16.600 -0.0936 -0.3415 -0.1491
 1780POPC   C4B21624  30.022  -1.220  16.878  0.1576  0.0583  0.0446
 1781POPC   NC321625   8.991  26.050  14.576  0.0234  0.0901  0.0855
 1781POPC   PO421626   8.746  25.868  14.838 -0.3049  0.0082  0.2581
 1781POPC   GL121627   8.599  25.549  15.029  0.1467  0.0160 -0.3428
 1781POPC   GL221628   8.526  25.733  15.269 -0.0213  0.0083 -0.0714
 1781POPC   C1A21629   8.371  25.230  15.296 -0.2038  0.1797  0.1145
 1781POPC   D2A21630   8.114  25.245  15.720 -0.2205  0.2243  0.4229
 1781POPC   C3A21631   8.247  25.309  16.152  0.0151 -0.1354  0.1306
 1781POPC   C4A21632   8.546  25.531  16.344  0.0098  0.0587  0.1729
 1781POPC   C1B21633   8.192  25.755  15.621 -0.0768  0.1001 -0.0766
 1781POPC   C2B21634   8.083  25.773  16.077  0.2442  0.2842  0.1719
 1781POPC   C3B21635   7.949  25.661  16.531 -0.2219  0.5152  0.1495
 1781POPC   C4B21636   7.626  25.503  16.805  0.2882  0.2011 -0.1791
 1782POPC   NC321637  30.873  13.400  15.635 -0.0430 -0.1111  0.1200
 1782POPC   PO421638  30.994  13.726  15.478  0.4341  0.1806  0.2043
 1782POPC   GL121639  30.890  13.827  15.870  0.5141 -0.1111  0.1563
 1782POPC   GL221640  30.923  14.099  15.940  0.3900 -0.1768 -0.0587
 1782POPC   C1A21641  31.032  13.800  16.292  0.1407 -0.0457  0.1385
 1782POPC   D2A21642  31.067  13.919  16.691 -0.3737  0.4594 -0.2851
 1782POPC   C3A21643  30.833  13.637  17.000 -0.0164 -0.1657  0.3138
 1782POPC   C4A21644  30.510  13.639  17.334 -0.2740  0.2811 -0.0635
 1782POPC   C1B21645  30.890  14.337  16.348 -0.2358  0.0528  0.1628
 1782POPC   C2B21646  30.918  14.345  16.820  0.0735 -0.0823  0.1026
 1782POPC   C3B21647  31.019  14.552  17.237  0.0056  0.0465 -0.1477
 1782POPC   C4B21648  30.831  14.525  17.675 -0.0873  0.0259 -0.1070
 1783POPC   NC321649  23.232   1.258  14.369 -0.0932  0.1066  0.1254
 1783POPC   PO421650  23.151   1.140  14.757 -0.0542  0.0362  0.0544
 1783POPC   GL121651  22.847   1.066  14.943  0.1428  0.3183  0.0975
 1783POPC   GL221652  22.603   1.237  14.907 -0.1886 -0.1409 -0.4941
 1783POPC   C1A21653  22.711   1.158  15.390 -0.3160  0.0188  0.1545
 1783POPC   D2A21654  22.508   1.243  15.786  0.1472 -0.3044  0.0048
 1783POPC   C3A21655  22.332   0.885  16.048  0.0595  0.3396 -0.2194
 1783POPC   C4A21656  22.479   0.789  16.463 -0.4981  0.3457  0.0383
 1783POPC   C1B21657  22.237   1.484  14.794  0.1630  0.1703 -0.1168
 1783POPC   C2B21658  21.811   1.597  14.783 -0.0475 -0.0609  0.1419
 1783POPC   C3B21659  21.322   1.447  14.902  0.3718 -0.2273 -0.2853
 1783POPC   C4B21660  21.007   1.135  14.669 -0.0066 -0.2559 -0.2321
 1784POPC   NC321661  23.317  26.942  15.095 -0.0645 -0.1464  0.1536
 1784POPC   PO421662  23.466  27.127  15.391  0.1399 -0.4208  0.0524
 1784POPC   GL121663  23.240  27.148  15.657 -0.1454 -0.1688  0.1083
 1784POPC   GL221664  23.388  27.316  15.838  0.0209 -0.2386 -0.1307
 1784POPC   C1A21665  22.938  26.930  15.992  0.1400  0.0654  0.0141
 1784POPC   D2A21666  22.979  26.493  15.938 -0.2766 -0.1575 -0.2987
 1784POPC   C3A21667  23.004  26.186  16.310  0.1104 -0.4301  0.0460
 1784POPC   C4A21668  22.651  26.154  16.562  0.0972  0.6559  0.0252
 1784POPC   C1B21669  23.496  27.567  16.225 -0.0070  0.2070 -0.0894
 1784POPC   C2B21670  23.390  27.599  16.697  0.0606  0.0302  0.3206
 1784POPC   C3B21671  23.312  27.544  17.156 -0.0452  0.0079  0.1920
 1784POPC   C4B21672  23.115  27.179  17.274  0.2772  0.0984  0.0647
 1785POPC   NC321673  12.091  22.796  14.802  0.2906 -0.0800  0.3972
 1785POPC   PO421674  12.382  22.518  14.939  0.1811  0.0127 -0.1227
 1785POPC   GL121675  12.205  22.807  15.216 -0.0356  0.0826 -0.2138
 1785POPC   GL221676  12.429  22.939  15.256 -0.0577 -0.2882 -0.2074
 1785POPC   C1A21677  12.112  22.951  15.658 -0.0927  0.0947  0.2171
 1785POPC   D2A21678  12.016  23.003  16.046  0.0322  0.1914  0.3288
 1785POPC   C3A21679  11.615  23.216  16.152 -0.1077  0.0956 -0.2206
 1785POPC   C4A21680  11.360  23.231  16.588 -0.2110 -0.1538  0.2272
 1785POPC   C1B21681  12.528  23.128  15.661 -0.1548  0.2647  0.0020
 1785POPC   C2B21682  12.476  23.373  16.064 -0.1948 -0.0896  0.0637
 1785POPC   C3B21683  12.280  23.343  16.501  0.0042 -0.2574 -0.0668
 1785POPC   C4B21684  11.912  23.481  16.702  0.0565 -0.1809 -0.1122
 1786POPC   NC321685  15.442  13.913  15.445  0.1092 -0.2585  0.1969
 1786POPC   PO421686  15.515  14.295  15.570  0.0787  0.1061 -0.4530
 1786POPC   GL121687  15.523  14.110  15.839 -0.0958 -0.1244  0.0187
 1786POPC   GL221688  15.752  13.944  15.822 -0.0142  0.2590 -0.1178
 1786POPC   C1A21689  15.682  14.155  16.290 -0.0260 -0.2041 -0.0052
 1786POPC   D2A21690  15.762  14.152  16.759 -0.1022 -0.2024 -0.1676
 1786POPC   C3A21691  15.487  13.954  17.160 -0.0975 -0.2283 -0.1364
 1786POPC   C4A21692  15.335  13.862  17.613 -0.0307 -0.1783  0.1187
 1786POPC   C1B21693  16.130  14.047  16.054 -0.1000 -0.1279 -0.2484
 1786POPC   C2B21694  16.407  14.161  16.416 -0.0596  0.1346  0.3497
 1786POPC   C3B21695  16.554  14.503  16.610  0.4286  0.0715 -0.2601
 1786POPC   C4B21696  16.300  14.910  16.724  0.0093 -0.2937 -0.2537
 1787POPC   NC321697   4.847  28.715  14.842  0.0233  0.3355 -0.1013
 1787POPC   PO421698   5.104  28.473  15.035 -0.2312  0.2890 -0.1286
 1787POPC   GL121699   5.128  28.361  15.436  0.6898 -0.3426  0.0281
 1787POPC   GL221700   5.020  28.120  15.543 -0.1022  0.0799 -0.0884
 1787POPC   C1A21701   5.343  28.439  15.824 -0.0920  0.3353  0.0444
 1787POPC   D2A21702   5.338  28.450  16.220  0.1619 -0.2541 -0.2232
 1787POPC   C3A21703   5.164  28.766  16.462  0.1555 -0.1772  0.0720
 1787POPC   C4A21704   4.828  28.778  16.766  0.0950  0.0953  0.1524
 1787POPC   C1B21705   5.260  27.847  15.953  0.1267  0.1488  0.0751
 1787POPC   C2B21706   5.245  27.976  16.425  0.0546  0.0565 -0.1517
 1787POPC   C3B21707   5.404  28.236  16.746  0.1869  0.0054  0.0507
 1787POPC   C4B21708   5.725  28.355  17.043  0.0127 -0.1171  0.3334
 1788POPC   NC321709   8.185   5.077  15.267  0.0037 -0.1397  0.0440
 1788POPC   PO421710   8.589   5.020  15.283 -0.0787  0.4121 -0.0439
 1788POPC   GL121711   8.510   5.085  15.686 -0.2090  0.1324  0.1424
 1788POPC   GL221712   8.336   4.794  15.762 -0.2546 -0.0035 -0.3110
 1788POPC   C1A21713   8.649   4.995  16.115 -0.1012  0.0569  0.1934
 1788POPC   D2A21714   8.975   4.880  16.366  0.1955 -0.1952 -0.0621
 1788POPC   C3A21715   9.199   5.012  16.734  0.2235  0.0443  0.4354
 1788POPC   C4A21716   9.574   4.939  16.997 -0.0437 -0.0609 -0.0036
 1788POPC   C1B21717   8.132   4.921  16.152  0.1600 -0.0802  0.2072
 1788POPC   C2B21718   8.278   4.873  16.558 -0.1016 -0.0281 -0.0131
 1788POPC   C3B21719   8.247   4.490  16.821 -0.0378 -0.1000 -0.0091
 1788POPC   C4B21720   7.959   4.210  17.058  0.1131 -0.0851  0.2019
 1789POPC   NC321721  15.592  28.830  15.458 -0.0309  0.0784  0.0401
 1789POPC   PO421722  15.825  28.500  15.514 -0.0995 -0.2613 -0.1072
 1789POPC   GL121723  15.785  28.720  15.838 -0.0849 -0.4838 -0.1499
 1789POPC   GL221724  15.821  28.988  15.940 -0.1066 -0.3384  0.0561
 1789POPC   C1A21725  15.584  28.567  16.281  0.1410 -0.2506  0.1606
 1789POPC   D2A21726  15.582  28.658  16.680  0.0548 -0.2751 -0.0554
 1789POPC   C3A21727  15.446  29.056  16.771 -0.0651 -0.3221 -0.2934
 1789POPC   C4A21728  15.261  29.063  17.179  0.2183 -0.1804  0.3319
 1789POPC   C1B21729  15.731  29.353  16.224 -0.0050 -0.1547  0.1592
 1789POPC   C2B21730  15.769  29.405  16.686  0.4927 -0.1248  0.0931
 1789POPC   C3B21731  15.770  29.267  17.109  0.1893 -0.0383  0.0937
 1789POPC   C4B21732  15.781  28.878  17.355  0.2766 -0.0513  0.0135
 1790POPC   NC321733   9.437   1.720  14.990  0.0847  0.0645 -0.3868
 1790POPC   PO421734   9.276   1.480  15.256  0.2234 -0.2492 -0.1133
 1790POPC   GL121735   9.420   1.578  15.613  0.0499  0.2269  0.0899
 1790POPC   GL221736   9.583   1.378  15.746  0.2656  0.0244  0.1498
 1790POPC   C1A21737   9.331   1.792  15.969  0.0569 -0.0468 -0.0025
 1790POPC   D2A21738   9.546   1.657  16.347  0.1422  0.0059 -0.2526
 1790POPC   C3A21739   9.619   1.951  16.657 -0.1335 -0.2048 -0.0339
 1790POPC   C4A21740   9.468   2.103  17.083  0.4013  0.0493  0.0002
 1790POPC   C1B21741   9.717   1.209  16.164  0.1626 -0.0511  0.1967
 1790POPC   C2B21742   9.571   1.143  16.585 -0.1652  0.1422  0.1845
 1790POPC   C3B21743   9.499   1.046  17.020 -0.0904 -0.1226 -0.2483
 1790POPC   C4B21744   9.545   1.090  17.452 -0.2834  0.0372  0.2657
 1791POPC   NC321745  15.125  24.736  15.021 -0.3208  0.2333  0.1751
 1791POPC   PO421746  14.927  25.101  14.944 -0.1698 -0.1212  0.2066
 1791POPC   GL121747  14.983  25.305  15.256  0.4421  0.2019 -0.1570
 1791POPC   GL221748  14.898  25.003  15.416  0.0407 -0.0116 -0.0197
 1791POPC   C1A21749  15.202  25.443  15.596 -0.1045  0.0592 -0.2201
 1791POPC   D2A21750  15.342  25.547  16.043  0.0506  0.0096 -0.0843
 1791POPC   C3A21751  15.219  25.222  16.346  0.0681  0.0659 -0.2281
 1791POPC   C4A21752  14.976  24.989  16.708 -0.3343  0.1306 -0.3826
 1791POPC   C1B21753  14.711  25.314  15.620  0.1338 -0.0757  0.0357
 1791POPC   C2B21754  14.879  25.421  15.998 -0.2540 -0.2941 -0.0612
 1791POPC   C3B21755  14.783  25.474  16.402 -0.2811  0.1337 -0.2922
 1791POPC   C4B21756  14.797  25.632  16.827  0.2340 -0.3728  0.2820
 1792POPC   NC321757  15.933  25.206  15.257  0.2643 -0.0463 -0.1704
 1792POPC   PO421758  16.141  24.842  15.181  0.0083 -0.0697 -0.1585
 1792POPC   GL121759  16.182  24.620  15.493 -0.2815 -0.3511  0.0844
 1792POPC   GL221760  15.895  24.602  15.614 -0.2917  0.0938  0.1358
 1792POPC   C1A21761  16.323  24.388  15.903 -0.0645 -0.2002 -0.1111
 1792POPC   D2A21762  16.413  24.440  16.339  0.0552 -0.3158  0.0665
 1792POPC   C3A21763  16.322  24.439  16.822 -0.2014 -0.1408  0.1025
 1792POPC   C4A21764  16.066  24.659  17.112 -0.1551 -0.1560  0.1012
 1792POPC   C1B21765  15.822  24.760  15.996  0.2305 -0.1072 -0.1733
 1792POPC   C2B21766  15.448  24.741  16.252 -0.2221 -0.0062  0.1689
 1792POPC   C3B21767  15.107  24.497  16.135  0.2497 -0.0418  0.0651
 1792POPC   C4B21768  14.865  24.585  15.740  0.0811 -0.2680  0.0293
 1793POPC   NC321769  21.455  19.423  15.471  0.0500  0.0932 -0.1325
 1793POPC   PO421770  21.783  19.225  15.368  0.0606  0.2009 -0.1834
 1793POPC   GL121771  21.985  19.361  15.731  0.0701 -0.0646 -0.2664
 1793POPC   GL221772  21.759  19.235  15.893  0.0721  0.1005  0.1049
 1793POPC   C1A21773  22.277  19.371  16.099 -0.0897 -0.0341 -0.0785
 1793POPC   D2A21774  22.519  19.593  16.441 -0.1152  0.1094 -0.0130
 1793POPC   C3A21775  22.411  19.552  16.913  0.0775  0.0521  0.0750
 1793POPC   C4A21776  22.490  19.571  17.350  0.1272 -0.3812  0.1801
 1793POPC   C1B21777  21.912  19.079  16.258 -0.3644 -0.0047  0.1193
 1793POPC   C2B21778  22.167  19.188  16.665 -0.1025 -0.2325 -0.0358
 1793POPC   C3B21779  22.243  19.096  17.097 -0.0532 -0.1240  0.2447
 1793POPC   C4B21780  22.424  18.855  17.453  0.0423 -0.1854 -0.1827
 1794POPC   NC321781   1.489  19.947  15.239  0.1951 -0.0050  0.0795
 1794POPC   PO421782   1.136  19.910  15.176 -0.3554  0.0862  0.0567
 1794POPC   GL121783   1.044  19.793  15.564 -0.1495  0.4717 -0.2125
 1794POPC   GL221784   0.978  19.988  15.760  0.3211 -0.1166  0.0488
 1794POPC   C1A21785   0.980  19.455  15.896  0.1553  0.2160 -0.1734
 1794POPC   D2A21786   1.102  19.148  16.212  0.1263  0.0506 -0.1963
 1794POPC   C3A21787   0.757  18.947  16.446 -0.0206 -0.0420 -0.0061
 1794POPC   C4A21788   0.433  19.127  16.689 -0.1729 -0.4808 -0.1464
 1794POPC   C1B21789   1.124  19.922  16.188 -0.3261 -0.4237 -0.0414
 1794POPC   C2B21790   1.293  19.997  16.617  0.3022 -0.0759  0.0214
 1794POPC   C3B21791   1.583  19.897  16.971  0.1127 -0.2666  0.0936
 1794POPC   C4B21792   1.737  19.680  17.367  0.0986  0.2727 -0.2251
 1795POPC   NC321793   6.460   2.509  15.487  0.0629 -0.0320 -0.0405
 1795POPC   PO421794   6.807   2.656  15.420 -0.3457 -0.2352  0.1889
 1795POPC   GL121795   6.706   2.738  15.827  0.1513 -0.0590 -0.2707
 1795POPC   GL221796   6.517   2.958  15.813 -0.2954 -0.0370 -0.0610
 1795POPC   C1A21797   6.925   2.511  16.145  0.1003 -0.3147 -0.2564
 1795POPC   D2A21798   6.892   2.108  16.357  0.2569 -0.0685 -0.4021
 1795POPC   C3A21799   7.039   2.073  16.796 -0.3738  0.1040 -0.1298
 1795POPC   C4A21800   6.943   2.206  17.234 -0.2906  0.0341  0.1154
 1795POPC   C1B21801   6.484   2.776  16.289 -0.2032  0.1014 -0.0806
 1795POPC   C2B21802   6.694   2.546  16.643  0.1765  0.0670  0.1193
 1795POPC   C3B21803   6.459   2.273  16.925  0.0445 -0.2501  0.3692
 1795POPC   C4B21804   6.030   2.196  17.006  0.0964  0.1176 -0.1848
 1796POPC   NC321805  14.345  20.424  15.463  0.2041 -0.2204 -0.1586
 1796POPC   PO421806  14.640  20.285  15.655 -0.2134  0.2298 -0.5549
 1796POPC   GL121807  14.461  20.001  15.886 -0.4806  0.2338 -0.3678
 1796POPC   GL221808  14.171  20.034  15.826 -0.2638  0.3589 -0.0567
 1796POPC   C1A21809  14.269  20.103  16.298  0.2318  0.1262 -0.1458
 1796POPC   D2A21810  14.160  20.303  16.683  0.1147 -0.1166 -0.0515
 1796POPC   C3A21811  14.510  20.184  16.969  0.2273 -0.0279 -0.2015
 1796POPC   C4A21812  14.830  19.994  17.163 -0.3870 -0.1279  0.2833
 1796POPC   C1B21813  13.938  19.780  16.149  0.0334 -0.1725 -0.0778
 1796POPC   C2B21814  13.869  19.672  16.575  0.2440 -0.0275  0.0660
 1796POPC   C3B21815  13.975  19.852  16.987  0.2254 -0.4915  0.2770
 1796POPC   C4B21816  13.961  19.906  17.511 -0.2115  0.2391 -0.0967
 1797POPC   NC321817  23.518   4.115  14.701  0.1830 -0.1897 -0.1212
 1797POPC   PO421818  23.829   4.313  14.820 -0.0482 -0.0731 -0.1895
 1797POPC   GL121819  23.757   4.138  15.097  0.0041  0.0354 -0.5230
 1797POPC   GL221820  23.637   3.825  15.080 -0.1423 -0.0004  0.3316
 1797POPC   C1A21821  23.720   4.350  15.517 -0.0877 -0.0837 -0.0482
 1797POPC   D2A21822  23.567   4.519  15.974  0.1406 -0.3431 -0.1012
 1797POPC   C3A21823  23.499   4.459  16.418  0.0311 -0.1593  0.3386
 1797POPC   C4A21824  23.676   4.436  16.824  0.2294 -0.2712 -0.0181
 1797POPC   C1B21825  23.573   3.791  15.538 -0.2601  0.0569 -0.1233
 1797POPC   C2B21826  23.629   3.929  15.976 -0.2163 -0.0715 -0.0800
 1797POPC   C3B21827  23.726   3.942  16.476 -0.3691  0.0858 -0.1304
 1797POPC   C4B21828  23.627   3.967  16.912  0.0258 -0.0609  0.0147
 1798POPC   NC321829  20.081  17.909  15.258  0.0975 -0.0512  0.3476
 1798POPC   PO421830  19.769  17.747  15.145  0.3533 -0.1005 -0.0372
 1798POPC   GL121831  19.722  17.674  15.423 -0.4642 -0.0603 -0.2919
 1798POPC   GL221832  19.870  17.474  15.618  0.1100  0.0036  0.0644
 1798POPC   C1A21833  19.329  17.602  15.681  0.1094 -0.0083  0.1124
 1798POPC   D2A21834  19.120  17.540  16.093 -0.1799  0.0467  0.0260
 1798POPC   C3A21835  19.209  17.533  16.529  0.3378  0.1427 -0.0199
 1798POPC   C4A21836  19.113  17.161  16.782 -0.2322  0.1338 -0.1083
 1798POPC   C1B21837  19.989  17.151  15.970 -0.2133  0.1737 -0.2468
 1798POPC   C2B21838  20.335  17.088  16.255  0.2590  0.0954 -0.1400
 1798POPC   C3B21839  20.729  16.834  16.465 -0.0998  0.0421  0.0336
 1798POPC   C4B21840  21.012  16.715  16.828 -0.1783 -0.1134  0.1742
 1799POPC   NC321841  29.881   0.089  15.151  0.0055  0.0278 -0.2149
 1799POPC   PO421842  29.484  -0.029  15.074  0.0797 -0.1927 -0.0168
 1799POPC   GL121843  29.522  -0.029  15.390 -0.1937 -0.4399  0.0534
 1799POPC   GL221844  29.542  -0.355  15.453  0.1567  0.2355 -0.6060
 1799POPC   C1A21845  29.275   0.135  15.731 -0.2164 -0.0626  0.4572
 1799POPC   D2A21846  28.864   0.134  15.953 -0.1678  0.2658  0.0664
 1799POPC   C3A21847  28.789   0.037  16.422 -0.0690 -0.0001  0.0720
 1799POPC   C4A21848  28.482   0.206  16.817  0.0556 -0.2191 -0.0745
 1799POPC   C1B21849  29.614  -0.237  15.903  0.2014  0.0081 -0.0370
 1799POPC   C2B21850  29.540  -0.267  16.331  0.0951  0.4370  0.4189
 1799POPC   C3B21851  29.247  -0.486  16.595 -0.3488 -0.3038 -0.3658
 1799POPC   C4B21852  29.188  -0.586  17.031 -0.0619 -0.1817  0.0510
 1800POPC   NC321853   0.070   8.627  15.343  0.1293 -0.2432  0.1011
 1800POPC   PO421854  -0.224   8.729  15.079  0.2116 -0.2001  0.0805
 1800POPC   GL121855  -0.378   8.794  15.362 -0.0961  0.0705 -0.0383
 1800POPC   GL221856  -0.493   8.555  15.518 -0.0332  0.0830 -0.0801
 1800POPC   C1A21857  -0.466   9.090  15.743  0.3321  0.0523 -0.2603
 1800POPC   D2A21858  -0.230   9.385  15.926  0.0892  0.1812 -0.2195
 1800POPC   C3A21859  -0.214   9.206  16.377 -0.0465 -0.2936 -0.0169
 1800POPC   C4A21860  -0.217   9.150  16.786  0.1137 -0.2355  0.0304
 1800POPC   C1B21861  -0.724   8.558  15.927 -0.3215  0.1908 -0.1973
 1800POPC   C2B21862  -0.697   8.849  16.293  0.1542 -0.0450 -0.1459
 1800POPC   C3B21863  -0.720   8.972  16.727 -0.3155  0.2383  0.0424
 1800POPC   C4B21864  -0.820   9.171  17.152  0.2298 -0.1192 -0.0549
 1801POPC   NC321865  18.556  26.162  15.144  0.1400 -0.1930  0.0455
 1801POPC   PO421866  18.351  26.491  15.255  0.2227  0.0099  0.1879
 1801POPC   GL121867  18.430  26.293  15.595  0.4616 -0.1425  0.3032
 1801POPC   GL221868  18.214  26.358  15.758 -0.0556  0.1860 -0.0155
 1801POPC   C1A21869  18.687  26.097  15.971 -0.1416  0.1337 -0.0192
 1801POPC   D2A21870  18.740  26.096  16.381 -0.1455  0.1131 -0.1807
 1801POPC   C3A21871  18.932  26.184  16.810 -0.1499 -0.2679  0.0596
 1801POPC   C4A21872  19.389  26.136  16.973 -0.1309 -0.0033  0.1740
 1801POPC   C1B21873  18.164  26.296  16.205 -0.0384  0.2637  0.1766
 1801POPC   C2B21874  18.182  26.271  16.650 -0.0577 -0.1770  0.0400
 1801POPC   C3B21875  18.231  25.969  16.988  0.2831  0.1056  0.1467
 1801POPC   C4B21876  18.517  25.597  17.152  0.3599 -0.0118 -0.0175
 1802POPC   NC321877  22.587   0.012  15.189 -0.0614 -0.0124 -0.0810
 1802POPC   PO421878  22.973   0.009  15.146 -0.3866 -0.0737 -0.4900
 1802POPC   GL121879  22.945   0.370  15.268  0.1480  0.1053  0.0149
 1802POPC   GL221880  22.715   0.499  15.263  0.2296 -0.0212 -0.1625
 1802POPC   C1A21881  23.119   0.705  15.572 -0.0717  0.0411  0.3525
 1802POPC   D2A21882  23.011   1.082  15.869  0.1671 -0.2951  0.1565
 1802POPC   C3A21883  22.923   1.315  16.261 -0.2709 -0.3109  0.2331
 1802POPC   C4A21884  23.156   1.454  16.623 -0.0299  0.0085 -0.1812
 1802POPC   C1B21885  22.628   0.700  15.626 -0.1230  0.4052  0.0517
 1802POPC   C2B21886  22.747   0.565  16.076 -0.1722 -0.1736 -0.1722
 1802POPC   C3B21887  22.989   0.784  16.389  0.0240 -0.0989  0.0803
 1802POPC   C4B21888  22.827   0.965  16.742 -0.0687  0.4208  0.0463
 1803POPC   NC321889  27.283  26.897  15.727 -0.0493 -0.2751 -0.1767
 1803POPC   PO421890  27.485  27.131  15.481 -0.0698 -0.0480  0.2581
 1803POPC   GL121891  27.456  27.328  15.833 -0.0277  0.1471  0.2544
 1803POPC   GL221892  27.700  27.468  15.909 -0.0899 -0.2084  0.2229
 1803POPC   C1A21893  27.400  27.037  16.225 -0.2158 -0.0699 -0.1512
 1803POPC   D2A21894  27.469  27.048  16.670  0.0562 -0.1654 -0.2337
 1803POPC   C3A21895  27.259  27.169  17.105 -0.1053 -0.0913 -0.0771
 1803POPC   C4A21896  26.855  27.431  17.140 -0.1675  0.1357 -0.1176
 1803POPC   C1B21897  27.685  27.434  16.381  0.1836  0.1262  0.0487
 1803POPC   C2B21898  27.743  27.458  16.865  0.0936 -0.0829 -0.1269
 1803POPC   C3B21899  27.664  27.609  17.355 -0.2461  0.0139 -0.1185
 1803POPC   C4B21900  27.892  27.854  17.655 -0.1641 -0.3265  0.1127
 1804POPC   NC321901  22.720   2.084  14.562 -0.1020  0.0334  0.0434
 1804POPC   PO421902  22.513   2.363  14.349 -0.1851 -0.3592 -0.3447
 1804POPC   GL121903  22.195   2.241  14.447  0.2037  0.0830 -0.3482
 1804POPC   GL221904  22.214   1.941  14.472  0.0699  0.1834 -0.1741
 1804POPC   C1A21905  21.737   2.153  14.363 -0.3935  0.1156  0.1835
 1804POPC   D2A21906  21.460   1.820  14.432 -0.2138  0.1256 -0.2054
 1804POPC   C3A21907  21.457   1.340  14.413 -0.0270 -0.1126  0.1720
 1804POPC   C4A21908  21.468   0.907  14.499  0.1446 -0.2472  0.0639
 1804POPC   C1B21909  21.907   2.119  14.836 -0.1383 -0.0601 -0.0655
 1804POPC   C2B21910  21.560   1.982  15.141 -0.1256  0.1487  0.1843
 1804POPC   C3B21911  21.057   1.972  15.195 -0.3571 -0.2649  0.1311
 1804POPC   C4B21912  20.696   2.142  15.391 -0.0837  0.3019  0.0043
 1805POPC   NC321913  29.137  27.363  14.816 -0.1502  0.0079 -0.0361
 1805POPC   PO421914  28.972  27.442  15.176 -0.1750 -0.1794 -0.0103
 1805POPC   GL121915  29.123  27.361  15.526  0.0489 -0.0197 -0.0084
 1805POPC   GL221916  29.406  27.567  15.653  0.2411  0.1092 -0.1242
 1805POPC   C1A21917  29.086  27.325  15.977  0.0747 -0.0093  0.0258
 1805POPC   D2A21918  29.142  27.644  16.350 -0.3780 -0.0413  0.2541
 1805POPC   C3A21919  28.991  28.061  16.385  0.0624 -0.0391  0.1299
 1805POPC   C4A21920  28.735  28.513  16.361 -0.1900 -0.0323  0.0054
 1805POPC   C1B21921  29.858  27.588  15.835  0.2293 -0.1588  0.2969
 1805POPC   C2B21922  30.028  27.512  16.242  0.1541 -0.1547  0.3285
 1805POPC   C3B21923  30.017  27.530  16.664  0.0072  0.0498 -0.1069
 1805POPC   C4B21924  30.214  27.765  17.010 -0.3347  0.0785 -0.1496
 1806POPC   NC321925   0.626   5.716  15.696 -0.3120  0.5065  0.3397
 1806POPC   PO421926   0.917   5.980  15.662 -0.0233  0.2724  0.0164
 1806POPC   GL121927   0.961   5.984  15.939 -0.0435 -0.0906 -0.3130
 1806POPC   GL221928   1.285   5.953  16.078  0.1321  0.0051 -0.0735
 1806POPC   C1A21929   0.811   5.789  16.346 -0.4128 -0.3890 -0.3482
 1806POPC   D2A21930   0.860   5.634  16.734  0.0452  0.0383 -0.1480
 1806POPC   C3A21931   0.682   5.365  16.939  0.4106 -0.1463  0.0916
 1806POPC   C4A21932   0.413   5.136  17.269  0.0204  0.0595 -0.4358
 1806POPC   C1B21933   1.126   6.285  16.277  0.0337  0.0445 -0.0881
 1806POPC   C2B21934   0.814   6.422  16.541 -0.2307  0.0835 -0.0552
 1806POPC   C3B21935   0.891   6.752  16.840  0.0945 -0.0488  0.0790
 1806POPC   C4B21936   0.847   7.054  17.153  0.0186 -0.1508  0.1186
 1807POPC   NC321937  25.731   8.068  15.111  0.2315 -0.3391  0.1481
 1807POPC   PO421938  25.716   7.671  15.157  0.1359 -0.0363 -0.3061
 1807POPC   GL121939  25.755   7.802  15.528  0.1032 -0.1846 -0.0367
 1807POPC   GL221940  25.585   7.887  15.660  0.0069  0.1993 -0.0405
 1807POPC   C1A21941  25.727   7.557  15.970 -0.1499  0.2513  0.1747
 1807POPC   D2A21942  25.402   7.236  16.013 -0.0702 -0.0124 -0.5215
 1807POPC   C3A21943  25.305   7.111  16.469  0.1187 -0.1878  0.0652
 1807POPC   C4A21944  25.099   7.108  16.859  0.3089  0.1796 -0.1281
 1807POPC   C1B21945  25.241   7.756  15.963 -0.0244 -0.1692  0.4381
 1807POPC   C2B21946  25.274   7.618  16.341 -0.0255 -0.2777 -0.2245
 1807POPC   C3B21947  25.194   7.627  16.784  0.0863 -0.1671  0.0224
 1807POPC   C4B21948  25.381   7.541  17.203  0.0778 -0.2024 -0.0018
 1808POPC   NC321949  10.226  10.384  15.194  0.1599 -0.3337  0.1343
 1808POPC   PO421950  10.003  10.011  15.227 -0.1541 -0.0757  0.1095
 1808POPC   GL121951   9.924  10.288  15.472  0.2374  0.0935 -0.0138
 1808POPC   GL221952   9.573  10.266  15.424  0.0551  0.1071 -0.0696
 1808POPC   C1A21953   9.990  10.231  15.927  0.3272  0.2120  0.2092
 1808POPC   D2A21954  10.070   9.909  16.212  0.1719  0.2714 -0.0803
 1808POPC   C3A21955   9.899  10.021  16.602 -0.0572  0.0552  0.1406
 1808POPC   C4A21956   9.881  10.102  16.999 -0.2839  0.0143  0.0523
 1808POPC   C1B21957   9.407  10.572  15.695 -0.0024 -0.0432  0.2054
 1808POPC   C2B21958   9.295  10.928  16.016  0.0355 -0.3071 -0.0817
 1808POPC   C3B21959   9.091  10.953  16.398  0.1440 -0.0297 -0.0902
 1808POPC   C4B21960   9.207  11.243  16.716  0.0468  0.2474  0.1817
 1809POPC   NC321961  30.316   4.612  15.542 -0.0385  0.1297 -0.0946
 1809POPC   PO421962  30.407   4.853  15.241 -0.0990  0.2101  0.2794
 1809POPC   GL121963  30.427   5.066  15.593  0.0673 -0.0048 -0.0852
 1809POPC   GL221964  30.633   5.335  15.652 -0.4336  0.1612  0.1266
 1809POPC   C1A21965  30.120   5.406  15.661  0.1315 -0.0725 -0.0831
 1809POPC   D2A21966  29.853   5.687  15.946 -0.1806 -0.0758 -0.1220
 1809POPC   C3A21967  29.576   5.687  16.373  0.2387 -0.1114 -0.5637
 1809POPC   C4A21968  29.222   5.942  16.549 -0.0178  0.2445 -0.0750
 1809POPC   C1B21969  30.382   5.447  16.037 -0.0666 -0.2284  0.4799
 1809POPC   C2B21970  30.083   5.661  16.405 -0.0745  0.2548 -0.1840
 1809POPC   C3B21971  30.074   5.998  16.745 -0.0599  0.1843  0.1901
 1809POPC   C4B21972  29.908   6.220  17.101 -0.2954  0.0795  0.1833
 1810POPC   NC321973  11.697  20.990  15.104  0.1678 -0.1335 -0.0430
 1810POPC   PO421974  11.420  21.164  14.929  0.0854 -0.0429 -0.1010
 1810POPC   GL121975  11.489  21.404  15.355 -0.1737 -0.0482  0.2196
 1810POPC   GL221976  11.253  21.449  15.518 -0.2005 -0.2530 -0.0219
 1810POPC   C1A21977  11.895  21.606  15.496  0.1342 -0.1529  0.2851
 1810POPC   D2A21978  12.314  21.777  15.625  0.2673  0.1013 -0.0407
 1810POPC   C3A21979  12.472  21.827  16.099  0.2656 -0.0807 -0.0558
 1810POPC   C4A21980  12.812  22.078  16.229 -0.0648 -0.1428  0.0007
 1810POPC   C1B21981  11.579  21.486  15.850  0.2110 -0.2768 -0.0112
 1810POPC   C2B21982  11.651  21.576  16.315  0.2170 -0.0195  0.1421
 1810POPC   C3B21983  11.824  21.764  16.698 -0.0593  0.1379  0.3686
 1810POPC   C4B21984  12.167  21.665  17.028  0.1592 -0.0401 -0.2973
 1811POPC   NC321985   4.417  15.149  15.397  0.0384 -0.0959 -0.0714
 1811POPC   PO421986   4.149  15.361  15.207  0.1977 -0.3258  0.0098
 1811POPC   GL121987   4.233  15.588  15.499  0.0152  0.1970  0.4184
 1811POPC   GL221988   4.442  15.700  15.557 -0.1255  0.1720 -0.3397
 1811POPC   C1A21989   4.090  15.826  15.903  0.0156 -0.0528  0.2142
 1811POPC   D2A21990   4.096  16.087  16.307  0.0572  0.0123 -0.3615
 1811POPC   C3A21991   3.841  16.327  16.667 -0.2073 -0.1563  0.2193
 1811POPC   C4A21992   3.494  16.415  16.913  0.0415 -0.2431 -0.1487
 1811POPC   C1B21993   4.448  15.457  15.904 -0.0752 -0.1788 -0.3239
 1811POPC   C2B21994   4.374  15.513  16.329 -0.1871  0.1624 -0.2901
 1811POPC   C3B21995   4.341  15.505  16.803 -0.1503 -0.1437 -0.3306
 1811POPC   C4B21996   4.013  15.565  17.127  0.1664 -0.0808 -0.1301
 1812POPC   NC321997  24.407  29.199  15.325 -0.1082 -0.1887  0.1055
 1812POPC   PO421998  24.733  29.419  15.304 -0.0543  0.0609  0.3538
 1812POPC   GL121999  24.731  29.524  15.631  0.1162 -0.0748  0.3431
 1812POPC   GL222000  24.555  29.399  15.776 -0.0792  0.0240 -0.0618
 1812POPC   C1A22001  25.158  29.698  15.800 -0.3642 -0.1387 -0.1595
 1812POPC   D2A22002  25.444  29.745  16.142 -0.6037  0.2484  0.1551
 1812POPC   C3A22003  25.400  29.842  16.597 -0.1890 -0.1075  0.1796
 1812POPC   C4A22004  25.334  30.123  16.921 -0.2249 -0.0056  0.2528
 1812POPC   C1B22005  24.485  29.673  16.126  0.1607  0.1857 -0.0509
 1812POPC   C2B22006  24.530  29.783  16.624 -0.0609 -0.2020  0.0749
 1812POPC   C3B22007  24.628  29.711  17.047 -0.0575 -0.1555 -0.0496
 1812POPC   C4B22008  24.719  29.519  17.437 -0.0789  0.1223 -0.1166
 1813POPC   NC322009  27.986  23.997  15.203  0.2518 -0.0707 -0.2397
 1813POPC   PO422010  27.801  23.663  15.339  0.1606 -0.2251 -0.1728
 1813POPC   GL122011  27.866  23.722  15.758  0.2558 -0.1181  0.0818
 1813POPC   GL222012  28.102  23.943  15.670  0.1023 -0.1393  0.3255
 1813POPC   C1A22013  27.770  23.756  16.230 -0.1062  0.0385 -0.0886
 1813POPC   D2A22014  27.801  23.603  16.692  0.1479  0.0055 -0.2091
 1813POPC   C3A22015  27.835  23.713  17.139  0.0167  0.1818 -0.1375
 1813POPC   C4A22016  27.924  23.835  17.587  0.0573  0.1296  0.1819
 1813POPC   C1B22017  28.218  24.055  16.080  0.0791  0.4634 -0.1819
 1813POPC   C2B22018  28.491  24.161  16.474 -0.1434 -0.0420  0.2776
 1813POPC   C3B22019  28.847  24.112  16.752  0.2478 -0.0531 -0.0213
 1813POPC   C4B22020  28.936  24.025  17.201 -0.3723 -0.1435 -0.0521
 1814POPC   NC322021  18.965  26.200  14.520 -0.0113  0.0144 -0.2199
 1814POPC   PO422022  18.782  25.905  14.758  0.1517 -0.2393 -0.1156
 1814POPC   GL122023  19.081  25.709  15.058 -0.2293  0.6465  0.0665
 1814POPC   GL222024  19.280  25.508  14.969  0.0197  0.2145  0.1216
 1814POPC   C1A22025  19.379  25.818  15.398 -0.1789  0.1514 -0.2280
 1814POPC   D2A22026  19.676  26.120  15.426 -0.2730 -0.1227  0.0319
 1814POPC   C3A22027  19.656  26.464  15.741 -0.1575  0.1300  0.2788
 1814POPC   C4A22028  19.669  26.481  16.197  0.0645  0.0577 -0.0850
 1814POPC   C1B22029  19.528  25.378  15.339 -0.3146 -0.0673  0.1042
 1814POPC   C2B22030  19.483  25.540  15.804  0.0368  0.1275 -0.1197
 1814POPC   C3B22031  19.619  25.626  16.229 -0.2106  0.2464  0.0395
 1814POPC   C4B22032  19.581  25.424  16.672  0.1398  0.0093 -0.1769
 1815POPC   NC322033   3.947  10.675  15.196 -0.0780 -0.1151 -0.0002
 1815POPC   PO422034   3.613  10.770  15.264 -0.0098 -0.1979 -0.0418
 1815POPC   GL122035   3.683  10.647  15.578 -0.1767 -0.1884  0.1873
 1815POPC   GL222036   3.472  10.845  15.752 -0.0384 -0.1191 -0.0982
 1815POPC   C1A22037   3.689  10.359  15.918  0.2225 -0.0702  0.1904
 1815POPC   D2A22038   3.854  10.200  16.343 -0.0682  0.2095  0.3833
 1815POPC   C3A22039   4.314  10.214  16.534 -0.2412 -0.3045 -0.0508
 1815POPC   C4A22040   4.686   9.974  16.673  0.1926  0.0449 -0.0025
 1815POPC   C1B22041   3.797  10.827  16.032  0.0181 -0.1761 -0.1990
 1815POPC   C2B22042   3.974  10.891  16.443  0.0546  0.2082  0.1855
 1815POPC   C3B22043   3.954  10.573  16.732 -0.2658  0.0682 -0.0164
 1815POPC   C4B22044   3.892  10.092  16.849 -0.0136  0.0479  0.1070
 1816POPC   NC322045  19.492  16.126  14.986  0.6048  0.0551  0.0294
 1816POPC   PO422046  19.598  16.437  15.190 -0.3657 -0.1314  0.1238
 1816POPC   GL122047  19.728  16.479  15.515 -0.0897  0.1012  0.1310
 1816POPC   GL222048  19.647  16.646  15.714  0.0330  0.0209 -0.0409
 1816POPC   C1A22049  19.628  16.218  15.927 -0.1651 -0.0285 -0.2351
 1816POPC   D2A22050  19.791  15.937  16.230  0.2160  0.2668  0.1194
 1816POPC   C3A22051  19.871  15.488  16.422 -0.0610  0.0526  0.0974
 1816POPC   C4A22052  19.936  15.189  16.777 -0.1368 -0.1268  0.0028
 1816POPC   C1B22053  19.868  16.604  16.139  0.0883  0.0380 -0.4512
 1816POPC   C2B22054  20.234  16.574  16.421 -0.0626  0.1654 -0.1255
 1816POPC   C3B22055  20.384  16.608  16.848  0.0549 -0.1073  0.2485
 1816POPC   C4B22056  20.615  16.406  17.194 -0.3989  0.0429 -0.2796
 1817POPC   NC322057   7.809  12.411  15.004  0.2211 -0.0520 -0.0537
 1817POPC   PO422058   8.092  12.129  15.037  0.0276 -0.3826  0.1833
 1817POPC   GL122059   8.067  12.032  15.395  0.0950  0.0670  0.3369
 1817POPC   GL222060   8.109  12.312  15.504 -0.2014 -0.0029  0.4066
 1817POPC   C1A22061   7.834  12.040  15.811  0.0722 -0.0065 -0.0525
 1817POPC   D2A22062   8.054  12.091  16.250 -0.4584  0.1045 -0.2905
 1817POPC   C3A22063   8.016  12.024  16.735  0.1322 -0.0012 -0.1148
 1817POPC   C4A22064   7.619  12.175  17.023 -0.1320 -0.2831 -0.0754
 1817POPC   C1B22065   8.331  12.284  15.851 -0.0063  0.0675 -0.2238
 1817POPC   C2B22066   8.594  12.126  16.213  0.0056  0.2907  0.3119
 1817POPC   C3B22067   8.548  11.908  16.636  0.0769 -0.1548 -0.1225
 1817POPC   C4B22068   8.379  11.647  16.984  0.0403 -0.0370 -0.0567
 1818POPC   NC322069  13.260  12.545  15.075  0.0424  0.2596  0.0488
 1818POPC   PO422070  12.998  12.500  15.310  0.0320  0.1572  0.1949
 1818POPC   GL122071  13.204  12.652  15.628  0.0726  0.0693 -0.0879
 1818POPC   GL222072  13.506  12.618  15.496 -0.0776  0.1036 -0.0849
 1818POPC   C1A22073  13.081  12.432  16.027  0.1447  0.4732 -0.2986
 1818POPC   D2A22074  13.137  12.399  16.462 -0.0608  0.0659 -0.1294
 1818POPC   C3A22075  13.236  12.836  16.565 -0.1412 -0.2999  0.1662
 1818POPC   C4A22076  13.225  12.984  17.015 -0.1537 -0.0598 -0.3112
 1818POPC   C1B22077  13.596  12.360  15.831 -0.2056 -0.1005  0.1250
 1818POPC   C2B22078  13.408  12.055  16.101 -0.2743  0.2094 -0.1590
 1818POPC   C3B22079  13.418  11.909  16.556 -0.3866  0.2201 -0.2092
 1818POPC   C4B22080  13.390  11.609  16.887 -0.1983 -0.0839  0.0339
 1819POPC   NC322081  20.146   7.233  15.514  0.0363 -0.1968 -0.1771
 1819POPC   PO422082  20.091   7.479  15.186 -0.2872  0.0052  0.1912
 1819POPC   GL122083  19.898   7.618  15.517 -0.1005  0.0394  0.3593
 1819POPC   GL222084  19.755   7.835  15.421 -0.1511 -0.1561 -0.1974
 1819POPC   C1A22085  20.119   7.454  15.941 -0.0193  0.2210 -0.1683
 1819POPC   D2A22086  20.363   7.143  16.225 -0.0515  0.1139 -0.3494
 1819POPC   C3A22087  20.404   7.157  16.656 -0.1606 -0.0296  0.0141
 1819POPC   C4A22088  20.646   7.474  16.950  0.1355  0.0146  0.1827
 1819POPC   C1B22089  19.761   7.810  15.919  0.1521 -0.0714 -0.4114
 1819POPC   C2B22090  19.720   7.580  16.305 -0.3076 -0.0555 -0.1462
 1819POPC   C3B22091  19.841   7.265  16.640 -0.0009  0.0556 -0.0991
 1819POPC   C4B22092  19.760   7.000  17.083  0.2306 -0.4112 -0.0219
 1820POPC   NC322093  16.246   9.362  14.591  0.2086  0.0918 -0.1668
 1820POPC   PO422094  16.227   9.627  14.891  0.2681  0.1059  0.0827
 1820POPC   GL122095  16.171   9.833  15.275 -0.3756  0.0561  0.1357
 1820POPC   GL222096  16.311  10.062  15.411 -0.0867 -0.1228 -0.4182
 1820POPC   C1A22097  15.754   9.759  15.493  0.0692 -0.0068 -0.1793
 1820POPC   D2A22098  15.482  10.069  15.651 -0.1184 -0.0695  0.0573
 1820POPC   C3A22099  15.403   9.944  16.086  0.0811 -0.2485  0.1866
 1820POPC   C4A22100  15.550   9.725  16.411 -0.0419 -0.2133  0.0567
 1820POPC   C1B22101  16.446  10.405  15.736 -0.1761  0.0174  0.0228
 1820POPC   C2B22102  16.180  10.681  16.019  0.0036 -0.1019  0.0959
 1820POPC   C3B22103  16.349  10.833  16.454 -0.0003  0.1768 -0.0744
 1820POPC   C4B22104  16.056  10.964  16.793 -0.2548  0.0604  0.2206
 1821POPC   NC322105  21.121  31.177  14.623 -0.0331 -0.0332  0.1079
 1821POPC   PO422106  21.336  31.404  14.828  0.0764 -0.2351 -0.2403
 1821POPC   GL122107  21.518  31.717  15.092 -0.0495 -0.6360 -0.1775
 1821POPC   GL222108  21.477  31.949  14.895 -0.1092  0.0104  0.1653
 1821POPC   C1A22109  21.778  31.948  15.414  0.2000  0.1414 -0.3903
 1821POPC   D2A22110  21.833  32.224  15.821 -0.2641 -0.0037  0.1067
 1821POPC   C3A22111  21.901  32.064  16.264  0.2187  0.0274 -0.0811
 1821POPC   C4A22112  21.689  32.105  16.643  0.1617  0.0629  0.0153
 1821POPC   C1B22113  21.423  32.417  14.976 -0.3928  0.0014  0.3651
 1821POPC   C2B22114  21.255  32.799  15.182  0.0757 -0.0660  0.1334
 1821POPC   C3B22115  20.890  33.093  15.173 -0.2434 -0.4061  0.2819
 1821POPC   C4B22116  20.605  33.458  15.125 -0.1733  0.0902  0.0072
 1822POPC   NC322117  21.837  11.539  15.199 -0.0587  0.0559 -0.0198
 1822POPC   PO422118  21.979  11.871  15.081 -0.0510  0.1546 -0.1786
 1822POPC   GL122119  21.871  12.112  15.360 -0.1160 -0.2798  0.1965
 1822POPC   GL222120  21.904  11.933  15.609 -0.1597 -0.0162  0.0527
 1822POPC   C1A22121  21.471  12.291  15.500 -0.1682 -0.0000 -0.1187
 1822POPC   D2A22122  21.017  12.447  15.649 -0.2709  0.0572 -0.3543
 1822POPC   C3A22123  20.896  12.412  16.110  0.3095 -0.1684 -0.0627
 1822POPC   C4A22124  20.889  12.349  16.549  0.6277 -0.1377  0.1524
 1822POPC   C1B22125  21.786  12.097  16.003 -0.0604 -0.1512  0.0550
 1822POPC   C2B22126  21.585  11.892  16.414  0.1912 -0.2062  0.2186
 1822POPC   C3B22127  21.381  12.040  16.791 -0.1014  0.1822  0.0540
 1822POPC   C4B22128  21.362  11.803  17.171 -0.1695 -0.1253 -0.3222
 1823POPC   NC322129  26.645  14.579  14.842 -0.1895  0.1984 -0.1152
 1823POPC   PO422130  26.738  14.319  15.053 -0.0254 -0.0404 -0.0256
 1823POPC   GL122131  26.830  14.543  15.465 -0.1948  0.2067  0.2209
 1823POPC   GL222132  26.603  14.411  15.522 -0.3634 -0.0071  0.1431
 1823POPC   C1A22133  27.285  14.619  15.611  0.1720  0.0094  0.2578
 1823POPC   D2A22134  27.632  14.745  15.898  0.2885  0.3026  0.1825
 1823POPC   C3A22135  27.959  14.772  15.597  0.1454 -0.0698  0.0469
 1823POPC   C4A22136  28.371  14.895  15.589 -0.0869  0.2129  0.2503
 1823POPC   C1B22137  26.180  14.303  15.653  0.0535 -0.1770 -0.0738
 1823POPC   C2B22138  25.981  14.252  16.106 -0.1531 -0.0365 -0.1824
 1823POPC   C3B22139  26.109  14.296  16.553  0.1982 -0.4160 -0.0969
 1823POPC   C4B22140  26.348  14.263  16.934 -0.0689  0.0708 -0.2806
 1824POPC   NC322141   4.105  13.086  14.916 -0.2186  0.1943  0.1979
 1824POPC   PO422142   3.992  12.970  15.271  0.1303  0.0912 -0.1212
 1824POPC   GL122143   4.043  12.908  15.626 -0.0407 -0.2173  0.2491
 1824POPC   GL222144   4.287  13.007  15.680 -0.1334  0.0724 -0.3664
 1824POPC   C1A22145   4.163  12.547  15.902  0.2470 -0.1493  0.0554
 1824POPC   D2A22146   4.412  12.503  16.267 -0.0139 -0.3256  0.3395
 1824POPC   C3A22147   4.176  12.400  16.672 -0.0600 -0.0228 -0.2568
 1824POPC   C4A22148   4.337  12.105  17.016 -0.1097 -0.0567  0.2034
 1824POPC   C1B22149   4.306  12.992  16.153  0.1502 -0.1412  0.4103
 1824POPC   C2B22150   4.220  13.007  16.619 -0.0954  0.0009 -0.1297
 1824POPC   C3B22151   4.365  13.001  17.119  0.0094 -0.3160 -0.2929
 1824POPC   C4B22152   4.760  12.945  17.361 -0.2903 -0.0834  0.0381
 1825POPC   NC322153  26.505   4.558  15.566 -0.3591 -0.0405  0.1398
 1825POPC   PO422154  26.851   4.365  15.581 -0.1383  0.2896  0.0645
 1825POPC   GL122155  26.828   4.254  15.944  0.2956  0.0516  0.0062
 1825POPC   GL222156  26.612   4.079  15.961 -0.1747  0.2980  0.0829
 1825POPC   C1A22157  27.099   4.465  16.283  0.0437 -0.0795 -0.0693
 1825POPC   D2A22158  27.125   4.525  16.768  0.1662  0.1435 -0.1028
 1825POPC   C3A22159  27.063   4.457  17.202 -0.1855  0.0264 -0.0550
 1825POPC   C4A22160  27.292   4.172  17.436 -0.1234 -0.2444  0.0919
 1825POPC   C1B22161  26.822   4.025  16.404 -0.0449 -0.0013 -0.1971
 1825POPC   C2B22162  26.844   4.069  16.874  0.1300  0.0914  0.1540
 1825POPC   C3B22163  26.914   3.891  17.263  0.0954  0.1629  0.0533
 1825POPC   C4B22164  26.660   3.860  17.657 -0.3023  0.0305  0.0539
 1826POPC   NC322165  31.066  26.248  14.956  0.0101 -0.0833 -0.2292
 1826POPC   PO422166  30.875  26.545  14.783  0.1241  0.2891  0.0983
 1826POPC   GL122167  30.468  26.518  14.992  0.1283  0.2003 -0.1772
 1826POPC   GL222168  30.399  26.602  15.278  0.0645  0.0566 -0.0238
 1826POPC   C1A22169  30.250  26.124  15.102  0.0175 -0.1333 -0.1757
 1826POPC   D2A22170  29.955  25.869  15.353 -0.0693  0.2228 -0.1204
 1826POPC   C3A22171  29.958  25.913  15.818 -0.0396 -0.3597 -0.0161
 1826POPC   C4A22172  29.910  25.913  16.271 -0.0424 -0.2987  0.0167
 1826POPC   C1B22173  30.289  26.305  15.574  0.2756 -0.0130 -0.1430
 1826POPC   C2B22174  30.397  25.829  15.632 -0.0204 -0.0576 -0.2623
 1826POPC   C3B22175  30.260  25.458  15.855  0.3608 -0.4049  0.3007
 1826POPC   C4B22176  30.212  25.037  15.940 -0.4862  0.3639 -0.2757
 1827POPC   NC322177  18.528  18.522  15.446 -0.3103  0.2870  0.5299
 1827POPC   PO422178  18.760  18.325  15.213 -0.3771 -0.1241 -0.4568
 1827POPC   GL122179  19.107  18.244  15.504  0.0762  0.3216 -0.0416
 1827POPC   GL222180  19.000  17.938  15.533 -0.1214 -0.1666 -0.0382
 1827POPC   C1A22181  19.202  18.121  15.949 -0.2724 -0.1309 -0.3415
 1827POPC   D2A22182  19.256  18.097  16.407  0.2914 -0.0893  0.0026
 1827POPC   C3A22183  19.340  17.949  16.845 -0.4843  0.0189  0.5000
 1827POPC   C4A22184  19.768  17.798  16.938  0.3347 -0.0115  0.4352
 1827POPC   C1B22185  18.750  17.844  15.929  0.0513  0.1088  0.1861
 1827POPC   C2B22186  18.780  17.911  16.394 -0.0359 -0.1695 -0.0457
 1827POPC   C3B22187  18.828  17.726  16.799 -0.2390 -0.0866  0.2420
 1827POPC   C4B22188  18.828  17.559  17.205 -0.2508 -0.0627  0.1217
 1828POPC   NC322189  11.729   2.897  14.915  0.2287  0.1891 -0.2048
 1828POPC   PO422190  11.880   3.209  15.174 -0.2431 -0.0298 -0.1652
 1828POPC   GL122191  11.898   3.406  15.513  0.4009 -0.1880  0.0824
 1828POPC   GL222192  11.577   3.491  15.438 -0.1731 -0.0374 -0.1864
 1828POPC   C1A22193  11.914   3.366  15.975  0.3818  0.0719  0.3820
 1828POPC   D2A22194  12.044   3.004  16.241 -0.2571 -0.0353 -0.0695
 1828POPC   C3A22195  12.159   2.794  16.612 -0.0759 -0.1067  0.0199
 1828POPC   C4A22196  12.293   2.482  16.986  0.2172 -0.1256 -0.1259
 1828POPC   C1B22197  11.464   3.143  15.780  0.2823  0.1464  0.3081
 1828POPC   C2B22198  11.075   3.279  16.005  0.2157  0.6124  0.1947
 1828POPC   C3B22199  10.721   3.581  16.017 -0.0919 -0.0796  0.1656
 1828POPC   C4B22200  10.526   4.044  15.993 -0.2005  0.0616 -0.2242
 1829POPC   NC322201  29.440   1.796  15.163  0.2317 -0.1456  0.5025
 1829POPC   PO422202  29.209   2.012  15.377 -0.1206  0.0968 -0.2627
 1829POPC   GL122203  29.333   1.677  15.616 -0.3772 -0.1766 -0.2048
 1829POPC   GL222204  29.137   1.585  15.655  0.2289 -0.2498  0.0662
 1829POPC   C1A22205  29.475   1.424  15.992 -0.0563 -0.0092  0.0978
 1829POPC   D2A22206  29.729   1.312  16.366 -0.0901  0.0603  0.1275
 1829POPC   C3A22207  29.501   1.142  16.746 -0.1534 -0.0479  0.1905
 1829POPC   C4A22208  29.285   0.924  17.086  0.1860  0.1099  0.4235
 1829POPC   C1B22209  29.005   1.324  15.995 -0.2275  0.0795  0.0427
 1829POPC   C2B22210  28.829   0.903  16.212 -0.0530  0.1591  0.3555
 1829POPC   C3B22211  28.665   0.664  16.601 -0.1882  0.1252 -0.1516
 1829POPC   C4B22212  28.958   0.488  16.907  0.0501 -0.1961  0.2276
 1830POPC   NC322213   7.815  27.369  14.901  0.5938 -0.0494  0.0021
 1830POPC   PO422214   7.489  27.104  14.919 -0.0164  0.0534  0.1537
 1830POPC   GL122215   7.630  27.095  15.266 -0.3113 -0.3694 -0.1403
 1830POPC   GL222216   7.753  27.262  15.410  0.1683 -0.1772  0.2723
 1830POPC   C1A22217   7.558  26.743  15.514  0.3252 -0.0743  0.0865
 1830POPC   D2A22218   7.636  26.590  15.995  0.0353  0.2627 -0.0352
 1830POPC   C3A22219   7.805  26.890  16.230 -0.1569 -0.0224 -0.1130
 1830POPC   C4A22220   8.202  27.003  16.480  0.1999  0.0463 -0.0531
 1830POPC   C1B22221   7.654  27.203  15.843 -0.2688  0.1134  0.3556
 1830POPC   C2B22222   7.346  27.012  16.174 -0.2028 -0.1500  0.1808
 1830POPC   C3B22223   7.490  26.790  16.541 -0.4913  0.2969 -0.2323
 1830POPC   C4B22224   7.437  26.465  16.791  0.0556  0.1697 -0.1455
 1831POPC   NC322225   7.845  18.412  15.277 -0.0469  0.1894 -0.0139
 1831POPC   PO422226   8.213  18.256  15.188  0.2429 -0.3107  0.0577
 1831POPC   GL122227   8.268  18.294  15.572  0.3173 -0.2332  0.4162
 1831POPC   GL222228   8.388  18.618  15.632 -0.2326  0.0083 -0.1546
 1831POPC   C1A22229   8.046  18.319  15.983 -0.0901 -0.1108  0.1072
 1831POPC   D2A22230   7.707  18.422  16.301 -0.0549  0.3589 -0.0479
 1831POPC   C3A22231   7.548  18.727  16.552 -0.1340 -0.2115  0.1587
 1831POPC   C4A22232   7.386  18.670  16.949 -0.1156  0.1739  0.0980
 1831POPC   C1B22233   8.327  18.739  16.106  0.0380 -0.0877 -0.3375
 1831POPC   C2B22234   8.160  18.457  16.448 -0.2606 -0.1103 -0.0322
 1831POPC   C3B22235   8.000  18.492  16.889  0.2058  0.1394  0.0938
 1831POPC   C4B22236   7.849  18.629  17.268  0.1765  0.0692 -0.1472
 1832POPC   NC322237  31.449  12.611  15.421  0.0922  0.1407  0.0795
 1832POPC   PO422238  31.056  12.617  15.527 -0.0482  0.1819  0.1083
 1832POPC   GL122239  31.068  12.805  15.871 -0.2047  0.0365  0.2597
 1832POPC   GL222240  31.031  12.508  16.045 -0.3291  0.0850 -0.0781
 1832POPC   C1A22241  31.259  12.818  16.276 -0.1492 -0.2213  0.1585
 1832POPC   D2A22242  31.312  12.920  16.728  0.0990  0.3932  0.1921
 1832POPC   C3A22243  31.518  12.916  17.147 -0.0176  0.0831 -0.0968
 1832POPC   C4A22244  31.817  12.689  17.456 -0.3468  0.2229 -0.1585
 1832POPC   C1B22245  31.018  12.487  16.505 -0.4463  0.1723 -0.4090
 1832POPC   C2B22246  31.058  12.588  16.942  0.1663 -0.3803 -0.1816
 1832POPC   C3B22247  31.087  12.781  17.392 -0.0861  0.0764  0.0641
 1832POPC   C4B22248  30.965  12.917  17.792  0.4046  0.0908  0.3702
 1833POPC   NC322249   1.501  13.774  15.142 -0.1213  0.4318 -0.3462
 1833POPC   PO422250   1.806  13.991  15.375  0.1191  0.3183  0.2457
 1833POPC   GL122251   1.844  14.094  15.828 -0.3497 -0.1565  0.1527
 1833POPC   GL222252   2.119  14.088  15.811  0.0684 -0.0337 -0.1674
 1833POPC   C1A22253   1.982  14.180  16.293  0.0206  0.0427  0.3369
 1833POPC   D2A22254   1.900  14.290  16.718 -0.0086  0.1808  0.0320
 1833POPC   C3A22255   2.286  14.238  16.990  0.2953 -0.0882  0.1716
 1833POPC   C4A22256   2.666  14.490  17.040  0.2722  0.0209 -0.0169
 1833POPC   C1B22257   2.268  13.720  16.089  0.3272 -0.4184  0.1397
 1833POPC   C2B22258   2.351  13.319  16.311 -0.2863 -0.1512 -0.0750
 1833POPC   C3B22259   2.329  13.092  16.686  0.2120  0.2154  0.0217
 1833POPC   C4B22260   2.145  13.188  17.106  0.1440 -0.0743  0.0593
 1834POPC   NC322261  17.629  23.541  14.990  0.2684  0.0852 -0.0556
 1834POPC   PO422262  17.880  23.343  15.201  0.4083 -0.0331  0.0246
 1834POPC   GL122263  17.759  23.546  15.527  0.0900  0.1246  0.1795
 1834POPC   GL222264  17.929  23.780  15.584  0.1674  0.0664  0.0450
 1834POPC   C1A22265  17.629  23.390  15.934 -0.1495  0.2296 -0.0067
 1834POPC   D2A22266  17.421  23.184  16.329 -0.2451 -0.2080 -0.1330
 1834POPC   C3A22267  17.138  23.047  16.718 -0.0067 -0.0622 -0.1174
 1834POPC   C4A22268  17.005  22.882  17.169  0.0396  0.2745  0.2865
 1834POPC   C1B22269  17.864  23.931  16.005  0.0019 -0.2618 -0.0065
 1834POPC   C2B22270  17.687  23.831  16.400 -0.0653  0.0309  0.1804
 1834POPC   C3B22271  17.503  23.944  16.837  0.0264 -0.0196  0.0263
 1834POPC   C4B22272  17.407  23.781  17.235  0.2042  0.0482 -0.0323
 1835POPC   NC322273  11.748  18.392  13.705 -0.4260  0.0909  0.1343
 1835POPC   PO422274  11.488  18.221  13.965 -0.0625  0.4039  0.2334
 1835POPC   GL122275  11.843  18.139  14.099  0.0336  0.0142 -0.0816
 1835POPC   GL222276  11.799  17.897  14.288 -0.0507 -0.0539 -0.0834
 1835POPC   C1A22277  12.148  18.292  14.451 -0.1253  0.3136  0.1435
 1835POPC   D2A22278  12.231  18.170  14.923  0.0621 -0.0415 -0.2782
 1835POPC   C3A22279  12.647  18.036  15.017  0.0335 -0.0949 -0.0683
 1835POPC   C4A22280  13.047  18.027  14.768 -0.1449 -0.0508 -0.0631
 1835POPC   C1B22281  12.258  17.812  14.339  0.2038 -0.0851  0.1717
 1835POPC   C2B22282  12.619  17.997  14.423 -0.1123 -0.2936 -0.1031
 1835POPC   C3B22283  12.750  18.440  14.568  0.4662  0.0168  0.0210
 1835POPC   C4B22284  12.896  18.491  15.017 -0.0693  0.0206 -0.0120
 1836POPC   NC322285   8.203  22.110  15.495 -0.1309 -0.1149  0.1217
 1836POPC   PO422286   8.599  22.067  15.568 -0.1080 -0.0347 -0.3109
 1836POPC   GL122287   8.619  22.211  15.902 -0.0302 -0.0158 -0.3213
 1836POPC   GL222288   8.338  22.117  15.989 -0.1686 -0.2629  0.2731
 1836POPC   C1A22289   8.759  22.540  16.164  0.0693  0.3772 -0.1743
 1836POPC   D2A22290   8.797  22.944  16.401  0.0909 -0.1386  0.0215
 1836POPC   C3A22291   8.493  22.744  16.698  0.0730  0.3226 -0.2733
 1836POPC   C4A22292   8.474  22.472  17.091 -0.0344  0.2260  0.2557
 1836POPC   C1B22293   8.488  22.189  16.416  0.2664 -0.1707 -0.2912
 1836POPC   C2B22294   8.567  22.013  16.880 -0.1025 -0.0738  0.0730
 1836POPC   C3B22295   8.566  21.948  17.387 -0.1794  0.1760  0.2685
 1836POPC   C4B22296   8.265  21.967  17.730 -0.0632 -0.1352  0.2486
 1837POPC   NC322297  21.286  30.620  15.747  0.1972 -0.4592  0.0272
 1837POPC   PO422298  21.532  30.410  15.504  0.1582  0.1428 -0.1756
 1837POPC   GL122299  21.579  30.302  15.856 -0.1115  0.1351  0.1088
 1837POPC   GL222300  21.885  30.315  15.940 -0.0821 -0.4022 -0.2295
 1837POPC   C1A22301  21.513  30.506  16.244 -0.1383 -0.3777  0.0911
 1837POPC   D2A22302  21.498  30.606  16.696  0.4323  0.3272 -0.0881
 1837POPC   C3A22303  21.689  30.715  17.095 -0.1035 -0.5647  0.1935
 1837POPC   C4A22304  22.126  30.765  17.271  0.1879  0.1577  0.1150
 1837POPC   C1B22305  21.928  30.727  16.078 -0.1210 -0.2316 -0.1217
 1837POPC   C2B22306  21.904  31.111  16.414 -0.3629 -0.3331  0.3554
 1837POPC   C3B22307  21.869  31.349  16.825 -0.0240  0.2118  0.1682
 1837POPC   C4B22308  21.771  31.177  17.226  0.1058  0.1303  0.2492
 1838POPC   NC322309  13.944   4.478  15.295  0.2621  0.0968  0.1246
 1838POPC   PO422310  14.222   4.630  15.448  0.1888 -0.1001  0.0433
 1838POPC   GL122311  14.106   4.596  15.789  0.1995 -0.2055 -0.3147
 1838POPC   GL222312  13.968   4.385  15.835  0.1659 -0.0957  0.1185
 1838POPC   C1A22313  14.347   4.697  16.181 -0.0030  0.0746 -0.3441
 1838POPC   D2A22314  14.224   4.874  16.610 -0.0810 -0.1261 -0.3445
 1838POPC   C3A22315  14.006   4.901  17.000  0.2061 -0.0660 -0.0132
 1838POPC   C4A22316  13.659   4.912  17.376  0.3463  0.0077  0.1504
 1838POPC   C1B22317  13.837   4.406  16.191 -0.0621 -0.2573  0.0084
 1838POPC   C2B22318  13.729   4.528  16.593  0.2006  0.2715  0.1929
 1838POPC   C3B22319  13.482   4.628  16.987 -0.1004  0.2279  0.3479
 1838POPC   C4B22320  13.094   4.793  17.171  0.3293  0.0334 -0.2197
 1839POPC   NC322321   1.839  15.593  14.961  0.1073  0.2190 -0.1138
 1839POPC   PO422322   2.200  15.702  14.756 -0.1500  0.1364 -0.0371
 1839POPC   GL122323   2.481  15.766  15.046  0.0695 -0.2533 -0.1189
 1839POPC   GL222324   2.255  15.805  15.279 -0.0540  0.0003 -0.0438
 1839POPC   C1A22325   2.715  15.830  15.481  0.0769 -0.0085 -0.0252
 1839POPC   D2A22326   2.920  16.161  15.740  0.0905  0.2843 -0.0427
 1839POPC   C3A22327   3.257  16.477  15.761  0.0489  0.0685  0.0036
 1839POPC   C4A22328   3.508  16.828  15.843 -0.0853  0.1493 -0.1774
 1839POPC   C1B22329   2.369  16.193  15.404 -0.3378  0.1764  0.1903
 1839POPC   C2B22330   2.494  16.429  15.845 -0.0796  0.1076  0.1345
 1839POPC   C3B22331   2.523  16.692  16.281  0.0024 -0.3103  0.0188
 1839POPC   C4B22332   2.649  17.018  16.582  0.3053  0.0503 -0.4418
 1840POPC   NC322333  19.284  27.128  14.936 -0.1933 -0.4127 -0.2538
 1840POPC   PO422334  19.531  27.417  15.152  0.2023  0.0042 -0.0343
 1840POPC   GL122335  19.401  27.404  15.554 -0.2379 -0.2756  0.3316
 1840POPC   GL222336  19.393  27.668  15.605 -0.1441  0.1696 -0.3622
 1840POPC   C1A22337  19.045  27.409  15.861  0.3546 -0.0688  0.0436
 1840POPC   D2A22338  19.120  27.319  16.323  0.2015 -0.1571 -0.0841
 1840POPC   C3A22339  19.101  27.615  16.696 -0.4400 -0.2184  0.3346
 1840POPC   C4A22340  19.072  27.799  17.150 -0.1116  0.0939 -0.1150
 1840POPC   C1B22341  19.414  27.735  16.068  0.1792 -0.1955  0.0457
 1840POPC   C2B22342  19.211  27.965  16.422  0.0595  0.2146  0.2765
 1840POPC   C3B22343  18.876  28.058  16.756  0.0314  0.2392  0.1238
 1840POPC   C4B22344  18.432  28.172  16.848  0.0033  0.1133 -0.1195
 1841POPC   NC322345  29.206   3.832  15.140 -0.1498  0.0283 -0.2193
 1841POPC   PO422346  29.551   3.855  15.318 -0.1629  0.0984 -0.0648
 1841POPC   GL122347  29.292   3.883  15.585 -0.0701 -0.4739 -0.3177
 1841POPC   GL222348  29.267   3.718  15.862 -0.1537  0.1151  0.0551
 1841POPC   C1A22349  28.931   4.180  15.714 -0.0503 -0.0257  0.0392
 1841POPC   D2A22350  28.476   4.231  15.635 -0.0525 -0.1655  0.1131
 1841POPC   C3A22351  28.135   4.490  15.715 -0.0725  0.1350  0.3274
 1841POPC   C4A22352  27.975   4.717  16.097 -0.1631  0.0914  0.0107
 1841POPC   C1B22353  29.117   3.970  16.173  0.0521 -0.2052 -0.1323
 1841POPC   C2B22354  28.961   4.037  16.576  0.1083  0.1132  0.0040
 1841POPC   C3B22355  28.575   4.076  16.864  0.2607  0.2016 -0.2525
 1841POPC   C4B22356  28.521   4.388  17.162 -0.0655 -0.0367  0.2825
 1842POPC   NC322357   3.521  15.736  14.932 -0.2072 -0.2412 -0.0204
 1842POPC   PO422358   3.222  15.501  14.858  0.1353  0.0287  0.0488
 1842POPC   GL122359   3.131  15.814  15.096 -0.1509 -0.2093  0.1444
 1842POPC   GL222360   3.252  15.631  15.351 -0.1400  0.3685  0.1323
 1842POPC   C1A22361   3.054  16.304  15.263 -0.0346  0.0979 -0.0504
 1842POPC   D2A22362   3.238  16.716  15.300 -0.0039 -0.2402  0.1717
 1842POPC   C3A22363   3.024  16.904  15.702 -0.0576  0.0296  0.1765
 1842POPC   C4A22364   2.857  17.020  16.134  0.0154  0.0501 -0.0399
 1842POPC   C1B22365   3.336  16.029  15.555 -0.1016  0.4625  0.0167
 1842POPC   C2B22366   3.673  16.387  15.487 -0.1683  0.0699  0.5036
 1842POPC   C3B22367   3.795  16.837  15.447 -0.1131  0.0745  0.0242
 1842POPC   C4B22368   3.663  17.198  15.142  0.0933 -0.0475  0.3253
 1843POPC   NC322369  16.426  10.880  14.845 -0.0678  0.5183  0.0236
 1843POPC   PO422370  16.759  10.721  14.929  0.1793 -0.0175 -0.0946
 1843POPC   GL122371  16.644  10.795  15.227 -0.1104  0.4214 -0.0667
 1843POPC   GL222372  16.762  11.007  15.387  0.0995 -0.5705  0.2208
 1843POPC   C1A22373  16.250  10.732  15.398 -0.1008 -0.0418  0.2008
 1843POPC   D2A22374  15.994  10.975  15.681 -0.1197  0.2695  0.0459
 1843POPC   C3A22375  15.585  10.981  15.505  0.1524 -0.1709  0.1642
 1843POPC   C4A22376  15.184  11.156  15.345  0.0326  0.1079 -0.0856
 1843POPC   C1B22377  16.537  10.924  15.778  0.1101  0.2032 -0.1063
 1843POPC   C2B22378  16.699  10.988  16.175 -0.1068 -0.0467  0.1234
 1843POPC   C3B22379  16.890  10.795  16.548  0.1487  0.1005 -0.1018
 1843POPC   C4B22380  17.013  10.728  16.893  0.2907  0.2656  0.1275
 1844POPC   NC322381   4.001  14.854  15.171  0.0739  0.2340 -0.3538
 1844POPC   PO422382   3.621  14.792  15.337 -0.0404 -0.3876  0.2482
 1844POPC   GL122383   3.788  14.730  15.636  0.1244 -0.0280 -0.0061
 1844POPC   GL222384   3.713  14.873  15.924  0.1487  0.2239  0.3158
 1844POPC   C1A22385   4.195  14.893  15.812 -0.0558  0.0951  0.3249
 1844POPC   D2A22386   4.335  15.044  16.229  0.1138  0.3600  0.2127
 1844POPC   C3A22387   4.065  15.161  16.607 -0.0339 -0.0323  0.1707
 1844POPC   C4A22388   3.667  15.314  16.798  0.0268 -0.0405 -0.0268
 1844POPC   C1B22389   3.628  14.877  16.351  0.1504 -0.2349 -0.2610
 1844POPC   C2B22390   3.559  14.813  16.794 -0.2195 -0.1330  0.1652
 1844POPC   C3B22391   3.367  15.052  17.127  0.1017  0.0832  0.1580
 1844POPC   C4B22392   3.075  15.214  17.429 -0.2588  0.0378 -0.3731
 1845POPC   NC322393  28.912   0.123  15.271 -0.1765 -0.1873  0.1986
 1845POPC   PO422394  28.852   0.187  14.875  0.0073 -0.0774 -0.3806
 1845POPC   GL122395  28.501   0.073  14.983  0.5994 -0.1168  0.1224
 1845POPC   GL222396  28.496   0.349  15.190  0.1323 -0.2463 -0.0456
 1845POPC   C1A22397  28.281  -0.362  14.956  0.0022  0.0331  0.0542
 1845POPC   D2A22398  28.478  -0.786  14.984 -0.2677  0.1352 -0.0922
 1845POPC   C3A22399  28.360  -0.980  15.407 -0.1926  0.2911  0.1715
 1845POPC   C4A22400  28.110  -1.160  15.718  0.5526 -0.0419  0.0415
 1845POPC   C1B22401  28.442   0.095  15.522 -0.0121 -0.2737 -0.0716
 1845POPC   C2B22402  28.438  -0.078  15.955 -0.0765  0.3947 -0.0171
 1845POPC   C3B22403  28.162  -0.377  16.179  0.1166  0.4792  0.0849
 1845POPC   C4B22404  27.778  -0.494  16.403 -0.3016 -0.2521  0.2837
 1846POPC   NC322405   3.382   4.104  14.919  0.2241  0.1747 -0.2362
 1846POPC   PO422406   3.641   4.201  15.208 -0.0147 -0.1922  0.0424
 1846POPC   GL122407   3.510   4.226  15.550 -0.0325  0.1282 -0.1473
 1846POPC   GL222408   3.535   4.522  15.619  0.2094 -0.0802  0.7487
 1846POPC   C1A22409   3.774   4.136  15.956 -0.0129  0.1296  0.0277
 1846POPC   D2A22410   4.004   4.089  16.383 -0.2117 -0.1228 -0.2230
 1846POPC   C3A22411   4.432   3.959  16.490 -0.1211 -0.1983  0.0414
 1846POPC   C4A22412   4.819   3.924  16.640  0.2172  0.0784 -0.0351
 1846POPC   C1B22413   3.494   4.672  16.066 -0.0370 -0.2307 -0.0969
 1846POPC   C2B22414   3.357   4.800  16.474  0.1191  0.0326 -0.3168
 1846POPC   C3B22415   3.381   4.385  16.688  0.0030 -0.1893 -0.2167
 1846POPC   C4B22416   3.392   3.928  16.929 -0.0094  0.1183  0.0620
 1847POPC   NC322417  19.227  31.533  15.251  0.0004  0.1794 -0.1865
 1847POPC   PO422418  18.983  31.227  15.382 -0.0944  0.2579 -0.0484
 1847POPC   GL122419  18.939  31.403  15.775  0.1773 -0.1978  0.2023
 1847POPC   GL222420  19.045  31.668  15.792  0.0644  0.0451  0.0051
 1847POPC   C1A22421  19.022  31.369  16.258  0.0713  0.0724  0.4027
 1847POPC   D2A22422  19.271  31.670  16.442 -0.0602 -0.0503  0.0169
 1847POPC   C3A22423  19.583  31.714  16.811  0.1381  0.0070  0.2663
 1847POPC   C4A22424  19.839  31.857  17.169 -0.1670 -0.3352 -0.1858
 1847POPC   C1B22425  18.744  31.800  16.144 -0.0521  0.0135 -0.0679
 1847POPC   C2B22426  18.761  31.858  16.586  0.3159  0.0174  0.2202
 1847POPC   C3B22427  18.985  31.655  16.892 -0.1547  0.2040 -0.6969
 1847POPC   C4B22428  18.944  31.518  17.337  0.1383 -0.0863  0.2620
 1848POPC   NC322429  18.363  23.699  15.311  0.0151  0.1355 -0.0865
 1848POPC   PO422430  18.486  23.349  15.142 -0.1406  0.2819 -0.1120
 1848POPC   GL122431  18.387  23.141  15.548  0.2593  0.1583  0.1005
 1848POPC   GL222432  18.140  23.255  15.662  0.1839  0.2062 -0.1426
 1848POPC   C1A22433  18.618  23.228  15.925  0.1587  0.1014  0.0584
 1848POPC   D2A22434  18.543  23.152  16.331 -0.1438 -0.3630  0.1147
 1848POPC   C3A22435  18.243  23.031  16.633  0.0434 -0.0273 -0.0087
 1848POPC   C4A22436  18.008  23.049  17.048  0.1456  0.2341 -0.0915
 1848POPC   C1B22437  18.123  23.010  16.067 -0.3097  0.3202  0.2953
 1848POPC   C2B22438  17.826  22.901  16.350 -0.2759 -0.1953 -0.3856
 1848POPC   C3B22439  17.526  22.772  16.684  0.2444 -0.1783 -0.1832
 1848POPC   C4B22440  17.131  22.555  16.803 -0.2722  0.0302  0.4936
 1849POPC   NC322441  13.879  17.197  14.307  0.3530 -0.1114 -0.0529
 1849POPC   PO422442  13.961  17.534  14.441 -0.1956 -0.1708 -0.2861
 1849POPC   GL122443  13.602  17.549  14.634  0.0428 -0.1439  0.3503
 1849POPC   GL222444  13.479  17.798  14.524 -0.1989 -0.0584  0.0324
 1849POPC   C1A22445  13.183  17.324  14.684  0.0406  0.5850 -0.2568
 1849POPC   D2A22446  12.837  17.536  14.514 -0.1454 -0.0928  0.0381
 1849POPC   C3A22447  12.518  17.602  14.819  0.0235  0.1121  0.0303
 1849POPC   C4A22448  12.459  17.605  15.255  0.2260 -0.1702  0.1284
 1849POPC   C1B22449  13.487  18.036  14.955 -0.0831  0.1037  0.2571
 1849POPC   C2B22450  13.190  18.188  15.272  0.5516 -0.2946 -0.0590
 1849POPC   C3B22451  12.817  18.254  15.491  0.1050  0.0050 -0.1202
 1849POPC   C4B22452  12.498  18.209  15.860 -0.0831  0.0380 -0.0339
 1850POPC   NC322453  20.390   2.918  14.329  0.4352  0.0117  0.1026
 1850POPC   PO422454  20.399   3.258  14.570  0.1343 -0.3721 -0.1192
 1850POPC   GL122455  20.537   3.368  14.932 -0.1017  0.3639 -0.1920
 1850POPC   GL222456  20.463   3.156  15.198  0.2505 -0.2400  0.3321
 1850POPC   C1A22457  20.344   3.599  15.326  0.0183 -0.2574 -0.0940
 1850POPC   D2A22458  20.323   3.562  15.789  0.1495 -0.2148 -0.0052
 1850POPC   C3A22459  20.778   3.571  15.756 -0.2431 -0.0744 -0.2163
 1850POPC   C4A22460  21.026   3.919  15.550  0.0781 -0.1369  0.3179
 1850POPC   C1B22461  20.609   3.131  15.630  0.4540  0.0581  0.0298
 1850POPC   C2B22462  20.551   3.222  16.095  0.1778  0.0865 -0.0226
 1850POPC   C3B22463  20.697   3.095  16.516  0.4387 -0.0623 -0.0454
 1850POPC   C4B22464  20.843   3.120  16.959  0.1716 -0.0919 -0.1064
 1851POPC   NC322465  17.873  10.281  15.299 -0.2099 -0.0205 -0.0608
 1851POPC   PO422466  17.498  10.386  15.180 -0.1852  0.0540  0.0626
 1851POPC   GL122467  17.285  10.331  15.524  0.1346 -0.0469 -0.2542
 1851POPC   GL222468  17.581  10.460  15.662 -0.2049  0.0773 -0.0994
 1851POPC   C1A22469  16.951  10.126  15.770  0.3646  0.0472 -0.0482
 1851POPC   D2A22470  16.650   9.938  16.125  0.1177 -0.1154 -0.2276
 1851POPC   C3A22471  16.265  10.166  16.123 -0.3512  0.0767  0.3328
 1851POPC   C4A22472  15.974  10.206  15.756 -0.1391  0.2300 -0.1742
 1851POPC   C1B22473  17.337  10.342  15.992  0.2598 -0.2487 -0.0009
 1851POPC   C2B22474  17.204  10.294  16.419  0.0414  0.1216 -0.0088
 1851POPC   C3B22475  17.360  10.250  16.809  0.1887  0.4107  0.3034
 1851POPC   C4B22476  17.428  10.014  17.228  0.2133  0.2518  0.1875
 1852POPC   NC322477  18.528   5.389  15.254 -0.3464 -0.1246  0.2090
 1852POPC   PO422478  18.820   5.328  15.013  0.1495  0.1824 -0.2407
 1852POPC   GL122479  18.983   5.343  15.364  0.0098  0.0728 -0.4928
 1852POPC   GL222480  19.182   5.506  15.435  0.0404  0.1690 -0.0283
 1852POPC   C1A22481  18.889   5.336  15.869  0.1779 -0.4310  0.0847
 1852POPC   D2A22482  18.810   5.241  16.277 -0.1594  0.3230 -0.1725
 1852POPC   C3A22483  18.631   5.569  16.536  0.1217 -0.0251  0.0092
 1852POPC   C4A22484  18.503   5.490  16.916  0.0543 -0.1346  0.2630
 1852POPC   C1B22485  19.448   5.586  15.799  0.2836  0.1163  0.0286
 1852POPC   C2B22486  19.649   5.687  16.196 -0.1945  0.0231 -0.2730
 1852POPC   C3B22487  19.785   5.863  16.611  0.3208 -0.0723  0.0500
 1852POPC   C4B22488  19.936   5.887  17.054 -0.1245  0.2455 -0.0715
 1853POPC   NC322489  27.248  25.702  14.779  0.2796 -0.1877  0.1754
 1853POPC   PO422490  27.480  25.784  15.076 -0.1090 -0.0881  0.2251
 1853POPC   GL122491  27.491  25.729  15.464  0.1695 -0.1802  0.0236
 1853POPC   GL222492  27.620  25.968  15.580 -0.1899 -0.1120  0.0449
 1853POPC   C1A22493  27.500  25.576  15.913  0.1164 -0.4850  0.0103
 1853POPC   D2A22494  27.521  25.691  16.374 -0.3034 -0.0109  0.0393
 1853POPC   C3A22495  27.438  25.890  16.772 -0.0006 -0.0812  0.0906
 1853POPC   C4A22496  27.538  26.039  17.221 -0.0107  0.0104  0.1623
 1853POPC   C1B22497  27.723  26.022  16.044 -0.1074  0.4106 -0.3295
 1853POPC   C2B22498  27.831  26.096  16.495  0.0202 -0.0792  0.1588
 1853POPC   C3B22499  27.971  25.982  16.907 -0.0259 -0.0303 -0.0856
 1853POPC   C4B22500  28.258  25.678  17.114 -0.0706  0.0756 -0.0085
 1854POPC   NC322501   4.691   4.978  15.239  0.0279  0.1323  0.1222
 1854POPC   PO422502   5.003   4.943  14.987 -0.0707  0.0848  0.2416
 1854POPC   GL122503   5.046   4.707  15.300 -0.3909 -0.2499 -0.3897
 1854POPC   GL222504   4.911   4.467  15.413  0.1326  0.1449 -0.1695
 1854POPC   C1A22505   4.881   4.821  15.711  0.0420  0.2418 -0.2236
 1854POPC   D2A22506   4.914   5.130  16.028 -0.2756  0.1693  0.0341
 1854POPC   C3A22507   4.925   5.024  16.410  0.1809 -0.2730 -0.0315
 1854POPC   C4A22508   4.642   4.837  16.701 -0.0903 -0.2261 -0.1096
 1854POPC   C1B22509   5.128   4.293  15.774 -0.0709  0.0694 -0.4372
 1854POPC   C2B22510   4.925   4.489  16.125  0.0914 -0.0408 -0.2584
 1854POPC   C3B22511   4.979   4.404  16.573 -0.1890  0.3215  0.0068
 1854POPC   C4B22512   4.780   4.348  16.954  0.2503  0.0559 -0.1945
 1855POPC   NC322513   9.461  14.073  15.096 -0.2010  0.1482 -0.0445
 1855POPC   PO422514   9.613  14.379  15.305 -0.2535  0.0415  0.1286
 1855POPC   GL122515   9.641  14.491  15.663  0.1880  0.0876 -0.3027
 1855POPC   GL222516   9.756  14.791  15.641  0.0344 -0.0420  0.4005
 1855POPC   C1A22517   9.383  14.446  16.010 -0.2182 -0.0107 -0.0518
 1855POPC   D2A22518   9.239  14.662  16.410 -0.2215  0.1116  0.4152
 1855POPC   C3A22519   9.410  14.587  16.823  0.1233 -0.0802 -0.2936
 1855POPC   C4A22520   9.537  14.563  17.296  0.2253  0.1335  0.0408
 1855POPC   C1B22521   9.996  14.605  15.930  0.2225 -0.1788  0.0179
 1855POPC   C2B22522   9.910  14.659  16.377 -0.1485 -0.3735  0.3033
 1855POPC   C3B22523   9.904  14.505  16.848  0.0371  0.2109  0.0624
 1855POPC   C4B22524  10.144  14.735  17.165 -0.1617 -0.0567 -0.1239
 1856POPC   NC322525   3.459  13.634  15.105 -0.1753 -0.2732 -0.0858
 1856POPC   PO422526   3.074  13.646  15.206 -0.0055 -0.0894 -0.1285
 1856POPC   GL122527   3.223  13.734  15.641  0.1913 -0.0664  0.1464
 1856POPC   GL222528   2.935  13.551  15.744  0.1545 -0.0747  0.1324
 1856POPC   C1A22529   3.549  13.470  15.854  0.2868 -0.2508 -0.2338
 1856POPC   D2A22530   3.885  13.221  16.109  0.0255  0.0422  0.0923
 1856POPC   C3A22531   3.848  13.384  16.571  0.1435 -0.0022 -0.2680
 1856POPC   C4A22532   4.042  13.475  16.968  0.1180  0.0787 -0.3851
 1856POPC   C1B22533   3.133  13.580  16.171  0.0843 -0.5316 -0.1355
 1856POPC   C2B22534   3.091  13.701  16.619 -0.0939 -0.4235 -0.0302
 1856POPC   C3B22535   3.134  13.541  17.044  0.2353  0.0419 -0.0908
 1856POPC   C4B22536   3.090  13.145  17.177 -0.0820  0.0307  0.2209
 1857POPC   NC322537  21.703  30.831  15.241 -0.1613 -0.1272 -0.5186
 1857POPC   PO422538  21.440  31.102  15.209 -0.1497 -0.0025  0.1395
 1857POPC   GL122539  21.358  31.346  15.517 -0.1216 -0.2159 -0.0460
 1857POPC   GL222540  21.189  31.551  15.357 -0.1115 -0.2533  0.3501
 1857POPC   C1A22541  21.458  31.746  15.764 -0.0116 -0.0181  0.0964
 1857POPC   D2A22542  21.203  32.083  15.882  0.1083 -0.0730  0.0634
 1857POPC   C3A22543  21.435  32.423  16.064  0.1884 -0.0664 -0.4002
 1857POPC   C4A22544  21.836  32.527  16.308 -0.1123  0.1144  0.3024
 1857POPC   C1B22545  21.300  32.009  15.381 -0.3755 -0.3754  0.0202
 1857POPC   C2B22546  21.442  32.412  15.486  0.0130 -0.2826  0.1280
 1857POPC   C3B22547  21.703  32.731  15.288 -0.1502 -0.1208  0.4767
 1857POPC   C4B22548  21.769  32.813  14.881 -0.1503  0.0146 -0.0960
 1858POPC   NC322549  30.617  11.376  15.611  0.3145 -0.1682  0.0812
 1858POPC   PO422550  30.932  11.610  15.650  0.0960 -0.0059 -0.0426
 1858POPC   GL122551  30.664  11.677  15.969  0.0168 -0.4909 -0.0328
 1858POPC   GL222552  30.362  11.712  15.933  0.0753  0.1467  0.0717
 1858POPC   C1A22553  30.533  11.480  16.357  0.2454 -0.2807 -0.2147
 1858POPC   D2A22554  30.279  11.452  16.724  0.0239 -0.0300  0.0658
 1858POPC   C3A22555  30.496  11.681  17.066 -0.0666 -0.0024 -0.2394
 1858POPC   C4A22556  30.507  11.837  17.472  0.1232  0.1976  0.2061
 1858POPC   C1B22557  30.006  11.734  16.272 -0.2978  0.0278 -0.3037
 1858POPC   C2B22558  29.575  11.778  16.387 -0.1603 -0.2966 -0.1573
 1858POPC   C3B22559  29.216  11.924  16.553  0.0032 -0.0711  0.1794
 1858POPC   C4B22560  28.859  11.865  16.861 -0.3231 -0.2906 -0.1473
 1859POPC   NC322561  16.974  13.310  15.256  0.1261 -0.0572 -0.0521
 1859POPC   PO422562  16.634  13.091  15.243  0.0361 -0.0113 -0.0799
 1859POPC   GL122563  16.617  13.163  15.650 -0.0572 -0.0073  0.1823
 1859POPC   GL222564  16.901  13.066  15.724 -0.2115  0.1222  0.0224
 1859POPC   C1A22565  16.363  13.338  16.034 -0.0780  0.0783 -0.3037
 1859POPC   D2A22566  16.177  13.306  16.473  0.1293  0.0719  0.2022
 1859POPC   C3A22567  16.309  12.955  16.810 -0.2330 -0.1604  0.2153
 1859POPC   C4A22568  16.281  12.657  17.195  0.0928  0.1028 -0.2915
 1859POPC   C1B22569  16.750  13.140  16.169  0.2475  0.2631 -0.1005
 1859POPC   C2B22570  16.718  13.227  16.648  0.3221 -0.0597 -0.1853
 1859POPC   C3B22571  16.409  13.438  16.887 -0.1251  0.0749  0.0819
 1859POPC   C4B22572  16.432  13.572  17.341  0.1864  0.0536  0.2185
 1860POPC   NC322573  29.105  26.935  15.363  0.2366 -0.3079 -0.0733
 1860POPC   PO422574  29.463  27.148  15.301  0.0058 -0.2481 -0.2503
 1860POPC   GL122575  29.633  27.128  15.667 -0.0517 -0.2061  0.0391
 1860POPC   GL222576  29.555  26.866  15.707  0.2392 -0.0863 -0.2371
 1860POPC   C1A22577  29.597  27.192  16.114  0.0503  0.1968  0.1147
 1860POPC   D2A22578  29.334  27.198  16.460 -0.0999  0.1301 -0.2136
 1860POPC   C3A22579  29.600  27.261  16.819  0.1143  0.4869 -0.0639
 1860POPC   C4A22580  29.699  27.484  17.222 -0.1355 -0.4060  0.0914
 1860POPC   C1B22581  29.283  26.782  16.098 -0.0176  0.0240  0.0241
 1860POPC   C2B22582  29.213  26.545  16.482 -0.2854  0.1243  0.0192
 1860POPC   C3B22583  29.186  26.607  16.952  0.3083 -0.1645 -0.0565
 1860POPC   C4B22584  29.402  26.929  17.234 -0.0838 -0.3057 -0.2590
 1861POPC   NC322585   4.609   3.532  14.650 -0.1468  0.1935 -0.3791
 1861POPC   PO422586   4.655   3.278  14.982 -0.0335 -0.0340 -0.2606
 1861POPC   GL122587   4.564   3.104  15.385 -0.1669 -0.2450 -0.2620
 1861POPC   GL222588   4.539   3.248  15.664 -0.0568  0.2710  0.1066
 1861POPC   C1A22589   4.957   2.874  15.589 -0.0178 -0.1807 -0.0638
 1861POPC   D2A22590   5.105   2.654  15.907 -0.0053  0.0707 -0.2925
 1861POPC   C3A22591   5.358   2.789  16.278  0.0036  0.0157  0.0984
 1861POPC   C4A22592   5.342   2.754  16.718  0.0116  0.0732  0.1905
 1861POPC   C1B22593   4.629   3.526  16.006  0.1141  0.2138 -0.0554
 1861POPC   C2B22594   4.676   3.465  16.461  0.0623  0.0871  0.2076
 1861POPC   C3B22595   4.615   3.491  16.908 -0.1951  0.1301 -0.0050
 1861POPC   C4B22596   4.681   3.329  17.308 -0.1816  0.0982 -0.1715
 1862POPC   NC322597  13.877  16.895  15.120  0.1328 -0.1157  0.3600
 1862POPC   PO422598  13.946  17.186  14.834  0.0285  0.0399 -0.1953
 1862POPC   GL122599  13.732  17.333  15.021  0.0855  0.0737  0.1069
 1862POPC   GL222600  13.797  17.645  15.071  0.1917  0.0640 -0.0463
 1862POPC   C1A22601  13.739  17.315  15.460  0.0070 -0.1711  0.0120
 1862POPC   D2A22602  13.683  17.437  15.941 -0.0907 -0.1040 -0.1470
 1862POPC   C3A22603  13.319  17.576  16.199 -0.2422 -0.0273  0.2539
 1862POPC   C4A22604  13.018  17.412  16.447  0.1533 -0.0911  0.1821
 1862POPC   C1B22605  13.352  17.577  15.138 -0.2329 -0.1797 -0.1749
 1862POPC   C2B22606  12.951  17.745  15.284  0.2293  0.2626 -0.0605
 1862POPC   C3B22607  12.689  17.797  15.625 -0.1359 -0.2757 -0.2237
 1862POPC   C4B22608  12.428  17.469  15.838 -0.2543  0.0441  0.0323
 1863POPC   NC322609   3.120  24.485  15.424  0.2217  0.0927  0.0327
 1863POPC   PO422610   3.347  24.214  15.272 -0.2925 -0.2627 -0.1737
 1863POPC   GL122611   3.571  24.439  15.610 -0.2216 -0.3554 -0.0950
 1863POPC   GL222612   3.656  24.190  15.747  0.2323  0.3720 -0.1097
 1863POPC   C1A22613   3.825  24.646  15.956  0.2902 -0.0253 -0.0584
 1863POPC   D2A22614   4.101  24.425  16.245 -0.2187 -0.2215  0.0007
 1863POPC   C3A22615   4.148  24.444  16.697 -0.0084 -0.1212 -0.1972
 1863POPC   C4A22616   3.903  24.576  17.066 -0.0356  0.0925  0.1919
 1863POPC   C1B22617   3.274  24.023  15.911 -0.4195  0.1078  0.2111
 1863POPC   C2B22618   3.256  23.997  16.337 -0.0325  0.1509  0.0985
 1863POPC   C3B22619   3.305  23.741  16.713  0.2724  0.4251  0.0396
 1863POPC   C4B22620   3.168  23.570  17.107  0.0546  0.1876 -0.0835
 1864POPC   NC322621  18.059  15.727  14.872 -0.0048  0.0499  0.2855
 1864POPC   PO422622  18.125  16.095  14.744 -0.3010  0.2341  0.2121
 1864POPC   GL122623  18.204  16.062  15.120 -0.7218  0.4817 -0.0231
 1864POPC   GL222624  18.458  15.889  15.182  0.0039  0.2158  0.3130
 1864POPC   C1A22625  18.250  16.175  15.585  0.1175  0.2626  0.1272
 1864POPC   D2A22626  18.559  16.262  15.892  0.2772  0.2281 -0.1639
 1864POPC   C3A22627  18.473  16.148  16.392 -0.0566  0.1118  0.2369
 1864POPC   C4A22628  18.235  15.928  16.752 -0.0788  0.0200 -0.0273
 1864POPC   C1B22629  18.778  15.656  15.375  0.2231  0.2432 -0.0786
 1864POPC   C2B22630  19.081  15.604  15.754 -0.2924  0.0909  0.3874
 1864POPC   C3B22631  19.135  15.225  16.068  0.1062  0.1848 -0.0254
 1864POPC   C4B22632  18.670  15.165  16.280  0.2086 -0.1315 -0.3057
 1865POPC   NC322633   9.528  21.344  15.174 -0.2675  0.2508  0.0351
 1865POPC   PO422634   9.728  21.126  15.448  0.0514  0.0814  0.0719
 1865POPC   GL122635   9.681  21.015  15.833  0.0324 -0.0048  0.2562
 1865POPC   GL222636   9.399  20.892  15.893 -0.0733 -0.2628  0.2001
 1865POPC   C1A22637   9.889  20.967  16.216 -0.2009 -0.3729 -0.4453
 1865POPC   D2A22638  10.204  21.007  16.497 -0.0956  0.0153  0.1205
 1865POPC   C3A22639  10.577  20.761  16.517  0.0903  0.0068 -0.3561
 1865POPC   C4A22640  10.857  20.482  16.713 -0.1413  0.2077 -0.2781
 1865POPC   C1B22641   9.040  20.842  16.250 -0.1950  0.0931 -0.0806
 1865POPC   C2B22642   8.718  21.000  16.529 -0.3403  0.1711  0.1550
 1865POPC   C3B22643   8.595  20.970  16.977  0.1260 -0.2016 -0.1414
 1865POPC   C4B22644   8.449  20.733  17.400 -0.1394  0.4080 -0.0666
 1866POPC   NC322645   7.502  15.758  15.669  0.2574 -0.1210  0.0660
 1866POPC   PO422646   7.923  15.839  15.594 -0.1436 -0.1908 -0.3410
 1866POPC   GL122647   7.731  16.043  15.950 -0.0563  0.1019 -0.0488
 1866POPC   GL222648   7.444  15.949  16.133 -0.1142 -0.0278  0.2915
 1866POPC   C1A22649   7.861  16.134  16.390 -0.3217 -0.3528  0.0687
 1866POPC   D2A22650   7.786  16.115  16.845 -0.0293  0.1226 -0.1924
 1866POPC   C3A22651   7.626  16.284  17.230 -0.1735  0.1274 -0.0066
 1866POPC   C4A22652   7.850  16.179  17.651  0.1352  0.2048 -0.4605
 1866POPC   C1B22653   7.423  16.126  16.552 -0.1154 -0.0578  0.1654
 1866POPC   C2B22654   7.334  15.902  17.018 -0.0472 -0.0874 -0.2008
 1866POPC   C3B22655   7.171  15.996  17.472 -0.1948 -0.1562 -0.0293
 1866POPC   C4B22656   6.821  15.862  17.675  0.1901 -0.1334  0.0992
 1867POPC   NC322657  24.167  30.131  15.431  0.2476 -0.3676 -0.2503
 1867POPC   PO422658  24.274  29.756  15.518 -0.4401 -0.1600  0.2593
 1867POPC   GL122659  24.516  30.023  15.740 -0.2284 -0.1775 -0.1374
 1867POPC   GL222660  24.778  29.957  15.835 -0.2277  0.0868 -0.2271
 1867POPC   C1A22661  24.397  30.138  16.211 -0.0287  0.0905  0.2068
 1867POPC   D2A22662  24.477  30.341  16.612  0.0051  0.2608 -0.1715
 1867POPC   C3A22663  24.051  30.377  16.833  0.1139  0.2295 -0.1401
 1867POPC   C4A22664  23.756  30.108  17.087  0.2656  0.0411  0.0315
 1867POPC   C1B22665  24.919  30.043  16.329  0.2152  0.1150  0.2144
 1867POPC   C2B22666  24.865  30.117  16.807  0.1471 -0.2073 -0.1163
 1867POPC   C3B22667  24.582  30.267  17.100 -0.0082  0.0769  0.2370
 1867POPC   C4B22668  24.170  30.336  17.280 -0.1714  0.0361  0.3154
 1868POPC   NC322669  17.947   3.869  15.122 -0.0609 -0.1090 -0.2089
 1868POPC   PO422670  18.248   3.947  15.392  0.2049  0.0984  0.3215
 1868POPC   GL122671  18.408   4.065  15.714 -0.2512 -0.0919  0.1907
 1868POPC   GL222672  18.439   4.350  15.648  0.0966  0.1289 -0.0331
 1868POPC   C1A22673  18.449   3.897  16.142 -0.2911 -0.0684  0.0507
 1868POPC   D2A22674  18.545   3.879  16.588 -0.0278 -0.3434 -0.5253
 1868POPC   C3A22675  18.308   3.734  16.959  0.2511 -0.1847  0.0120
 1868POPC   C4A22676  18.385   3.612  17.382 -0.0158 -0.2596 -0.0161
 1868POPC   C1B22677  18.593   4.375  16.111 -0.6168  0.0909  0.0290
 1868POPC   C2B22678  18.920   4.160  16.342  0.1188 -0.0239  0.1941
 1868POPC   C3B22679  18.972   4.000  16.822 -0.2971 -0.1881  0.1580
 1868POPC   C4B22680  19.376   4.132  17.076  0.1365 -0.3256  0.2147
 1869POPC   NC322681  18.135  29.531  15.740  0.0798  0.0118  0.3502
 1869POPC   PO422682  17.777  29.392  15.597 -0.0663 -0.2393  0.0292
 1869POPC   GL122683  17.840  29.066  16.001  0.1422 -0.0392 -0.0943
 1869POPC   GL222684  17.758  28.838  15.898  0.2044  0.2218  0.1496
 1869POPC   C1A22685  17.888  29.338  16.415 -0.0518 -0.0055 -0.0956
 1869POPC   D2A22686  17.820  29.610  16.744  0.2054  0.0017 -0.0052
 1869POPC   C3A22687  17.519  29.661  17.114  0.0706  0.0967  0.0093
 1869POPC   C4A22688  17.217  29.458  17.369 -0.0060 -0.1115  0.0792
 1869POPC   C1B22689  17.350  28.681  16.039  0.1218 -0.3075 -0.0844
 1869POPC   C2B22690  17.224  28.413  16.371  0.0063 -0.0792  0.1211
 1869POPC   C3B22691  16.935  28.387  16.746  0.0748  0.0507 -0.1399
 1869POPC   C4B22692  16.843  28.134  17.131 -0.0849 -0.1562  0.0831
 1870POPC   NC322693  14.590  12.046  14.997  0.0213  0.1767  0.1844
 1870POPC   PO422694  14.403  12.291  15.208  0.0258 -0.0660  0.0326
 1870POPC   GL122695  14.682  12.463  15.533 -0.2970  0.1680 -0.1086
 1870POPC   GL222696  14.877  12.238  15.406  0.2093  0.1401  0.3011
 1870POPC   C1A22697  14.572  12.349  15.971 -0.0818  0.4223 -0.0287
 1870POPC   D2A22698  14.461  12.140  16.323 -0.1446  0.1647  0.0562
 1870POPC   C3A22699  14.367  12.046  16.748  0.2291 -0.0251 -0.2461
 1870POPC   C4A22700  14.340  12.199  17.182 -0.0092 -0.0518  0.0449
 1870POPC   C1B22701  14.721  11.941  15.728 -0.1540 -0.2884 -0.1642
 1870POPC   C2B22702  14.677  11.648  16.066  0.0518  0.1049  0.1422
 1870POPC   C3B22703  14.673  11.474  16.470 -0.2743 -0.0552  0.1301
 1870POPC   C4B22704  14.813  11.069  16.686 -0.0397  0.1163 -0.2748
 1871POPC   NC322705  18.203  27.704  15.539 -0.0812  0.1090 -0.0349
 1871POPC   PO422706  18.285  27.316  15.446  0.2589 -0.3122  0.1656
 1871POPC   GL122707  18.471  27.111  15.811  0.1751 -0.2644  0.2495
 1871POPC   GL222708  18.369  26.827  15.741 -0.3645  0.4782 -0.1788
 1871POPC   C1A22709  18.693  27.095  16.229  0.2147 -0.0286  0.0473
 1871POPC   D2A22710  18.735  27.062  16.678  0.1360 -0.0999  0.3130
 1871POPC   C3A22711  18.445  27.022  17.073  0.1041  0.0262 -0.2783
 1871POPC   C4A22712  18.105  26.976  17.381  0.0928  0.0673 -0.0050
 1871POPC   C1B22713  18.575  26.570  16.106 -0.2740  0.0449  0.0627
 1871POPC   C2B22714  18.642  26.557  16.562 -0.1265 -0.0064 -0.0140
 1871POPC   C3B22715  18.825  26.673  16.944  0.1006  0.3123  0.2799
 1871POPC   C4B22716  18.685  26.687  17.390 -0.0921  0.1580  0.0536
 1872POPC   NC322717  17.369   3.430  15.284  0.0998  0.1008 -0.0285
 1872POPC   PO422718  17.459   3.842  15.217  0.1354 -0.1477 -0.0143
 1872POPC   GL122719  17.375   3.861  15.609  0.1304  0.2149 -0.2501
 1872POPC   GL222720  17.513   3.641  15.738 -0.3009 -0.0084 -0.4320
 1872POPC   C1A22721  17.258   4.089  15.990  0.0771 -0.2862 -0.2889
 1872POPC   D2A22722  17.500   4.075  16.410 -0.0780 -0.0456  0.1819
 1872POPC   C3A22723  17.263   4.147  16.791 -0.1721 -0.2230  0.2216
 1872POPC   C4A22724  16.930   4.344  17.055 -0.2155 -0.0914 -0.1181
 1872POPC   C1B22725  17.354   3.469  16.146  0.1946  0.4554 -0.1897
 1872POPC   C2B22726  17.464   3.499  16.583 -0.0210  0.2412 -0.0878
 1872POPC   C3B22727  17.377   3.721  16.999  0.1571  0.1671 -0.0136
 1872POPC   C4B22728  17.385   3.794  17.451  0.1956  0.3281  0.1522
 1873POPC   NC322729  25.657  17.292  15.100  0.1684 -0.0666 -0.0135
 1873POPC   PO422730  25.362  17.089  15.155 -0.1369 -0.1164 -0.0353
 1873POPC   GL122731  25.511  16.857  15.399 -0.2615  0.3108 -0.3835
 1873POPC   GL222732  25.443  17.067  15.614 -0.1416  0.2008 -0.0512
 1873POPC   C1A22733  25.642  16.695  15.837  0.0374  0.0712 -0.0441
 1873POPC   D2A22734  25.617  16.550  16.286 -0.1700 -0.0932  0.0327
 1873POPC   C3A22735  25.999  16.697  16.673 -0.1102 -0.0299 -0.2844
 1873POPC   C4A22736  26.387  16.874  16.913 -0.2178 -0.0241 -0.1608
 1873POPC   C1B22737  25.573  17.231  16.006 -0.1937 -0.0532  0.0601
 1873POPC   C2B22738  25.672  17.049  16.446 -0.0687  0.0718  0.1216
 1873POPC   C3B22739  25.619  16.950  16.900 -0.2423  0.0073 -0.1477
 1873POPC   C4B22740  25.462  16.723  17.229 -0.1304 -0.0654  0.0716
 1874POPC   NC322741  15.215   4.765  15.119 -0.1662  0.2141 -0.4822
 1874POPC   PO422742  15.184   4.374  15.223 -0.1963  0.2454  0.0813
 1874POPC   GL122743  15.296   4.259  15.655  0.0953 -0.0974 -0.0172
 1874POPC   GL222744  15.544   4.105  15.727 -0.3533 -0.1820 -0.1296
 1874POPC   C1A22745  15.398   4.301  16.160  0.1298  0.1327 -0.2758
 1874POPC   D2A22746  15.256   4.551  16.519  0.0638  0.2350 -0.0440
 1874POPC   C3A22747  15.079   4.787  16.824  0.0376 -0.3082  0.1604
 1874POPC   C4A22748  15.101   4.856  17.274  0.0618  0.1390  0.0056
 1874POPC   C1B22749  15.882   4.079  16.026  0.0601 -0.0347 -0.0835
 1874POPC   C2B22750  16.151   4.000  16.419  0.1341  0.0516 -0.0331
 1874POPC   C3B22751  16.202   3.921  16.897 -0.0495 -0.1055  0.0593
 1874POPC   C4B22752  16.032   4.156  17.323 -0.0240  0.2073  0.0280
 1875POPC   NC322753  11.180  10.283  15.119  0.1167  0.1235  0.1815
 1875POPC   PO422754  11.149  10.621  15.343  0.0557 -0.1689 -0.3529
 1875POPC   GL122755  11.113  10.462  15.764  0.0051  0.0643  0.0783
 1875POPC   GL222756  11.080  10.192  15.727  0.1167  0.2144  0.1042
 1875POPC   C1A22757  10.779  10.440  16.096 -0.0856  0.1745  0.0815
 1875POPC   D2A22758  10.420  10.214  16.282 -0.0622  0.0365 -0.0746
 1875POPC   C3A22759  10.333  10.278  16.708 -0.2682  0.3061  0.0457
 1875POPC   C4A22760  10.489  10.521  17.061 -0.1761 -0.1714 -0.1569
 1875POPC   C1B22761  10.896   9.981  16.103  0.2451 -0.4369  0.0103
 1875POPC   C2B22762  10.882  10.204  16.532  0.2476 -0.2873 -0.1072
 1875POPC   C3B22763  10.696  10.045  16.942 -0.1376  0.1256  0.0758
 1875POPC   C4B22764  10.327   9.972  17.165 -0.1031  0.1712 -0.0968
 1876POPC   NC322765  27.876   9.868  15.298 -0.0635 -0.2978 -0.1864
 1876POPC   PO422766  28.079  10.225  15.291 -0.2345 -0.0702 -0.0120
 1876POPC   GL122767  27.820  10.234  15.614 -0.1184 -0.3105  0.1556
 1876POPC   GL222768  27.591  10.275  15.569 -0.2806 -0.1992  0.0337
 1876POPC   C1A22769  27.708  10.178  16.028 -0.0886 -0.3650 -0.1749
 1876POPC   D2A22770  27.637  10.051  16.423 -0.0891  0.2564 -0.1402
 1876POPC   C3A22771  27.271   9.918  16.681  0.1823  0.3567  0.0911
 1876POPC   C4A22772  27.149   9.749  17.121  0.0181 -0.2068  0.1228
 1876POPC   C1B22773  27.280  10.420  15.902 -0.1115  0.1357 -0.4657
 1876POPC   C2B22774  26.999  10.628  16.204 -0.1885  0.1687  0.0437
 1876POPC   C3B22775  26.718  10.736  16.561 -0.2648 -0.0144 -0.2063
 1876POPC   C4B22776  26.419  10.999  16.840 -0.0308  0.0727  0.0549
 1877POPC   NC322777  23.049   1.477  15.058 -0.4303 -0.1978  0.0621
 1877POPC   PO422778  23.004   1.808  14.872  0.1679 -0.4101 -0.0486
 1877POPC   GL122779  22.703   1.799  15.153  0.0472 -0.1155  0.0632
 1877POPC   GL222780  22.484   1.829  15.004 -0.0203  0.0884  0.2063
 1877POPC   C1A22781  22.529   1.651  15.545 -0.0139 -0.0469  0.2631
 1877POPC   D2A22782  22.133   1.540  15.767  0.1004 -0.0049  0.3102
 1877POPC   C3A22783  22.066   1.419  16.259 -0.1696 -0.3430 -0.1453
 1877POPC   C4A22784  21.887   1.499  16.662 -0.0236 -0.0986 -0.0687
 1877POPC   C1B22785  22.086   1.876  15.230  0.2164  0.1002 -0.1070
 1877POPC   C2B22786  21.790   2.117  15.553  0.1537  0.0378 -0.3105
 1877POPC   C3B22787  21.641   2.149  16.008 -0.1921 -0.1029  0.0276
 1877POPC   C4B22788  21.687   2.003  16.403 -0.1568 -0.3110 -0.3326
 1878POPC   NC322789  21.109  26.888  15.010  0.2332  0.1997  0.3160
 1878POPC   PO422790  21.261  27.230  15.133 -0.0522  0.0864  0.1226
 1878POPC   GL122791  21.361  27.445  15.452 -0.0788  0.2373 -0.0295
 1878POPC   GL222792  21.280  27.159  15.593 -0.0297  0.3748 -0.2099
 1878POPC   C1A22793  21.245  27.872  15.728 -0.1915  0.2973 -0.2113
 1878POPC   D2A22794  21.207  28.207  16.035  0.0913  0.0129  0.0985
 1878POPC   C3A22795  20.729  28.289  16.088 -0.3983 -0.0702 -0.0154
 1878POPC   C4A22796  20.290  28.407  16.210 -0.3915  0.0213 -0.0777
 1878POPC   C1B22797  21.296  27.442  15.955 -0.3209 -0.0761  0.1264
 1878POPC   C2B22798  21.148  27.652  16.369  0.0101  0.0595  0.1074
 1878POPC   C3B22799  20.756  27.625  16.593  0.1543  0.0108  0.1119
 1878POPC   C4B22800  20.516  27.494  16.933  0.1220 -0.0330  0.2304
 1879POPC   NC322801   9.509   7.365  14.989  0.0574  0.2475 -0.1507
 1879POPC   PO422802   9.474   7.630  15.283  0.0346  0.0602 -0.2430
 1879POPC   GL122803   9.363   7.646  15.589 -0.2690 -0.0888 -0.1684
 1879POPC   GL222804   9.486   7.890  15.777  0.0527  0.1790  0.4284
 1879POPC   C1A22805   9.125   7.302  15.735  0.1448  0.3560  0.0466
 1879POPC   D2A22806   8.925   7.230  16.136 -0.0804 -0.1743  0.0772
 1879POPC   C3A22807   9.106   7.322  16.560  0.0265  0.3498 -0.2467
 1879POPC   C4A22808   9.265   7.412  16.986  0.0455 -0.0530 -0.2997
 1879POPC   C1B22809   9.321   7.725  16.137 -0.1874 -0.0834 -0.1141
 1879POPC   C2B22810   9.218   7.810  16.581 -0.1912  0.3184 -0.2073
 1879POPC   C3B22811   9.390   7.941  17.024  0.1388  0.1342  0.1809
 1879POPC   C4B22812   9.669   8.148  17.310 -0.3289 -0.2032 -0.1301
 1880POPC   NC322813  28.897  21.452  15.336 -0.1046 -0.0013  0.2757
 1880POPC   PO422814  28.901  21.841  15.284 -0.0401 -0.2297  0.0550
 1880POPC   GL122815  28.764  22.078  15.514  0.1594 -0.2417 -0.2493
 1880POPC   GL222816  29.055  22.283  15.588  0.0651  0.1721 -0.2122
 1880POPC   C1A22817  28.553  22.079  15.931 -0.0423  0.0008 -0.1574
 1880POPC   D2A22818  28.227  21.807  16.055 -0.1312  0.1607  0.0659
 1880POPC   C3A22819  28.339  21.508  16.442 -0.1111  0.1025 -0.1202
 1880POPC   C4A22820  28.400  21.043  16.628 -0.1422 -0.2002  0.0317
 1880POPC   C1B22821  29.372  22.262  15.990 -0.0995  0.2438  0.0908
 1880POPC   C2B22822  29.543  22.250  16.433 -0.1962 -0.1669  0.1039
 1880POPC   C3B22823  29.731  22.497  16.840 -0.1674  0.2989  0.3395
 1880POPC   C4B22824  29.446  22.579  17.211 -0.1712 -0.0079 -0.1340
 1881POPC   NC322825  22.029  28.439  15.151 -0.1836 -0.2734  0.0467
 1881POPC   PO422826  22.049  28.803  15.375  0.1124 -0.1106  0.1800
 1881POPC   GL122827  22.094  28.936  15.820  0.0104 -0.0392  0.1672
 1881POPC   GL222828  21.756  28.981  15.834 -0.3513  0.0773  0.1239
 1881POPC   C1A22829  21.935  28.714  16.185 -0.2716 -0.3649 -0.0319
 1881POPC   D2A22830  21.950  28.442  16.562 -0.0572  0.0345  0.0247
 1881POPC   C3A22831  21.718  28.605  16.936 -0.0104 -0.1956  0.3013
 1881POPC   C4A22832  21.472  28.723  17.335 -0.3488  0.2203  0.0063
 1881POPC   C1B22833  21.440  28.844  16.211  0.0047 -0.0478 -0.0412
 1881POPC   C2B22834  21.434  28.887  16.627 -0.1199  0.1284 -0.0304
 1881POPC   C3B22835  21.294  29.051  17.052 -0.2826 -0.0179 -0.0053
 1881POPC   C4B22836  20.885  29.298  17.148 -0.2999  0.1073  0.1987
 1882POPC   NC322837  26.885  28.474  15.195 -0.4080  0.1239 -0.1164
 1882POPC   PO422838  27.127  28.653  14.925  0.1938 -0.0890  0.0348
 1882POPC   GL122839  27.054  28.911  15.206 -0.2833 -0.3287  0.4425
 1882POPC   GL222840  27.236  28.839  15.398 -0.0706  0.0390  0.0474
 1882POPC   C1A22841  27.016  29.274  15.517 -0.3029 -0.0712  0.1616
 1882POPC   D2A22842  27.099  29.665  15.794 -0.0935 -0.3314  0.1202
 1882POPC   C3A22843  27.131  29.783  16.273  0.3004 -0.1336 -0.4277
 1882POPC   C4A22844  27.190  30.038  16.645  0.0836 -0.0811 -0.1521
 1882POPC   C1B22845  27.102  28.766  15.812  0.1853 -0.2672 -0.1846
 1882POPC   C2B22846  27.080  28.978  16.220  0.1807 -0.0211  0.1021
 1882POPC   C3B22847  27.098  28.976  16.691 -0.1480  0.0201 -0.3403
 1882POPC   C4B22848  27.406  28.882  17.075 -0.1486 -0.0257 -0.0694
 1883POPC   NC322849   2.694   4.814  15.644  0.0788 -0.1381  0.1597
 1883POPC   PO422850   2.819   4.581  15.361 -0.1352 -0.0230 -0.0423
 1883POPC   GL122851   3.065   4.522  15.609  0.3733  0.2683  0.0995
 1883POPC   GL222852   3.021   4.590  15.897 -0.1089  0.0508 -0.1435
 1883POPC   C1A22853   3.249   4.159  15.883  0.1108  0.0593 -0.3263
 1883POPC   D2A22854   3.444   4.104  16.278  0.1591 -0.2079 -0.1375
 1883POPC   C3A22855   3.547   3.706  16.548  0.0257  0.1345 -0.0276
 1883POPC   C4A22856   3.767   3.282  16.676  0.1619 -0.2251  0.2666
 1883POPC   C1B22857   2.974   4.432  16.359  0.1710 -0.1079  0.1441
 1883POPC   C2B22858   2.917   4.454  16.788 -0.2397 -0.1147 -0.3488
 1883POPC   C3B22859   3.208   4.664  17.110 -0.1093 -0.1396 -0.0622
 1883POPC   C4B22860   3.663   4.704  16.936  0.0257  0.2052 -0.2134
 1884POPC   NC322861  14.847  16.023  15.499  0.1878  0.0982  0.0817
 1884POPC   PO422862  15.070  15.856  15.222 -0.1090  0.2111 -0.0535
 1884POPC   GL122863  15.100  15.629  15.640  0.0331 -0.2120  0.2745
 1884POPC   GL222864  15.392  15.558  15.565  0.0127 -0.3044  0.0361
 1884POPC   C1A22865  14.861  15.440  16.007  0.0297 -0.0672  0.0217
 1884POPC   D2A22866  14.746  15.003  16.080  0.4238  0.0651  0.3721
 1884POPC   C3A22867  14.756  14.806  16.491  0.1854  0.1704  0.1392
 1884POPC   C4A22868  14.878  14.549  16.901 -0.3074  0.0667  0.3837
 1884POPC   C1B22869  15.486  15.430  15.985 -0.2637 -0.1396  0.0080
 1884POPC   C2B22870  15.590  15.163  16.378  0.0356 -0.3585  0.1795
 1884POPC   C3B22871  15.725  15.106  16.839  0.0604 -0.2119  0.2491
 1884POPC   C4B22872  15.873  15.226  17.317 -0.0561  0.1108 -0.3353
 1885POPC   NC322873  24.907   2.831  15.095  0.1506  0.2406  0.0837
 1885POPC   PO422874  24.736   3.164  15.148  0.0963  0.1772 -0.3120
 1885POPC   GL122875  24.695   2.925  15.524 -0.5413  0.1465 -0.2690
 1885POPC   GL222876  24.587   2.667  15.645  0.0821  0.0822  0.1310
 1885POPC   C1A22877  24.747   3.080  15.950 -0.0105 -0.0346  0.1135
 1885POPC   D2A22878  24.905   3.005  16.397 -0.0822  0.0552  0.2262
 1885POPC   C3A22879  24.767   3.228  16.774 -0.1801  0.3722  0.0803
 1885POPC   C4A22880  24.741   3.152  17.217  0.0724 -0.3726  0.0450
 1885POPC   C1B22881  24.437   2.737  16.122 -0.1362 -0.0851 -0.0024
 1885POPC   C2B22882  24.451   2.688  16.546 -0.0907  0.1198  0.2125
 1885POPC   C3B22883  24.415   2.690  16.987 -0.0874  0.1058  0.0459
 1885POPC   C4B22884  24.513   2.683  17.384 -0.0015  0.1279 -0.1076
 1886POPC   NC322885  23.770   5.835  14.832 -0.0714 -0.1840 -0.0920
 1886POPC   PO422886  23.383   5.935  14.939 -0.0541  0.2329 -0.0551
 1886POPC   GL122887  23.612   5.982  15.273 -0.1694 -0.2799  0.2247
 1886POPC   GL222888  23.984   5.925  15.303  0.1123  0.1405  0.1007
 1886POPC   C1A22889  23.706   6.026  15.702 -0.1952 -0.1679 -0.4190
 1886POPC   D2A22890  23.602   6.143  16.173 -0.3202 -0.0450  0.1395
 1886POPC   C3A22891  23.833   6.075  16.603  0.0552  0.0492 -0.0062
 1886POPC   C4A22892  24.047   5.781  16.899  0.1085  0.1979  0.1445
 1886POPC   C1B22893  24.150   5.675  15.642 -0.0563 -0.0147  0.1790
 1886POPC   C2B22894  24.024   5.332  15.946 -0.2047  0.1388 -0.0856
 1886POPC   C3B22895  23.718   5.152  16.180  0.3566 -0.2241 -0.1909
 1886POPC   C4B22896  23.469   4.906  16.552  0.2535 -0.2013 -0.1586
 1887POPC   NC322897   1.278  18.578  15.340 -0.0938 -0.0882 -0.1118
 1887POPC   PO422898   1.125  18.311  15.554  0.0822 -0.0763  0.0977
 1887POPC   GL122899   1.345  18.240  15.810  0.4084 -0.2728 -0.1981
 1887POPC   GL222900   1.474  18.005  15.812 -0.0657  0.3209  0.1456
 1887POPC   C1A22901   1.339  18.225  16.267  0.1507  0.0595 -0.3776
 1887POPC   D2A22902   1.251  18.329  16.699  0.1137  0.2010 -0.1527
 1887POPC   C3A22903   1.039  18.059  17.031 -0.1263 -0.2981  0.2573
 1887POPC   C4A22904   0.848  17.696  17.203  0.0561 -0.1013  0.2544
 1887POPC   C1B22905   1.836  18.033  16.096 -0.1269  0.0681  0.2174
 1887POPC   C2B22906   2.114  17.976  16.469  0.1559 -0.2108  0.1194
 1887POPC   C3B22907   2.342  17.634  16.697  0.0667  0.0601 -0.1065
 1887POPC   C4B22908   2.542  17.352  16.990 -0.1374  0.0835 -0.2640
 1888POPC   NC322909   5.781  27.810  15.085  0.0190 -0.0362  0.2028
 1888POPC   PO422910   5.555  27.621  15.329  0.1755 -0.1905  0.3252
 1888POPC   GL122911   5.632  27.637  15.667 -0.1670  0.1266  0.3889
 1888POPC   GL222912   5.475  27.402  15.811  0.0027 -0.0688 -0.1117
 1888POPC   C1A22913   5.714  27.969  16.006  0.1026 -0.2103  0.3300
 1888POPC   D2A22914   5.750  28.020  16.433 -0.0642 -0.0081 -0.3387
 1888POPC   C3A22915   5.878  27.762  16.821  0.1506 -0.0474 -0.1544
 1888POPC   C4A22916   5.878  27.472  17.200  0.3707 -0.2111  0.1029
 1888POPC   C1B22917   5.564  27.398  16.229 -0.0999 -0.1486 -0.0456
 1888POPC   C2B22918   5.550  27.381  16.619 -0.0150 -0.1503 -0.0089
 1888POPC   C3B22919   5.410  27.328  17.118 -0.0746  0.2795 -0.0974
 1888POPC   C4B22920   4.959  27.403  17.197  0.1308  0.1751  0.1828
 1889POPC   NC322921  16.900   5.733  14.917 -0.1390  0.3685 -0.1298
 1889POPC   PO422922  16.813   5.581  15.263 -0.0006 -0.0908 -0.1865
 1889POPC   GL122923  17.110   5.604  15.494 -0.1703 -0.3460 -0.0728
 1889POPC   GL222924  16.902   5.645  15.751 -0.1196 -0.3240 -0.1558
 1889POPC   C1A22925  17.276   5.316  15.830  0.0416 -0.0412 -0.1555
 1889POPC   D2A22926  17.297   5.083  16.220 -0.2308  0.1694  0.2120
 1889POPC   C3A22927  17.454   5.133  16.661  0.1206 -0.1170 -0.2203
 1889POPC   C4A22928  17.499   5.018  17.160 -0.1420 -0.0196 -0.1820
 1889POPC   C1B22929  16.984   5.485  16.188  0.1352  0.0723  0.0938
 1889POPC   C2B22930  17.003   5.315  16.613 -0.3801  0.2387  0.0772
 1889POPC   C3B22931  16.644   5.176  16.810  0.0894 -0.0953  0.2708
 1889POPC   C4B22932  16.466   5.259  17.238 -0.4024  0.1915 -0.1083
 1890POPC   NC322933  23.595  22.391  14.847  0.0171 -0.3003 -0.1159
 1890POPC   PO422934  23.570  21.996  14.948  0.1821 -0.1485  0.2151
 1890POPC   GL122935  23.401  22.148  15.273  0.0908 -0.0439 -0.1771
 1890POPC   GL222936  23.355  22.383  15.276  0.1971  0.0579 -0.0062
 1890POPC   C1A22937  23.416  22.045  15.703  0.0422 -0.2852 -0.0604
 1890POPC   D2A22938  23.378  22.184  16.101 -0.0556  0.0424 -0.1980
 1890POPC   C3A22939  23.396  21.856  16.454 -0.4357  0.0751  0.3904
 1890POPC   C4A22940  23.555  21.681  16.815 -0.0074 -0.0687  0.1566
 1890POPC   C1B22941  23.391  22.537  15.689  0.2040 -0.0015  0.0657
 1890POPC   C2B22942  23.371  22.739  16.038 -0.0934  0.0153 -0.0472
 1890POPC   C3B22943  23.452  22.543  16.416 -0.1436  0.1430 -0.1127
 1890POPC   C4B22944  23.338  22.208  16.761  0.0936  0.2404 -0.2569
 1891POPC   NC322945  10.120   9.005  15.391 -0.0772  0.3652  0.2259
 1891POPC   PO422946  10.317   9.071  15.774 -0.0181  0.3977 -0.1726
 1891POPC   GL122947  10.036   9.306  15.857  0.0972  0.3865 -0.2099
 1891POPC   GL222948  10.189   9.454  16.085  0.1523  0.0075 -0.2665
 1891POPC   C1A22949   9.674   9.580  16.034 -0.1093  0.0002  0.2158
 1891POPC   D2A22950   9.435   9.818  16.407 -0.0094 -0.0073  0.0506
 1891POPC   C3A22951   9.408  10.088  16.770 -0.2649 -0.0424  0.2280
 1891POPC   C4A22952   9.160  10.391  17.038  0.1007  0.0456  0.2218
 1891POPC   C1B22953  10.336   9.243  16.471  0.1392  0.1669 -0.1099
 1891POPC   C2B22954  10.588   9.008  16.797  0.0086 -0.0197 -0.1725
 1891POPC   C3B22955  10.808   9.072  17.205  0.0422 -0.1924 -0.0153
 1891POPC   C4B22956  10.767   9.343  17.606  0.0657 -0.1056  0.0543
 1892POPC   NC322957  27.299   1.797  15.340  0.0531  0.1962  0.0601
 1892POPC   PO422958  27.470   2.115  15.235  0.1738  0.3680 -0.2435
 1892POPC   GL122959  27.461   2.216  15.619  0.0052  0.1667 -0.0286
 1892POPC   GL222960  27.242   2.416  15.604 -0.0902 -0.0107  0.2092
 1892POPC   C1A22961  27.454   2.090  16.005 -0.0645 -0.2497  0.1691
 1892POPC   D2A22962  27.404   1.929  16.434  0.0166  0.3679 -0.0702
 1892POPC   C3A22963  27.304   2.181  16.821 -0.1751 -0.0391  0.1159
 1892POPC   C4A22964  27.448   2.272  17.256 -0.0049  0.1632  0.0062
 1892POPC   C1B22965  27.017   2.613  15.959 -0.1946  0.2013 -0.1215
 1892POPC   C2B22966  26.906   2.778  16.399 -0.1282 -0.0267  0.0755
 1892POPC   C3B22967  26.672   2.683  16.710  0.3203 -0.0310  0.0684
 1892POPC   C4B22968  26.588   2.411  17.124  0.2217 -0.1816  0.0523
 1893POPC   NC322969   8.982  24.448  15.331  0.3209  0.0860 -0.0877
 1893POPC   PO422970   9.345  24.465  15.225  0.0631  0.1229 -0.1573
 1893POPC   GL122971   9.225  24.829  15.280 -0.0417  0.0013  0.3018
 1893POPC   GL222972   9.361  24.856  15.517  0.0585  0.0571 -0.1793
 1893POPC   C1A22973   8.826  24.924  15.513 -0.0039 -0.0499  0.0735
 1893POPC   D2A22974   8.587  25.159  15.810 -0.0741  0.1381  0.1230
 1893POPC   C3A22975   8.857  25.214  16.225  0.1193  0.0252 -0.0560
 1893POPC   C4A22976   9.027  25.204  16.646  0.0422 -0.2603  0.1271
 1893POPC   C1B22977   9.154  24.946  15.938  0.1722 -0.2507 -0.1553
 1893POPC   C2B22978   9.076  24.801  16.325 -0.3838 -0.1564  0.1035
 1893POPC   C3B22979   8.840  24.697  16.775 -0.1431 -0.0739 -0.0033
 1893POPC   C4B22980   8.714  24.714  17.189  0.1931 -0.1057  0.0487
 1894POPC   NC322981  30.190   7.895  14.630 -0.2530 -0.1000  0.3053
 1894POPC   PO422982  30.250   7.572  14.834 -0.0005  0.4279  0.0874
 1894POPC   GL122983  30.379   7.554  15.222 -0.1731 -0.1476  0.0037
 1894POPC   GL222984  30.430   7.285  15.291  0.0750 -0.1096  0.1646
 1894POPC   C1A22985  30.072   7.452  15.557  0.0162 -0.3251 -0.2285
 1894POPC   D2A22986  29.869   7.244  15.874  0.0102  0.0639 -0.1438
 1894POPC   C3A22987  29.750   7.568  16.190  0.0852 -0.1584  0.0197
 1894POPC   C4A22988  29.567   7.500  16.620  0.0790  0.2039 -0.0140
 1894POPC   C1B22989  30.070   7.024  15.431 -0.2253  0.3623  0.0099
 1894POPC   C2B22990  29.754   6.790  15.714 -0.2267  0.1339  0.0297
 1894POPC   C3B22991  29.699   6.570  16.138  0.1350 -0.0428  0.0096
 1894POPC   C4B22992  29.423   6.742  16.471  0.4655  0.1797  0.2214
 1895POPC   NC322993   6.046   3.380  15.134 -0.1655  0.0929  0.0320
 1895POPC   PO422994   6.085   3.591  15.450 -0.0758  0.0979  0.0762
 1895POPC   GL122995   6.166   3.584  15.823  0.0769  0.0117 -0.3116
 1895POPC   GL222996   5.885   3.659  16.003  0.0792 -0.1417  0.1103
 1895POPC   C1A22997   6.292   3.803  16.245 -0.3267 -0.2324  0.0832
 1895POPC   D2A22998   6.631   3.924  16.559  0.2657  0.2462 -0.1036
 1895POPC   C3A22999   6.605   4.148  17.044 -0.2269  0.1462  0.0816
 1895POPC   C4A23000   7.027   4.332  17.233  0.2749 -0.0560  0.0377
 1895POPC   C1B23001   5.967   3.417  16.410 -0.0188  0.0499 -0.0072
 1895POPC   C2B23002   6.182   3.634  16.756  0.3906 -0.0605  0.1787
 1895POPC   C3B23003   6.588   3.641  16.941 -0.1361 -0.3238  0.0711
 1895POPC   C4B23004   6.975   3.463  16.726  0.0617 -0.1710  0.1158
 1896POPC   NC323005  24.402   9.338  15.219 -0.2179  0.0217 -0.1174
 1896POPC   PO423006  24.134   9.575  15.308  0.0557 -0.1245 -0.4115
 1896POPC   GL123007  24.308   9.887  15.536  0.0694  0.3311 -0.1807
 1896POPC   GL223008  24.167   9.836  15.713 -0.0793 -0.0561 -0.0616
 1896POPC   C1A23009  24.621   9.970  15.899 -0.0251  0.1899 -0.0246
 1896POPC   D2A23010  24.560  10.309  16.148 -0.0804 -0.2514  0.1652
 1896POPC   C3A23011  24.758  10.432  16.537  0.0835 -0.1711 -0.2136
 1896POPC   C4A23012  24.961  10.746  16.767 -0.4398 -0.3364 -0.0554
 1896POPC   C1B23013  24.382   9.537  15.954 -0.2515  0.0789  0.0165
 1896POPC   C2B23014  24.504   9.276  16.390 -0.1708  0.4328 -0.0302
 1896POPC   C3B23015  24.814   9.377  16.722  0.1175  0.0932 -0.1108
 1896POPC   C4B23016  24.883   9.238  17.129  0.3838  0.0490 -0.0887
 1897POPC   NC323017   0.817   2.037  14.992  0.0526  0.1358  0.2396
 1897POPC   PO423018   0.638   1.707  15.127  0.2128 -0.0558 -0.1165
 1897POPC   GL123019   0.795   1.731  15.444 -0.1292  0.1418 -0.1231
 1897POPC   GL223020   0.836   1.892  15.547  0.1269  0.1210  0.0192
 1897POPC   C1A23021   1.182   1.553  15.677 -0.2003 -0.1807  0.4214
 1897POPC   D2A23022   1.581   1.298  15.802 -0.1824  0.0356  0.1698
 1897POPC   C3A23023   1.964   1.366  16.005  0.1909 -0.0820  0.6501
 1897POPC   C4A23024   2.190   1.375  16.378 -0.1001  0.0715  0.1108
 1897POPC   C1B23025   1.057   2.308  15.443 -0.1479 -0.1141  0.2741
 1897POPC   C2B23026   1.317   2.679  15.602 -0.3793 -0.0828 -0.0477
 1897POPC   C3B23027   1.634   2.978  15.440  0.1248  0.0672  0.0199
 1897POPC   C4B23028   1.943   3.250  15.541 -0.0402  0.0503  0.0933
 1898POPC   NC323029   1.699  26.745  15.456 -0.2347  0.1037  0.0917
 1898POPC   PO423030   1.438  26.996  15.374 -0.1527  0.2015  0.0603
 1898POPC   GL123031   1.186  27.144  15.700  0.1485 -0.1080  0.1363
 1898POPC   GL223032   0.951  27.033  15.755 -0.0296  0.1296  0.4269
 1898POPC   C1A23033   1.193  27.154  16.152  0.1899  0.1410 -0.0410
 1898POPC   D2A23034   1.218  27.301  16.569  0.0069  0.1378 -0.2146
 1898POPC   C3A23035   0.991  27.265  16.998  0.2218 -0.0149  0.1015
 1898POPC   C4A23036   1.062  27.420  17.400 -0.1610  0.0164  0.0500
 1898POPC   C1B23037   0.571  26.922  16.081 -0.0056  0.1610  0.2512
 1898POPC   C2B23038   0.506  26.819  16.520  0.1913 -0.2598  0.2973
 1898POPC   C3B23039   0.510  26.438  16.788  0.0788  0.0989  0.2000
 1898POPC   C4B23040   0.313  26.107  16.984 -0.2453  0.0146 -0.0263
 1899POPC   NC323041   4.597  12.886  15.286 -0.0508 -0.2908 -0.4106
 1899POPC   PO423042   4.439  13.205  15.208 -0.1898 -0.1800 -0.0610
 1899POPC   GL123043   4.532  13.363  15.519 -0.0238 -0.0771 -0.2975
 1899POPC   GL223044   4.502  13.619  15.576  0.4352  0.0060 -0.2815
 1899POPC   C1A23045   4.449  13.427  15.993 -0.0054 -0.2393  0.1750
 1899POPC   D2A23046   4.644  13.304  16.408  0.1237  0.0323  0.1602
 1899POPC   C3A23047   5.006  13.123  16.648  0.1078  0.1042  0.0658
 1899POPC   C4A23048   5.195  12.910  17.019  0.2573  0.0697 -0.0881
 1899POPC   C1B23049   4.063  13.612  15.727 -0.2801 -0.3476 -0.4173
 1899POPC   C2B23050   4.075  13.739  16.154 -0.1960  0.2464  0.2841
 1899POPC   C3B23051   4.329  13.627  16.529  0.1954  0.1609 -0.0284
 1899POPC   C4B23052   4.487  13.408  16.858  0.1170 -0.0861 -0.1533
 1900POPC   NC323053   2.010   0.556  14.754 -0.0580  0.0096  0.1243
 1900POPC   PO423054   2.186   0.889  14.894  0.0501 -0.0382  0.0712
 1900POPC   GL123055   2.163   0.908  15.275 -0.0721 -0.2249  0.0369
 1900POPC   GL223056   1.866   0.949  15.349 -0.5363 -0.2159 -0.3181
 1900POPC   C1A23057   2.450   0.695  15.585  0.1264 -0.2070  0.1619
 1900POPC   D2A23058   2.780   0.550  15.847  0.2358 -0.0832  0.0928
 1900POPC   C3A23059   2.731   0.394  16.264  0.0479  0.0904  0.0146
 1900POPC   C4A23060   3.062   0.130  16.563 -0.0194 -0.0105  0.2787
 1900POPC   C1B23061   2.077   0.982  15.734 -0.1948  0.0305 -0.1592
 1900POPC   C2B23062   2.313   0.822  16.124 -0.0837 -0.2816  0.0713
 1900POPC   C3B23063   2.451   0.712  16.535 -0.3182 -0.0411 -0.1381
 1900POPC   C4B23064   2.509   0.742  16.958  0.2012  0.1382 -0.0318
 1901POPC   NC323065   6.954  12.546  14.853  0.0797 -0.0756  0.2012
 1901POPC   PO423066   6.727  12.274  14.912  0.3182 -0.4798  0.1027
 1901POPC   GL123067   6.824  12.292  15.322  0.1883  0.1632  0.0906
 1901POPC   GL223068   6.574  12.169  15.367 -0.2963 -0.0579 -0.0602
 1901POPC   C1A23069   6.892  12.356  15.788  0.0599 -0.1760  0.0072
 1901POPC   D2A23070   6.554  12.395  16.140 -0.1031  0.1139 -0.1444
 1901POPC   C3A23071   6.205  12.658  15.935  0.2055  0.0125 -0.0687
 1901POPC   C4A23072   6.107  13.023  15.656  0.0589  0.0228 -0.0826
 1901POPC   C1B23073   6.468  12.033  15.807  0.0498 -0.2335  0.1835
 1901POPC   C2B23074   6.106  11.931  15.982  0.0748 -0.2960 -0.3071
 1901POPC   C3B23075   6.039  11.565  16.217 -0.2449  0.0985  0.2153
 1901POPC   C4B23076   6.089  11.292  16.619  0.1102  0.0338 -0.1842
 1902POPC   NC323077  12.077  28.797  15.424 -0.1366  0.1877 -0.2470
 1902POPC   PO423078  12.408  28.612  15.606 -0.0563  0.0466  0.0546
 1902POPC   GL123079  12.243  28.576  15.997  0.1551 -0.1091 -0.4586
 1902POPC   GL223080  11.987  28.442  16.031 -0.0692  0.0857 -0.1393
 1902POPC   C1A23081  12.335  28.353  16.400  0.1483  0.1616 -0.1104
 1902POPC   D2A23082  12.139  28.340  16.798  0.1022 -0.1584  0.1223
 1902POPC   C3A23083  12.332  28.458  17.189 -0.3248 -0.1376 -0.2634
 1902POPC   C4A23084  12.375  28.368  17.660  0.0369  0.1881 -0.1388
 1902POPC   C1B23085  11.811  28.527  16.424 -0.0851  0.1462 -0.3706
 1902POPC   C2B23086  11.533  28.743  16.738 -0.5036 -0.0019  0.0039
 1902POPC   C3B23087  11.249  28.721  17.109  0.1918  0.0734 -0.0838
 1902POPC   C4B23088  10.957  28.704  17.465 -0.0771  0.0634  0.1686
 1903POPC   NC323089   2.883  11.734  15.095 -0.1665 -0.0579  0.2938
 1903POPC   PO423090   3.233  11.752  15.034 -0.1015  0.2266 -0.1500
 1903POPC   GL123091   3.269  11.705  15.440  0.0406 -0.5402  0.1365
 1903POPC   GL223092   3.583  11.643  15.555  0.2668  0.2299  0.0993
 1903POPC   C1A23093   3.153  11.954  15.793  0.2460 -0.1238  0.4226
 1903POPC   D2A23094   3.239  12.098  16.244  0.1061  0.1398 -0.2831
 1903POPC   C3A23095   3.150  12.339  16.656  0.1354  0.1734  0.0144
 1903POPC   C4A23096   2.875  12.379  17.005 -0.0673 -0.1330  0.0737
 1903POPC   C1B23097   3.547  11.732  16.004 -0.0462  0.0287 -0.0742
 1903POPC   C2B23098   3.562  11.777  16.454 -0.1889 -0.0994  0.0955
 1903POPC   C3B23099   3.487  11.894  16.918  0.0580  0.1696  0.2356
 1903POPC   C4B23100   3.226  12.099  17.259 -0.0810 -0.3126 -0.0756
 1904POPC   NC323101  31.327  10.136  15.021  0.2324 -0.0401 -0.0070
 1904POPC   PO423102  31.319   9.742  15.070  0.1984 -0.0023 -0.1561
 1904POPC   GL123103  31.119   9.845  15.351 -0.2336 -0.0148  0.2615
 1904POPC   GL223104  31.317  10.050  15.517  0.2505 -0.3872 -0.5671
 1904POPC   C1A23105  31.066   9.532  15.703  0.0451  0.0603 -0.0845
 1904POPC   D2A23106  31.036   9.544  16.132 -0.1237 -0.3051  0.0071
 1904POPC   C3A23107  30.840   9.823  16.399 -0.1053 -0.3898  0.0068
 1904POPC   C4A23108  30.490  10.036  16.614  0.1817 -0.0616  0.0225
 1904POPC   C1B23109  31.212  10.175  15.986  0.2089 -0.1767 -0.2407
 1904POPC   C2B23110  31.207  10.161  16.459  0.3121 -0.1261  0.0772
 1904POPC   C3B23111  31.199   9.928  16.797  0.0771 -0.0862  0.1856
 1904POPC   C4B23112  31.077   9.490  16.815  0.0112  0.0447 -0.0467
 1905POPC   NC323113  21.752   6.454  15.249  0.4228  0.2484 -0.1196
 1905POPC   PO423114  22.094   6.576  15.046 -0.1150  0.3105  0.0403
 1905POPC   GL123115  22.291   6.285  15.347 -0.1460 -0.3658 -0.2001
 1905POPC   GL223116  21.990   6.076  15.466 -0.1912  0.0731  0.1059
 1905POPC   C1A23117  22.497   6.036  15.692 -0.0318 -0.0175 -0.1320
 1905POPC   D2A23118  22.716   5.628  15.730  0.1752 -0.0587  0.4669
 1905POPC   C3A23119  22.847   5.319  16.081 -0.2992  0.3841 -0.3233
 1905POPC   C4A23120  22.982   5.087  16.494  0.2279  0.2102  0.0271
 1905POPC   C1B23121  21.880   6.335  15.843  0.3062  0.0037 -0.3311
 1905POPC   C2B23122  21.589   6.197  16.207 -0.2648 -0.3440  0.2658
 1905POPC   C3B23123  21.322   6.039  16.562  0.1826 -0.1475 -0.0034
 1905POPC   C4B23124  21.096   5.837  16.939 -0.0076  0.4359 -0.0214
 1906POPC   NC323125  25.627  29.488  14.998 -0.0261 -0.1727  0.0827
 1906POPC   PO423126  25.416  29.208  15.140  0.1685  0.2340 -0.1007
 1906POPC   GL123127  25.667  29.275  15.500 -0.0514 -0.0036  0.2663
 1906POPC   GL223128  25.747  29.584  15.482 -0.0946  0.4401  0.0247
 1906POPC   C1A23129  25.451  29.243  15.921  0.1169  0.0358  0.2837
 1906POPC   D2A23130  25.404  29.313  16.420  0.2101  0.2211  0.2751
 1906POPC   C3A23131  25.235  29.146  16.776  0.0114  0.3702 -0.0422
 1906POPC   C4A23132  24.911  29.160  17.066  0.2943 -0.0600 -0.0242
 1906POPC   C1B23133  25.845  29.563  15.903  0.0998 -0.1991  0.0119
 1906POPC   C2B23134  25.871  29.469  16.370 -0.0808 -0.1589 -0.0140
 1906POPC   C3B23135  26.233  29.333  16.750  0.0432  0.2466 -0.0283
 1906POPC   C4B23136  26.459  29.332  17.221  0.1131 -0.4458  0.1725
 1907POPC   NC323137  18.094   1.265  15.834 -0.3344  0.1264 -0.2932
 1907POPC   PO423138  18.437   1.373  15.608  0.1363 -0.0977 -0.0872
 1907POPC   GL123139  18.496   1.552  15.999  0.2033 -0.1496 -0.0152
 1907POPC   GL223140  18.466   1.845  15.993 -0.1908 -0.0722 -0.0279
 1907POPC   C1A23141  18.364   1.416  16.433 -0.1858 -0.0667 -0.2801
 1907POPC   D2A23142  17.974   1.369  16.717 -0.2124 -0.1222 -0.0037
 1907POPC   C3A23143  17.650   1.427  16.982 -0.1814  0.0332  0.1656
 1907POPC   C4A23144  17.235   1.240  16.927 -0.0876  0.0584  0.0146
 1907POPC   C1B23145  18.599   2.058  16.396 -0.0366 -0.2227  0.2238
 1907POPC   C2B23146  18.535   2.451  16.655  0.0361  0.3592  0.0668
 1907POPC   C3B23147  18.582   2.933  16.804  0.1034  0.1648 -0.1489
 1907POPC   C4B23148  18.358   2.971  17.181  0.2380 -0.0140  0.2122
 1908POPC   NC323149   9.141  12.755  15.279 -0.2931 -0.3642  0.3157
 1908POPC   PO423150   8.874  12.505  15.189 -0.0566  0.1106  0.0315
 1908POPC   GL123151   8.696  12.431  15.523  0.0122 -0.1333  0.1041
 1908POPC   GL223152   8.793  12.203  15.727 -0.0271  0.0347  0.1106
 1908POPC   C1A23153   8.635  12.607  15.986 -0.5157  0.1042 -0.0352
 1908POPC   D2A23154   8.671  12.608  16.451 -0.3802 -0.2841  0.1074
 1908POPC   C3A23155   8.736  12.549  16.909  0.6610  0.0654  0.0319
 1908POPC   C4A23156   8.941  12.340  17.228 -0.0391 -0.2299 -0.1573
 1908POPC   C1B23157   9.072  11.912  15.911 -0.0952 -0.2553 -0.2661
 1908POPC   C2B23158   9.358  11.735  16.262 -0.0734 -0.0403  0.1969
 1908POPC   C3B23159   9.766  11.572  16.310  0.1836 -0.1747 -0.1061
 1908POPC   C4B23160  10.049  11.246  16.152  0.1851 -0.1602 -0.2088
 1909POPC   NC323161  10.738  15.971  14.757 -0.0926  0.0576 -0.2633
 1909POPC   PO423162  10.609  15.781  15.119  0.3493  0.0380 -0.1277
 1909POPC   GL123163  10.893  15.843  15.399 -0.1931 -0.2391 -0.2164
 1909POPC   GL223164  11.095  16.063  15.320 -0.1917 -0.0858 -0.2388
 1909POPC   C1A23165  10.878  16.122  15.762 -0.2432  0.0769 -0.0179
 1909POPC   D2A23166  10.795  16.537  15.993  0.0610 -0.1925 -0.1742
 1909POPC   C3A23167  10.947  16.564  16.438  0.2067 -0.2191 -0.2603
 1909POPC   C4A23168  10.905  16.603  16.904  0.0552  0.2537 -0.3119
 1909POPC   C1B23169  11.466  16.092  15.626 -0.1585 -0.1544  0.1375
 1909POPC   C2B23170  11.635  16.215  16.106 -0.4262 -0.4672  0.2920
 1909POPC   C3B23171  11.753  16.136  16.564  0.2827  0.2972  0.3220
 1909POPC   C4B23172  12.002  16.147  16.942 -0.4626  0.0888  0.1067
 1910POPC   NC323173  10.933  13.743  14.728  0.3054  0.1122  0.0748
 1910POPC   PO423174  10.883  13.698  15.109 -0.0046 -0.3901 -0.1231
 1910POPC   GL123175  10.763  13.712  15.449 -0.3620  0.1046  0.0151
 1910POPC   GL223176  10.816  13.456  15.600  0.2168 -0.1719 -0.0007
 1910POPC   C1A23177  10.735  13.898  15.928  0.4694  0.1493 -0.1491
 1910POPC   D2A23178  10.811  14.213  16.205 -0.1915  0.0951  0.2035
 1910POPC   C3A23179  10.842  14.169  16.683 -0.0959 -0.1140  0.0204
 1910POPC   C4A23180  10.817  13.978  17.120 -0.1435 -0.0567  0.1675
 1910POPC   C1B23181  10.993  13.329  15.951 -0.2190 -0.0763 -0.0787
 1910POPC   C2B23182  11.363  13.380  16.229 -0.0810  0.3002  0.0924
 1910POPC   C3B23183  11.598  13.665  16.546  0.2765  0.0451  0.0226
 1910POPC   C4B23184  11.598  13.790  16.997 -0.1423 -0.0275 -0.0229
 1911POPC   NC323185   6.119  14.964  15.400 -0.0369 -0.1440  0.2986
 1911POPC   PO423186   6.143  15.394  15.465 -0.2369  0.1119 -0.3442
 1911POPC   GL123187   6.257  15.415  15.850 -0.1510 -0.0227 -0.1756
 1911POPC   GL223188   6.448  15.213  15.880  0.2308 -0.4612  0.1003
 1911POPC   C1A23189   6.540  15.581  16.195  0.1374  0.1465  0.0502
 1911POPC   D2A23190   6.864  15.818  16.399 -0.0967  0.1058 -0.2283
 1911POPC   C3A23191   7.024  16.253  16.213 -0.2492 -0.0478 -0.1316
 1911POPC   C4A23192   6.780  16.605  16.117  0.1946 -0.0176 -0.0334
 1911POPC   C1B23193   6.526  15.025  16.321  0.2723  0.1568  0.1309
 1911POPC   C2B23194   6.721  14.835  16.686 -0.0243  0.3432 -0.1187
 1911POPC   C3B23195   6.613  14.763  17.086 -0.1865 -0.0107 -0.0038
 1911POPC   C4B23196   6.428  14.525  17.504  0.2943 -0.0961  0.2290
 1912POPC   NC323197  25.254  10.905  14.482 -0.0897  0.0735  0.1949
 1912POPC   PO423198  25.204  10.586  14.753  0.0906 -0.1992  0.1508
 1912POPC   GL123199  25.528  10.577  15.031 -0.0908  0.0338 -0.1560
 1912POPC   GL223200  25.531  10.482  15.330 -0.0042  0.1046  0.0322
 1912POPC   C1A23201  25.702  10.961  14.978  0.1302  0.0509  0.1714
 1912POPC   D2A23202  26.115  11.223  15.049  0.1170  0.1266  0.1347
 1912POPC   C3A23203  26.273  11.608  15.151  0.0312  0.1481  0.0141
 1912POPC   C4A23204  26.104  11.953  15.407 -0.0575 -0.2714  0.1905
 1912POPC   C1B23205  25.537  10.412  15.780  0.0312  0.5774  0.3657
 1912POPC   C2B23206  25.625  10.342  16.252  0.0663 -0.0394  0.0859
 1912POPC   C3B23207  25.672   9.930  16.442 -0.4467 -0.1780  0.1917
 1912POPC   C4B23208  25.582   9.489  16.393 -0.0381  0.0540  0.1122
 1913POPC   NC323209  28.522  18.239  14.863  0.0938  0.1501  0.1314
 1913POPC   PO423210  28.352  17.928  14.786  0.0383  0.1948  0.0582
 1913POPC   GL123211  28.265  17.938  15.182 -0.2439 -0.2519 -0.4608
 1913POPC   GL223212  28.227  18.240  15.289 -0.1169 -0.0269  0.0426
 1913POPC   C1A23213  28.117  17.838  15.604  0.0409  0.0995 -0.0499
 1913POPC   D2A23214  28.019  17.919  16.044 -0.0510  0.1350 -0.1633
 1913POPC   C3A23215  27.998  17.924  16.522  0.2491 -0.1130 -0.0370
 1913POPC   C4A23216  28.008  17.732  16.856  0.0074  0.0453  0.2839
 1913POPC   C1B23217  28.274  18.623  15.531  0.4079  0.0316 -0.0336
 1913POPC   C2B23218  28.393  18.737  15.960 -0.0166  0.0130 -0.1850
 1913POPC   C3B23219  28.311  19.168  16.165 -0.1008 -0.4681  0.2635
 1913POPC   C4B23220  28.462  19.296  16.526  0.2046 -0.1739  0.0247
 1914POPC   NC323221  22.498  11.302  15.381 -0.1685 -0.2647 -0.2528
 1914POPC   PO423222  22.856  11.204  15.518 -0.5007 -0.2627 -0.0956
 1914POPC   GL123223  22.979  11.260  15.878  0.6174  0.1453 -0.0210
 1914POPC   GL223224  23.060  11.447  15.988 -0.0764  0.1577 -0.0785
 1914POPC   C1A23225  23.252  11.042  16.157  0.0710  0.1210  0.1070
 1914POPC   D2A23226  23.205  10.892  16.532 -0.1601  0.0224 -0.3986
 1914POPC   C3A23227  23.292  11.018  16.973  0.2051 -0.1815 -0.0088
 1914POPC   C4A23228  23.149  10.864  17.401 -0.2327 -0.1961 -0.0576
 1914POPC   C1B23229  23.106  11.369  16.445 -0.0627 -0.2210  0.0539
 1914POPC   C2B23230  23.077  11.541  16.880  0.1806  0.1061  0.1742
 1914POPC   C3B23231  22.906  11.898  17.184  0.2595 -0.2450 -0.2656
 1914POPC   C4B23232  22.675  12.210  17.509  0.1059 -0.0974 -0.1707
 1915POPC   NC323233  16.651  10.012  14.907 -0.2272  0.3068  0.0781
 1915POPC   PO423234  16.710   9.795  15.243  0.0740  0.2224  0.1366
 1915POPC   GL123235  16.678   9.748  15.506  0.3350 -0.0699 -0.1543
 1915POPC   GL223236  16.915   9.576  15.671  0.0515  0.0295  0.0773
 1915POPC   C1A23237  16.274   9.717  15.780 -0.1734  0.1299  0.2006
 1915POPC   D2A23238  15.842   9.744  15.975 -0.4261  0.0340 -0.1579
 1915POPC   C3A23239  15.833  10.156  16.276 -0.0661 -0.0301 -0.2104
 1915POPC   C4A23240  16.053  10.361  16.634  0.1442  0.0412 -0.2065
 1915POPC   C1B23241  16.606   9.497  16.013 -0.2118  0.2141 -0.1868
 1915POPC   C2B23242  16.248   9.618  16.303  0.3357 -0.0201 -0.1463
 1915POPC   C3B23243  15.960   9.849  16.629 -0.1678 -0.1769 -0.0034
 1915POPC   C4B23244  15.623  10.154  16.726  0.0542  0.0889 -0.2625
 1916POPC   NC323245  13.788  27.191  15.520  0.0045 -0.1036  0.0998
 1916POPC   PO423246  13.805  27.561  15.572 -0.3197  0.1550  0.0431
 1916POPC   GL123247  13.681  27.552  15.953 -0.2137  0.0751 -0.2362
 1916POPC   GL223248  13.690  27.318  16.054 -0.0005  0.0773  0.0979
 1916POPC   C1A23249  13.459  27.644  16.357 -0.3090 -0.0029 -0.0172
 1916POPC   D2A23250  13.507  27.640  16.846  0.3852  0.0251 -0.2094
 1916POPC   C3A23251  13.094  27.612  17.053  0.0312  0.2286  0.4648
 1916POPC   C4A23252  12.944  27.562  17.514  0.0168  0.1682  0.0091
 1916POPC   C1B23253  13.590  27.160  16.533  0.0720 -0.0741 -0.0639
 1916POPC   C2B23254  13.431  27.179  16.979  0.0696  0.0886  0.0921
 1916POPC   C3B23255  13.499  27.383  17.384 -0.0421  0.0297  0.0002
 1916POPC   C4B23256  13.669  27.627  17.704  0.2891  0.1500  0.1143
 1917POPC   NC323257  13.994  22.426  14.981  0.3714 -0.1356  0.0407
 1917POPC   PO423258  14.269  22.739  15.024  0.1650 -0.1893  0.2322
 1917POPC   GL123259  14.401  22.820  15.374 -0.0791  0.0050 -0.1604
 1917POPC   GL223260  14.258  22.573  15.490 -0.1965  0.1126 -0.0690
 1917POPC   C1A23261  14.332  23.033  15.804  0.0794 -0.2770  0.0453
 1917POPC   D2A23262  14.534  22.819  16.148  0.3705 -0.0914 -0.3063
 1917POPC   C3A23263  14.270  22.844  16.512  0.2950  0.0161 -0.3170
 1917POPC   C4A23264  13.921  23.050  16.801  0.0210  0.2370  0.1216
 1917POPC   C1B23265  13.942  22.625  15.899 -0.1453 -0.0507 -0.0222
 1917POPC   C2B23266  13.796  22.708  16.318  0.1580 -0.2661 -0.0223
 1917POPC   C3B23267  13.565  22.734  16.742 -0.1416 -0.1491  0.2867
 1917POPC   C4B23268  13.569  22.722  17.224  0.0078 -0.3546  0.4595
 1918POPC   NC323269   2.259  22.212  15.084 -0.0293  0.0493 -0.1967
 1918POPC   PO423270   2.157  21.851  15.115  0.0565 -0.1157  0.2161
 1918POPC   GL123271   1.952  21.705  15.400 -0.2027 -0.1935 -0.1907
 1918POPC   GL223272   2.010  21.988  15.558 -0.0438  0.0020  0.0873
 1918POPC   C1A23273   2.102  21.476  15.752 -0.0492 -0.2307  0.0238
 1918POPC   D2A23274   2.331  21.231  16.100 -0.1029  0.0373 -0.3169
 1918POPC   C3A23275   2.222  21.214  16.543 -0.3032  0.1489  0.2159
 1918POPC   C4A23276   2.142  20.980  16.940  0.0144 -0.0038 -0.0094
 1918POPC   C1B23277   1.774  21.869  16.014 -0.2090  0.0495  0.3948
 1918POPC   C2B23278   1.722  21.880  16.490  0.2537  0.2930 -0.2223
 1918POPC   C3B23279   1.495  21.860  16.910  0.0754 -0.1573 -0.0294
 1918POPC   C4B23280   1.175  22.124  17.087 -0.1550  0.2401  0.0338
 1919POPC   NC323281  24.784  15.400  15.109 -0.0127  0.2368  0.2697
 1919POPC   PO423282  24.899  15.390  15.480 -0.0560 -0.0384  0.0354
 1919POPC   GL123283  24.849  15.166  15.807  0.4819  0.1895 -0.2529
 1919POPC   GL223284  24.571  15.061  15.919 -0.1300  0.0827  0.1034
 1919POPC   C1A23285  25.130  14.873  16.059  0.0211  0.1352  0.0595
 1919POPC   D2A23286  25.426  14.890  16.452  0.1913 -0.1117 -0.2787
 1919POPC   C3A23287  25.379  15.174  16.838 -0.2929 -0.0961 -0.1230
 1919POPC   C4A23288  25.530  15.407  17.204 -0.2250  0.1903  0.2454
 1919POPC   C1B23289  24.223  15.037  16.267  0.1372  0.0573 -0.0351
 1919POPC   C2B23290  23.946  14.963  16.671 -0.0309  0.0333 -0.1055
 1919POPC   C3B23291  23.793  15.296  16.921 -0.2174 -0.4378 -0.1808
 1919POPC   C4B23292  23.728  15.721  17.134  0.0151  0.2207 -0.1531
 1920POPC   NC323293   0.437  26.773  15.559  0.1394  0.1928 -0.1936
 1920POPC   PO423294   0.092  26.733  15.352  0.0851  0.1383  0.0440
 1920POPC   GL123295   0.041  26.397  15.601 -0.0085 -0.1681  0.3122
 1920POPC   GL223296  -0.087  26.619  15.798 -0.0962 -0.1336 -0.1303
 1920POPC   C1A23297   0.161  25.993  15.868 -0.1040 -0.1139 -0.1262
 1920POPC   D2A23298   0.574  25.917  16.076  0.1593 -0.2807  0.1070
 1920POPC   C3A23299   0.595  25.857  16.574  0.1276  0.0153  0.2328
 1920POPC   C4A23300   0.913  26.097  16.872 -0.0951  0.1271 -0.3308
 1920POPC   C1B23301  -0.309  26.678  16.227  0.1588 -0.0614  0.0670
 1920POPC   C2B23302  -0.636  26.323  16.176 -0.1328 -0.3145  0.0681
 1920POPC   C3B23303  -0.788  25.898  16.284  0.1263 -0.2496 -0.5638
 1920POPC   C4B23304  -1.036  25.720  16.613  0.1445 -0.1039  0.2581
 1921POPC   NC323305   7.406  21.550  15.700 -0.0345  0.2570 -0.0460
 1921POPC   PO423306   7.051  21.705  15.775 -0.0147 -0.0910  0.1207
 1921POPC   GL123307   7.122  21.806  16.112  0.0246  0.3091  0.3207
 1921POPC   GL223308   7.294  21.663  16.241  0.2062  0.1923  0.0754
 1921POPC   C1A23309   6.885  21.927  16.469 -0.0415 -0.0174  0.0008
 1921POPC   D2A23310   6.856  22.102  16.918  0.0940  0.0565  0.0804
 1921POPC   C3A23311   6.796  22.177  17.358  0.0916  0.1478  0.1363
 1921POPC   C4A23312   6.924  22.503  17.668  0.1245 -0.0072 -0.0951
 1921POPC   C1B23313   7.397  21.716  16.654 -0.2770 -0.0315 -0.2366
 1921POPC   C2B23314   7.347  21.953  17.092 -0.0373 -0.0776  0.0754
 1921POPC   C3B23315   7.304  22.213  17.436 -0.0526  0.1126 -0.1587
 1921POPC   C4B23316   7.065  22.045  17.804 -0.2136 -0.0946 -0.2343
 1922POPC   NC323317  17.621  22.137  14.719 -0.0453 -0.1070 -0.0322
 1922POPC   PO423318  17.948  21.987  14.881 -0.3156  0.3719 -0.0961
 1922POPC   GL123319  17.984  21.963  15.260 -0.2179  0.0667  0.0038
 1922POPC   GL223320  18.039  22.307  15.315 -0.1574 -0.0798 -0.2016
 1922POPC   C1A23321  17.905  21.569  15.537  0.1296  0.0870  0.1270
 1922POPC   D2A23322  17.757  21.435  15.925  0.1162  0.0550 -0.1746
 1922POPC   C3A23323  17.843  21.432  16.401 -0.2396  0.2061 -0.2880
 1922POPC   C4A23324  17.646  21.702  16.775  0.0741 -0.0820  0.1354
 1922POPC   C1B23325  17.654  22.466  15.501 -0.2212  0.2470  0.1826
 1922POPC   C2B23326  17.414  22.283  15.873  0.0581  0.1664 -0.1990
 1922POPC   C3B23327  17.171  22.029  16.229 -0.1367  0.1533  0.3265
 1922POPC   C4B23328  16.941  22.173  16.531 -0.0544  0.0903 -0.3118
 1923POPC   NC323329  10.388  18.096  15.575  0.3047 -0.0312  0.3922
 1923POPC   PO423330  10.134  18.333  15.349 -0.3695  0.2193  0.1414
 1923POPC   GL123331  10.330  18.508  15.730  0.0247 -0.0127  0.1252
 1923POPC   GL223332  10.174  18.336  15.981  0.2275  0.0052 -0.2162
 1923POPC   C1A23333  10.789  18.478  15.912 -0.0883  0.1784 -0.0128
 1923POPC   D2A23334  11.253  18.485  15.921  0.3010  0.2724 -0.0657
 1923POPC   C3A23335  11.477  18.297  16.303  0.2074 -0.1839 -0.2075
 1923POPC   C4A23336  11.781  17.910  16.431  0.0943 -0.0829  0.0675
 1923POPC   C1B23337  10.048  18.215  16.436 -0.2858 -0.2461  0.0674
 1923POPC   C2B23338   9.835  17.919  16.710 -0.2224  0.2899 -0.0804
 1923POPC   C3B23339   9.670  17.530  16.944  0.1861 -0.0099 -0.3158
 1923POPC   C4B23340   9.460  17.143  17.092 -0.0002 -0.4018  0.3148
 1924POPC   NC323341  17.025   7.669  15.285  0.1960  0.3209  0.1147
 1924POPC   PO423342  16.651   7.588  15.432 -0.0851  0.2061  0.0944
 1924POPC   GL123343  16.859   7.744  15.687  0.0497  0.0166 -0.2067
 1924POPC   GL223344  17.061   7.988  15.711 -0.2603  0.2008 -0.1924
 1924POPC   C1A23345  17.036   7.652  16.127 -0.0859  0.1042  0.2116
 1924POPC   D2A23346  16.968   7.378  16.493 -0.0937 -0.2012 -0.0902
 1924POPC   C3A23347  16.670   7.180  16.784 -0.0092  0.2433 -0.1385
 1924POPC   C4A23348  16.430   7.166  17.154 -0.0224 -0.0306 -0.4115
 1924POPC   C1B23349  16.711   8.033  15.962 -0.0269 -0.1069 -0.2221
 1924POPC   C2B23350  16.569   7.800  16.324  0.0346 -0.4040  0.2165
 1924POPC   C3B23351  16.669   7.663  16.744  0.1485 -0.0223 -0.2816
 1924POPC   C4B23352  16.730   7.548  17.200  0.1247 -0.1501 -0.2566
 1925POPC   NC323353  22.656  30.019  15.507  0.0651  0.1616  0.0683
 1925POPC   PO423354  22.862  30.315  15.379  0.1250  0.1011  0.1664
 1925POPC   GL123355  22.957  30.576  15.709  0.3114 -0.1473 -0.1403
 1925POPC   GL223356  23.029  30.844  15.520  0.1175 -0.2911 -0.1479
 1925POPC   C1A23357  22.601  30.774  15.951  0.2151 -0.2109 -0.1945
 1925POPC   D2A23358  22.331  30.729  16.299 -0.0266 -0.2713  0.0204
 1925POPC   C3A23359  22.441  30.545  16.687 -0.0551 -0.1689  0.0406
 1925POPC   C4A23360  22.733  30.383  16.987  0.0943  0.2396  0.2694
 1925POPC   C1B23361  23.325  31.013  15.892 -0.3185  0.3099  0.0653
 1925POPC   C2B23362  23.686  31.115  16.171 -0.1442  0.0457 -0.0582
 1925POPC   C3B23363  23.723  31.348  16.545 -0.2502 -0.0049 -0.1592
 1925POPC   C4B23364  23.724  31.162  16.990  0.2346  0.0201  0.2325
 1926POPC   NC323365   7.848  15.185  15.675 -0.2796 -0.0610 -0.1724
 1926POPC   PO423366   7.651  15.433  15.968  0.0112  0.0089 -0.1087
 1926POPC   GL123367   7.569  15.362  16.265  0.2118 -0.2956 -0.1219
 1926POPC   GL223368   7.574  15.105  16.349 -0.2476 -0.0091 -0.0292
 1926POPC   C1A23369   7.336  15.624  16.631 -0.0254 -0.0893 -0.2213
 1926POPC   D2A23370   7.154  15.445  17.040 -0.3603 -0.1137  0.3327
 1926POPC   C3A23371   7.511  15.176  17.218 -0.1313 -0.0288  0.2739
 1926POPC   C4A23372   7.925  15.277  17.438  0.0302 -0.3144 -0.2485
 1926POPC   C1B23373   7.784  15.191  16.752  0.0339 -0.3988  0.0171
 1926POPC   C2B23374   7.745  15.586  17.051  0.0242 -0.1594 -0.2730
 1926POPC   C3B23375   7.559  15.619  17.470  0.0512 -0.0645  0.0384
 1926POPC   C4B23376   7.572  15.803  17.919  0.2361  0.0879  0.1838
 1927POPC   NC323377  24.549  22.807  14.863 -0.1732  0.0506 -0.1070
 1927POPC   PO423378  24.874  22.577  14.904 -0.0719 -0.1378  0.3557
 1927POPC   GL123379  24.817  22.434  15.204  0.0434  0.3913  0.2444
 1927POPC   GL223380  24.564  22.218  15.140 -0.1347 -0.1955  0.4523
 1927POPC   C1A23381  24.669  22.638  15.566  0.1835 -0.1268 -0.1600
 1927POPC   D2A23382  24.456  22.792  15.995  0.2402 -0.1599  0.0556
 1927POPC   C3A23383  24.180  22.751  16.369  0.0117  0.3575 -0.2351
 1927POPC   C4A23384  24.207  22.637  16.808 -0.4654 -0.2038  0.1893
 1927POPC   C1B23385  24.214  22.514  15.253  0.0631 -0.2873 -0.2439
 1927POPC   C2B23386  23.763  22.715  15.308 -0.1938 -0.0288  0.1343
 1927POPC   C3B23387  23.580  23.014  15.643  0.0975  0.0548  0.1950
 1927POPC   C4B23388  23.694  23.432  15.742  0.1542  0.2501 -0.0635
 1928POPC   NC323389   4.054  11.512  15.479  0.1936  0.0556 -0.2734
 1928POPC   PO423390   4.409  11.373  15.417 -0.1847  0.0058 -0.1739
 1928POPC   GL123391   4.350  11.416  15.780 -0.1279  0.0383  0.2298
 1928POPC   GL223392   4.535  11.607  15.840 -0.0730  0.2317 -0.0645
 1928POPC   C1A23393   4.121  11.460  16.231  0.1439  0.1382 -0.0310
 1928POPC   D2A23394   4.181  11.348  16.691  0.1081  0.1652  0.1455
 1928POPC   C3A23395   4.491  11.656  16.746  0.0584 -0.0627 -0.0814
 1928POPC   C4A23396   4.955  11.759  16.921 -0.2985 -0.3291 -0.1320
 1928POPC   C1B23397   4.796  11.453  16.175 -0.1016 -0.4195 -0.3375
 1928POPC   C2B23398   5.074  11.343  16.500  0.0956  0.0606  0.0991
 1928POPC   C3B23399   5.358  11.097  16.766  0.0586 -0.2181 -0.1193
 1928POPC   C4B23400   5.747  11.164  16.970 -0.0015 -0.1270  0.5010
 1929POPC   NC323401  23.842   8.756  15.295 -0.0252  0.1771  0.1530
 1929POPC   PO423402  24.206   8.867  15.297 -0.2003 -0.4274 -0.2595
 1929POPC   GL123403  24.136   8.747  15.706  0.1371  0.2804  0.1139
 1929POPC   GL223404  23.845   8.782  15.831 -0.2495 -0.2762 -0.1264
 1929POPC   C1A23405  24.238   8.830  16.153 -0.0466  0.1973  0.1446
 1929POPC   D2A23406  24.143   8.670  16.628 -0.1664  0.0876  0.0789
 1929POPC   C3A23407  23.891   8.867  16.983  0.0070 -0.0793 -0.2991
 1929POPC   C4A23408  23.840   9.014  17.460 -0.0139  0.2153 -0.1975
 1929POPC   C1B23409  23.965   9.208  16.037  0.1903  0.0759 -0.2336
 1929POPC   C2B23410  24.056   9.475  16.382 -0.3601 -0.2319 -0.0072
 1929POPC   C3B23411  24.176   9.262  16.768  0.0196 -0.2804 -0.1681
 1929POPC   C4B23412  24.479   8.962  16.955 -0.2699  0.0556  0.0187
 1930POPC   NC323413  10.991  12.273  15.517 -0.0047 -0.0012 -0.0602
 1930POPC   PO423414  11.289  12.051  15.456  0.1440 -0.0554 -0.0101
 1930POPC   GL123415  11.406  12.256  15.765 -0.1688  0.0146 -0.1942
 1930POPC   GL223416  11.332  12.530  15.895 -0.2095 -0.3968  0.0983
 1930POPC   C1A23417  11.214  12.077  16.125  0.1506 -0.3059 -0.2343
 1930POPC   D2A23418  11.094  11.814  16.515 -0.2655 -0.1454 -0.1210
 1930POPC   C3A23419  11.094  12.045  16.882  0.3300  0.1385 -0.0436
 1930POPC   C4A23420  11.253  12.197  17.323 -0.1466  0.0978 -0.3042
 1930POPC   C1B23421  11.224  12.882  16.135  0.1526  0.1473 -0.0871
 1930POPC   C2B23422  10.884  13.133  16.400  0.1174  0.2306  0.0660
 1930POPC   C3B23423  10.479  13.269  16.565  0.0023  0.0583  0.2498
 1930POPC   C4B23424  10.217  13.344  16.915  0.0915  0.4392  0.0631
 1931POPC   NC323425  18.144  28.515  15.163  0.3547 -0.1493  0.0391
 1931POPC   PO423426  17.965  28.217  15.353 -0.0433 -0.2308  0.1080
 1931POPC   GL123427  17.873  28.221  15.799  0.5201 -0.0685 -0.0183
 1931POPC   GL223428  17.673  27.956  15.776  0.0806  0.2522 -0.5136
 1931POPC   C1A23429  17.622  28.175  16.204  0.1146 -0.1009  0.0116
 1931POPC   D2A23430  17.626  28.164  16.632 -0.0902 -0.1368 -0.2086
 1931POPC   C3A23431  18.006  28.390  16.771  0.1608  0.0054  0.0270
 1931POPC   C4A23432  18.395  28.633  16.941  0.1430  0.1146 -0.2220
 1931POPC   C1B23433  17.543  27.655  16.080 -0.0985  0.0952 -0.1129
 1931POPC   C2B23434  17.689  27.548  16.458  0.2267  0.0658 -0.0017
 1931POPC   C3B23435  17.688  27.693  16.926 -0.1203  0.3749 -0.3504
 1931POPC   C4B23436  18.033  27.853  17.157  0.0698  0.1586 -0.1432
 1932POPC   NC323437  10.464  12.530  14.901 -0.1967  0.1189 -0.1934
 1932POPC   PO423438  10.729  12.477  15.178  0.1149 -0.1145 -0.0315
 1932POPC   GL123439  10.465  12.251  15.428 -0.0457  0.2564  0.3372
 1932POPC   GL223440  10.304  12.398  15.671 -0.0836 -0.0163 -0.0835
 1932POPC   C1A23441  10.612  11.959  15.735 -0.0282 -0.0972  0.1753
 1932POPC   D2A23442  10.755  11.838  16.163  0.2272  0.0512 -0.1477
 1932POPC   C3A23443  10.548  11.833  16.628 -0.1163 -0.2301  0.2616
 1932POPC   C4A23444  10.561  11.880  17.076  0.1665 -0.1562  0.0719
 1932POPC   C1B23445  10.338  12.182  16.048 -0.0254  0.2631 -0.1457
 1932POPC   C2B23446  10.255  11.701  16.188 -0.0802 -0.2896  0.0140
 1932POPC   C3B23447  10.249  11.402  16.556 -0.0600 -0.0133  0.2394
 1932POPC   C4B23448  10.238  11.215  16.993  0.2606 -0.3339 -0.0828
 1933POPC   NC323449  30.763  22.781  15.115 -0.0995  0.1989  0.3822
 1933POPC   PO423450  30.348  22.801  15.183 -0.2935  0.2061 -0.0660
 1933POPC   GL123451  30.301  23.069  15.436 -0.1397  0.1982  0.3927
 1933POPC   GL223452  30.131  22.989  15.655  0.2733 -0.1752 -0.0252
 1933POPC   C1A23453  30.300  23.460  15.634  0.1997 -0.1328 -0.1390
 1933POPC   D2A23454  30.435  23.621  15.976  0.0622 -0.1344 -0.2029
 1933POPC   C3A23455  30.710  23.518  16.374  0.2013 -0.3944 -0.3761
 1933POPC   C4A23456  30.970  23.193  16.609 -0.0497 -0.0993 -0.0047
 1933POPC   C1B23457  30.194  23.208  16.081 -0.2859  0.0732  0.3338
 1933POPC   C2B23458  30.141  23.342  16.514 -0.1476 -0.2146 -0.3890
 1933POPC   C3B23459  30.083  23.697  16.796 -0.0211 -0.0090 -0.0978
 1933POPC   C4B23460  29.928  23.931  17.175 -0.0660 -0.1639 -0.0280
 1934POPC   NC323461  16.303  20.993  14.908 -0.1472  0.2528 -0.1787
 1934POPC   PO423462  16.637  20.897  15.064  0.0809  0.1360 -0.1482
 1934POPC   GL123463  16.845  20.743  15.361 -0.0335  0.1162  0.4867
 1934POPC   GL223464  16.652  20.586  15.499  0.0415 -0.1880  0.1274
 1934POPC   C1A23465  16.912  20.922  15.776 -0.0803 -0.0404  0.0838
 1934POPC   D2A23466  16.592  20.919  16.161 -0.3828  0.0017  0.2060
 1934POPC   C3A23467  16.745  20.819  16.610  0.0369 -0.1809 -0.0536
 1934POPC   C4A23468  16.619  20.879  17.055 -0.4245  0.3517  0.0563
 1934POPC   C1B23469  16.689  20.420  15.903 -0.2840 -0.4990  0.0714
 1934POPC   C2B23470  16.590  20.408  16.366 -0.1725 -0.1429  0.2599
 1934POPC   C3B23471  16.582  20.399  16.827  0.0220  0.1606  0.0218
 1934POPC   C4B23472  16.570  20.416  17.317 -0.2373 -0.1082  0.0769
 1935POPC   NC323473   5.169   7.069  15.156  0.0979  0.0799  0.0240
 1935POPC   PO423474   4.831   6.855  15.230 -0.3350 -0.0904  0.1173
 1935POPC   GL123475   4.835   6.793  15.712  0.0046 -0.1305  0.3273
 1935POPC   GL223476   4.673   6.984  15.910  0.2152 -0.0650 -0.0700
 1935POPC   C1A23477   5.024   6.741  16.161 -0.1435  0.2135  0.1917
 1935POPC   D2A23478   5.194   6.741  16.606 -0.1265  0.2267  0.2955
 1935POPC   C3A23479   5.128   6.928  17.013  0.1851 -0.3949  0.0775
 1935POPC   C4A23480   4.951   7.205  17.420  0.0383 -0.0844  0.0172
 1935POPC   C1B23481   4.823   7.182  16.332 -0.0359 -0.3097 -0.3446
 1935POPC   C2B23482   4.947   7.327  16.748 -0.1165  0.0336 -0.1898
 1935POPC   C3B23483   5.352   7.450  16.966  0.2040  0.4023 -0.0728
 1935POPC   C4B23484   5.792   7.343  17.045 -0.2417  0.0994 -0.1864
 1936POPC   NC323485  31.496  15.146  15.298  0.3955 -0.0039  0.1358
 1936POPC   PO423486  31.324  15.513  15.210 -0.0384  0.0760 -0.3091
 1936POPC   GL123487  31.370  15.517  15.553 -0.2589  0.1438  0.2242
 1936POPC   GL223488  31.386  15.780  15.709  0.0957  0.3235 -0.5664
 1936POPC   C1A23489  31.540  15.295  15.898  0.1742 -0.1371 -0.0166
 1936POPC   D2A23490  31.717  15.203  16.327 -0.1876  0.1809 -0.1255
 1936POPC   C3A23491  31.462  15.250  16.688 -0.1324  0.1543  0.0895
 1936POPC   C4A23492  31.368  15.089  17.113 -0.0181  0.0170 -0.0098
 1936POPC   C1B23493  31.337  15.686  16.182 -0.1324 -0.1762  0.1104
 1936POPC   C2B23494  31.241  15.655  16.598 -0.1402 -0.3143  0.1900
 1936POPC   C3B23495  31.162  15.548  17.036 -0.1022  0.3487 -0.3173
 1936POPC   C4B23496  31.444  15.590  17.415  0.1709 -0.1197  0.1249
 1937POPC   NC323497  12.026   7.528  15.523 -0.3888  0.0025  0.2863
 1937POPC   PO423498  12.295   7.829  15.417 -0.1756 -0.1809 -0.0359
 1937POPC   GL123499  12.341   7.892  15.842  0.2065  0.4190  0.1208
 1937POPC   GL223500  12.148   8.140  15.817  0.0235  0.2910  0.2051
 1937POPC   C1A23501  12.538   7.950  16.261  0.3740 -0.1185  0.1548
 1937POPC   D2A23502  12.663   7.998  16.701  0.1405 -0.1738 -0.1804
 1937POPC   C3A23503  12.710   7.598  16.951  0.1714  0.0772 -0.0417
 1937POPC   C4A23504  13.053   7.273  16.942  0.1937 -0.2246  0.4578
 1937POPC   C1B23505  12.189   8.290  16.212  0.0278 -0.2631 -0.1543
 1937POPC   C2B23506  12.320   8.392  16.615 -0.3141  0.0842  0.0506
 1937POPC   C3B23507  12.520   8.679  16.972 -0.0709 -0.2000 -0.1473
 1937POPC   C4B23508  12.521   8.898  17.347  0.0243 -0.0123 -0.2037
 1938POPC   NC323509   4.149  10.127  15.021 -0.1628  0.0435  0.2911
 1938POPC   PO423510   4.329  10.463  14.912 -0.0596  0.0363  0.0877
 1938POPC   GL123511   4.552  10.417  15.188 -0.4354  0.0258 -0.3052
 1938POPC   GL223512   4.376  10.380  15.388 -0.0628 -0.0699  0.3606
 1938POPC   C1A23513   4.945  10.526  15.452 -0.0268  0.0869 -0.0282
 1938POPC   D2A23514   5.160  10.874  15.713  0.0481  0.1413  0.0889
 1938POPC   C3A23515   5.503  11.158  15.696  0.2540 -0.0118  0.0454
 1938POPC   C4A23516   5.904  11.458  15.616  0.0185  0.1282  0.3256
 1938POPC   C1B23517   4.595  10.141  15.709  0.2858 -0.1981 -0.2983
 1938POPC   C2B23518   5.059  10.049  15.748  0.1728 -0.0572  0.0438
 1938POPC   C3B23519   5.315   9.911  15.375  0.1347 -0.1975  0.0677
 1938POPC   C4B23520   5.764   9.934  15.263 -0.1819 -0.0471  0.0223
 1939POPC   NC323521  12.951  10.729  15.316 -0.1382 -0.0917 -0.2300
 1939POPC   PO423522  12.992  10.586  14.950 -0.2275 -0.0813  0.1659
 1939POPC   GL123523  13.245  10.856  15.016  0.0746  0.2465 -0.0657
 1939POPC   GL223524  13.429  10.697  15.193  0.1377  0.1365 -0.1415
 1939POPC   C1A23525  13.721  10.960  14.856  0.4367  0.0863  0.0387
 1939POPC   D2A23526  14.150  10.962  14.810 -0.1168  0.1958 -0.1467
 1939POPC   C3A23527  14.442  11.182  15.065  0.1596  0.0142  0.1236
 1939POPC   C4A23528  14.567  11.552  15.302 -0.1487  0.0380  0.0807
 1939POPC   C1B23529  13.654  10.694  15.585  0.0473 -0.2937  0.1971
 1939POPC   C2B23530  14.057  10.786  15.807 -0.1843 -0.2394  0.1922
 1939POPC   C3B23531  14.404  10.934  16.015  0.0903  0.1364  0.0403
 1939POPC   C4B23532  14.450  10.943  16.444  0.2612 -0.1299  0.5875
 1940POPC   NC323533  25.664  24.306  15.025  0.2182  0.2478 -0.0487
 1940POPC   PO423534  25.985  24.516  15.007  0.0629  0.0805  0.1209
 1940POPC   GL123535  25.871  24.478  15.404  0.1325  0.0791  0.3547
 1940POPC   GL223536  25.743  24.604  15.598  0.0002  0.1033  0.0087
 1940POPC   C1A23537  25.847  24.149  15.782  0.3804 -0.3295 -0.3141
 1940POPC   D2A23538  25.856  23.773  15.986 -0.0914  0.1253  0.2344
 1940POPC   C3A23539  25.920  23.752  16.418 -0.0814  0.0297  0.0318
 1940POPC   C4A23540  25.962  23.589  16.835  0.1308  0.2127 -0.0714
 1940POPC   C1B23541  25.672  24.703  16.060  0.0583 -0.1591 -0.2515
 1940POPC   C2B23542  25.763  24.721  16.550  0.1312  0.5030 -0.3730
 1940POPC   C3B23543  26.018  24.724  16.941  0.2726  0.2509  0.1928
 1940POPC   C4B23544  26.257  24.962  17.260 -0.1922  0.0068 -0.3188
 1941POPC   NC323545   8.988   1.442  15.639 -0.2638  0.1607  0.0206
 1941POPC   PO423546   8.678   1.240  15.541  0.0500 -0.1432 -0.0602
 1941POPC   GL123547   8.490   1.428  15.859  0.0197  0.1629  0.3750
 1941POPC   GL223548   8.660   1.323  16.094  0.1156  0.3979  0.1623
 1941POPC   C1A23549   8.348   1.690  16.196  0.0940  0.0306 -0.0123
 1941POPC   D2A23550   8.606   1.564  16.589 -0.0606 -0.2970 -0.0072
 1941POPC   C3A23551   8.716   1.477  17.050  0.0299  0.2514 -0.0300
 1941POPC   C4A23552   8.521   1.396  17.500  0.0878 -0.1104 -0.1047
 1941POPC   C1B23553   8.453   1.024  16.350  0.0062 -0.1215 -0.1291
 1941POPC   C2B23554   8.582   0.757  16.764 -0.0334 -0.0923 -0.0519
 1941POPC   C3B23555   8.713   0.520  17.178 -0.0390 -0.0256 -0.1225
 1941POPC   C4B23556   8.813   0.619  17.643  0.0829 -0.0543  0.1467
 1942POPC   NC323557   9.872   9.824  15.618 -0.3910  0.1858 -0.1705
 1942POPC   PO423558  10.244   9.595  15.611 -0.0256 -0.3021  0.2052
 1942POPC   GL123559  10.499   9.659  15.860  0.2546  0.1665 -0.0918
 1942POPC   GL223560  10.668   9.397  15.909  0.1293  0.0640  0.0613
 1942POPC   C1A23561  10.514   9.715  16.286 -0.0565  0.1726 -0.3850
 1942POPC   D2A23562  10.337   9.783  16.700  0.1753 -0.2510 -0.2190
 1942POPC   C3A23563  10.374   9.512  17.084 -0.1031  0.0733  0.1919
 1942POPC   C4A23564  10.256   9.470  17.535  0.1007  0.0254 -0.0177
 1942POPC   C1B23565  10.850   9.329  16.354  0.0348  0.0334  0.4544
 1942POPC   C2B23566  10.797   9.527  16.767  0.0024 -0.0725  0.1173
 1942POPC   C3B23567  10.859   9.625  17.187  0.1721  0.1073  0.1722
 1942POPC   C4B23568  10.902   9.853  17.597 -0.0573  0.0952 -0.0442
 1943POPC   NC323569  23.626  28.543  15.388 -0.0992  0.0401 -0.4252
 1943POPC   PO423570  23.413  28.804  15.673 -0.2644 -0.0292  0.1831
 1943POPC   GL123571  23.442  29.165  15.914 -0.2033 -0.2447  0.2335
 1943POPC   GL223572  23.708  29.183  16.052  0.1237  0.0682  0.0998
 1943POPC   C1A23573  23.227  29.217  16.267 -0.2664  0.1027  0.1726
 1943POPC   D2A23574  23.056  29.594  16.561  0.2553 -0.1443  0.0918
 1943POPC   C3A23575  22.653  29.494  16.718  0.0449 -0.1988 -0.0510
 1943POPC   C4A23576  22.283  29.303  16.601  0.2159 -0.0438 -0.0416
 1943POPC   C1B23577  24.108  29.337  16.246 -0.0341 -0.2476  0.2018
 1943POPC   C2B23578  24.539  29.288  16.469  0.2644 -0.2317  0.0512
 1943POPC   C3B23579  24.876  29.019  16.474  0.3659  0.0507 -0.1457
 1943POPC   C4B23580  25.270  28.760  16.371 -0.0442  0.0520 -0.3041
 1944POPC   NC323581  15.072  21.329  15.221 -0.4437 -0.1326  0.0368
 1944POPC   PO423582  15.156  21.713  15.177  0.2520  0.2255  0.1852
 1944POPC   GL123583  15.067  21.695  15.524 -0.0495 -0.0064 -0.1550
 1944POPC   GL223584  15.336  21.528  15.574  0.1880  0.1757  0.2636
 1944POPC   C1A23585  15.006  21.506  15.921 -0.5661 -0.0589 -0.0248
 1944POPC   D2A23586  14.991  21.583  16.373  0.3399 -0.0419 -0.0974
 1944POPC   C3A23587  15.218  21.731  16.712 -0.1214  0.1163 -0.0860
 1944POPC   C4A23588  15.363  21.693  17.175  0.1899  0.0742  0.4479
 1944POPC   C1B23589  15.494  21.463  16.028 -0.0816 -0.0369  0.1171
 1944POPC   C2B23590  15.684  21.580  16.387  0.0055  0.0123 -0.1638
 1944POPC   C3B23591  16.066  21.588  16.693 -0.0593  0.0227  0.0719
 1944POPC   C4B23592  16.265  21.950  16.932  0.1476 -0.0789  0.2045
 1945POPC   NC323593  14.622  16.457  15.324 -0.0707 -0.0759  0.0140
 1945POPC   PO423594  14.273  16.674  15.391 -0.2021  0.2255 -0.0117
 1945POPC   GL123595  14.033  17.004  15.550  0.2132  0.2439  0.0930
 1945POPC   GL223596  13.989  16.858  15.786 -0.1822  0.0468  0.0298
 1945POPC   C1A23597  14.148  17.481  15.659 -0.0405  0.1391 -0.2023
 1945POPC   D2A23598  14.065  17.745  16.010 -0.0351 -0.1085  0.0950
 1945POPC   C3A23599  13.662  17.948  15.967 -0.1303 -0.1924  0.3029
 1945POPC   C4A23600  13.333  18.122  16.279  0.1629 -0.3151 -0.1275
 1945POPC   C1B23601  13.662  16.921  16.135  0.0878 -0.0797 -0.4688
 1945POPC   C2B23602  13.479  17.169  16.446 -0.0363 -0.1518 -0.0824
 1945POPC   C3B23603  13.372  17.318  16.860  0.1482 -0.4243 -0.0740
 1945POPC   C4B23604  13.363  17.368  17.284  0.1519 -0.0952  0.0846
 1946POPC   NC323605  30.092  17.237  15.464  0.2533  0.0656 -0.1305
 1946POPC   PO423606  30.379  17.475  15.341 -0.1269  0.2210  0.3103
 1946POPC   GL123607  30.464  17.593  15.729 -0.0111 -0.2328  0.0694
 1946POPC   GL223608  30.278  17.466  15.870 -0.0529 -0.0550 -0.3174
 1946POPC   C1A23609  30.736  17.499  16.068  0.0247 -0.2838  0.2596
 1946POPC   D2A23610  30.874  17.675  16.477  0.1192  0.1631 -0.0149
 1946POPC   C3A23611  31.142  17.441  16.787  0.2130  0.1384 -0.1262
 1946POPC   C4A23612  31.528  17.407  17.045  0.1552  0.1768 -0.2533
 1946POPC   C1B23613  30.252  17.681  16.245  0.0020  0.2771 -0.0991
 1946POPC   C2B23614  30.340  17.706  16.689 -0.1023 -0.3707  0.0239
 1946POPC   C3B23615  30.147  17.311  16.895 -0.0859  0.3072 -0.2231
 1946POPC   C4B23616  29.766  17.102  16.797  0.0767  0.2954  0.2092
 1947POPC   NC323617   8.222   8.390  15.115  0.4327 -0.0558 -0.0110
 1947POPC   PO423618   7.908   8.166  15.047 -0.0514  0.1569  0.1807
 1947POPC   GL123619   7.926   8.123  15.396 -0.0594 -0.4204 -0.0458
 1947POPC   GL223620   7.805   8.372  15.535 -0.2146  0.3039 -0.0449
 1947POPC   C1A23621   7.735   7.881  15.758  0.1019  0.0932 -0.2297
 1947POPC   D2A23622   7.681   7.507  15.970 -0.0144  0.0459 -0.0530
 1947POPC   C3A23623   7.684   7.696  16.392 -0.1736  0.1858  0.1647
 1947POPC   C4A23624   7.949   7.612  16.727  0.2162  0.2955  0.1717
 1947POPC   C1B23625   7.721   8.606  15.899  0.1526 -0.0219 -0.1039
 1947POPC   C2B23626   7.633   8.932  16.209 -0.2836  0.0732 -0.1266
 1947POPC   C3B23627   7.705   9.132  16.652  0.1169 -0.0858 -0.2797
 1947POPC   C4B23628   7.918   9.049  17.080  0.0859  0.1534 -0.0488
 1948POPC   NC323629   6.117   5.841  15.093  0.2575 -0.2411  0.2969
 1948POPC   PO423630   5.786   5.638  14.932  0.5619 -0.1309 -0.2790
 1948POPC   GL123631   5.726   5.634  15.278 -0.1113 -0.1538 -0.4971
 1948POPC   GL223632   5.713   5.911  15.385  0.2731  0.0081  0.2317
 1948POPC   C1A23633   5.968   5.582  15.703  0.2852 -0.0199  0.1383
 1948POPC   D2A23634   5.845   5.681  16.151  0.0545  0.1100 -0.1239
 1948POPC   C3A23635   6.031   5.353  16.482 -0.3854 -0.0594  0.2393
 1948POPC   C4A23636   6.050   5.070  16.851 -0.1800  0.0670  0.1867
 1948POPC   C1B23637   5.551   5.878  15.784 -0.1330  0.2989  0.3707
 1948POPC   C2B23638   5.369   5.880  16.181  0.3060  0.0432 -0.2635
 1948POPC   C3B23639   5.540   5.745  16.574  0.0657 -0.0084  0.0255
 1948POPC   C4B23640   5.714   5.431  16.898  0.2579  0.2256  0.0138
 1949POPC   NC323641  19.930  12.367  15.491 -0.1118 -0.2001  0.0975
 1949POPC   PO423642  20.133  12.050  15.307 -0.2577  0.2264  0.1100
 1949POPC   GL123643  19.984  11.835  15.564 -0.0446  0.0303 -0.2978
 1949POPC   GL223644  19.731  11.950  15.618  0.2568  0.0853 -0.0688
 1949POPC   C1A23645  20.184  11.664  15.953 -0.0920 -0.0029  0.1087
 1949POPC   D2A23646  20.390  11.596  16.431 -0.1295 -0.0402 -0.1832
 1949POPC   C3A23647  20.576  11.863  16.757  0.4023  0.2439 -0.1365
 1949POPC   C4A23648  20.413  12.311  16.787 -0.3247 -0.1452 -0.0117
 1949POPC   C1B23649  19.972  12.125  15.957  0.0677 -0.0901  0.1670
 1949POPC   C2B23650  20.174  12.130  16.341  0.0126 -0.3416  0.2180
 1949POPC   C3B23651  20.587  12.032  16.219 -0.1628  0.0605 -0.0411
 1949POPC   C4B23652  20.997  11.878  16.322  0.0339  0.2262  0.0827
 1950POPC   NC323653  11.062  16.705  14.755 -0.1559 -0.3181 -0.1184
 1950POPC   PO423654  10.819  16.456  14.897 -0.2756  0.1894 -0.0556
 1950POPC   GL123655  11.013  16.678  15.228  0.1066 -0.1463 -0.0862
 1950POPC   GL223656  11.014  16.546  15.554  0.2530  0.2457  0.0140
 1950POPC   C1A23657  11.416  16.519  15.291  0.2715  0.1897  0.0064
 1950POPC   D2A23658  11.698  16.519  15.677 -0.2166  0.1494  0.2666
 1950POPC   C3A23659  12.022  16.110  15.733 -0.4920  0.7167 -0.1296
 1950POPC   C4A23660  12.043  15.790  15.410  0.3363  0.1231  0.1825
 1950POPC   C1B23661  11.267  16.544  15.906  0.0059  0.1927 -0.2367
 1950POPC   C2B23662  11.457  16.639  16.335 -0.3454  0.2464  0.3138
 1950POPC   C3B23663  11.879  16.669  16.514  0.0826 -0.1067  0.0400
 1950POPC   C4B23664  11.958  17.080  16.770  0.0943 -0.3148 -0.0207
 1951POPC   NC323665   4.501  26.115  15.546  0.1807 -0.2081  0.1381
 1951POPC   PO423666   4.129  26.090  15.547 -0.1680 -0.0190 -0.0224
 1951POPC   GL123667   4.117  26.237  15.957  0.1129 -0.3170  0.2925
 1951POPC   GL223668   3.894  26.459  15.943  0.0890  0.0074  0.1960
 1951POPC   C1A23669   4.180  26.421  16.350  0.0178 -0.1781 -0.1578
 1951POPC   D2A23670   4.139  26.636  16.731  0.1656  0.0370 -0.0508
 1951POPC   C3A23671   4.011  26.879  17.071  0.2486  0.0927 -0.0747
 1951POPC   C4A23672   3.749  27.148  17.331  0.1115  0.2339 -0.1827
 1951POPC   C1B23673   3.554  26.219  16.200  0.0416  0.2942  0.3887
 1951POPC   C2B23674   3.418  25.889  16.414  0.1256 -0.2258  0.0046
 1951POPC   C3B23675   3.553  25.764  16.896 -0.0947  0.1802  0.1785
 1951POPC   C4B23676   3.364  25.813  17.350  0.0454  0.0642  0.2271
 1952POPC   NC323677  23.742  21.341  14.741  0.1712  0.1831  0.0561
 1952POPC   PO423678  23.807  21.134  15.099 -0.1284  0.2054 -0.1136
 1952POPC   GL123679  23.759  21.422  15.405 -0.0595 -0.1416 -0.0252
 1952POPC   GL223680  23.760  21.726  15.358  0.1472  0.1249  0.0884
 1952POPC   C1A23681  23.348  21.554  15.583 -0.1348  0.2110  0.1328
 1952POPC   D2A23682  22.943  21.816  15.605 -0.0589  0.0375 -0.2369
 1952POPC   C3A23683  22.864  21.874  16.053  0.2375  0.5916 -0.1918
 1952POPC   C4A23684  22.986  22.067  16.452  0.5866 -0.1011  0.1003
 1952POPC   C1B23685  23.877  21.819  15.831  0.0697  0.0019  0.1227
 1952POPC   C2B23686  23.896  22.052  16.243  0.0186 -0.0216 -0.0271
 1952POPC   C3B23687  23.893  22.330  16.626  0.0873 -0.2822  0.0015
 1952POPC   C4B23688  23.751  22.777  16.830 -0.1276  0.0317 -0.0430
 1953POPC   NC323689  24.963  14.550  15.044  0.1122 -0.3683 -0.3073
 1953POPC   PO423690  24.586  14.408  15.033  0.0070 -0.1668 -0.4163
 1953POPC   GL123691  24.684  14.384  15.439 -0.0847  0.1585  0.2995
 1953POPC   GL223692  24.939  14.215  15.483 -0.0007 -0.0689 -0.2874
 1953POPC   C1A23693  24.655  14.600  15.814 -0.0063  0.2789  0.0902
 1953POPC   D2A23694  24.606  14.701  16.289  0.2657 -0.1458 -0.0250
 1953POPC   C3A23695  24.497  14.709  16.726 -0.0933 -0.0059  0.0316
 1953POPC   C4A23696  24.250  14.925  17.087 -0.2476 -0.2320  0.1114
 1953POPC   C1B23697  25.069  14.287  15.931 -0.1693  0.0565 -0.2887
 1953POPC   C2B23698  24.955  14.379  16.402  0.1241 -0.1973  0.0222
 1953POPC   C3B23699  24.860  14.444  16.866 -0.1506  0.0286  0.0955
 1953POPC   C4B23700  24.661  14.614  17.263  0.0416  0.1597  0.0895
 1954POPC   NC323701  18.051  21.241  14.682  0.1038  0.4002 -0.2423
 1954POPC   PO423702  18.075  21.106  15.061 -0.2291 -0.1205  0.0179
 1954POPC   GL123703  18.194  21.006  15.462 -0.1507 -0.3685  0.2822
 1954POPC   GL223704  18.011  21.121  15.556 -0.1043 -0.4874  0.2586
 1954POPC   C1A23705  18.533  20.823  15.685  0.1182  0.0705  0.1250
 1954POPC   D2A23706  18.802  20.725  16.024 -0.0352  0.1623  0.0109
 1954POPC   C3A23707  18.722  20.891  16.439 -0.0260 -0.0538 -0.1421
 1954POPC   C4A23708  18.763  21.208  16.807 -0.2694 -0.1017  0.1870
 1954POPC   C1B23709  18.038  20.974  15.995 -0.1436 -0.2215  0.1102
 1954POPC   C2B23710  18.078  20.930  16.476  0.0795 -0.5198  0.2686
 1954POPC   C3B23711  18.414  20.905  16.793 -0.1471 -0.3162  0.2799
 1954POPC   C4B23712  18.788  20.727  16.993 -0.2163 -0.1544 -0.0504
 1955POPC   NC323713   5.351  16.149  15.480  0.0067 -0.0393 -0.0591
 1955POPC   PO423714   5.678  16.396  15.471  0.1287  0.1266  0.1267
 1955POPC   GL123715   5.666  16.199  15.865 -0.3387  0.3486 -0.0969
 1955POPC   GL223716   5.854  16.310  15.990  0.0045 -0.1370 -0.1896
 1955POPC   C1A23717   5.455  16.135  16.285  0.0946  0.0190 -0.1803
 1955POPC   D2A23718   5.370  16.418  16.600 -0.0362 -0.2447 -0.1484
 1955POPC   C3A23719   5.010  16.420  16.924 -0.1352 -0.1029 -0.0537
 1955POPC   C4A23720   4.930  16.116  17.242 -0.0048  0.4358  0.1740
 1955POPC   C1B23721   5.754  16.687  16.280 -0.0730  0.0711  0.0230
 1955POPC   C2B23722   5.693  16.810  16.711 -0.1611 -0.4012 -0.1487
 1955POPC   C3B23723   5.505  16.920  17.082  0.0007  0.1930 -0.0121
 1955POPC   C4B23724   5.311  16.976  17.507 -0.0217 -0.1413 -0.0429
 1956POPC   NC323725  21.341   4.564  15.121  0.0202  0.1777  0.1881
 1956POPC   PO423726  21.510   4.295  14.946 -0.1231  0.2419  0.2028
 1956POPC   GL123727  21.323   4.065  15.159  0.0425  0.3677 -0.2100
 1956POPC   GL223728  21.363   3.754  15.206 -0.2081  0.1603 -0.0474
 1956POPC   C1A23729  21.494   3.981  15.652 -0.1377  0.0786 -0.2086
 1956POPC   D2A23730  21.688   3.700  16.008 -0.0488 -0.3599 -0.0468
 1956POPC   C3A23731  21.418   3.577  16.349  0.3386 -0.0112 -0.1547
 1956POPC   C4A23732  21.277   3.233  16.617 -0.0320 -0.0696 -0.0501
 1956POPC   C1B23733  21.657   3.540  15.536  0.1900  0.0112  0.0384
 1956POPC   C2B23734  21.521   3.278  15.894 -0.1640 -0.0969  0.1460
 1956POPC   C3B23735  21.349   3.028  16.206  0.2440 -0.2671  0.2929
 1956POPC   C4B23736  21.038   2.741  16.438  0.2863  0.2336 -0.0556
 1957POPC   NC323737  30.822  27.146  15.472  0.0858  0.1517 -0.2523
 1957POPC   PO423738  30.823  26.880  15.160 -0.2411 -0.0678  0.0918
 1957POPC   GL123739  30.898  26.517  15.342  0.0739 -0.0423 -0.0777
 1957POPC   GL223740  30.794  26.503  15.653  0.1952  0.0179 -0.1342
 1957POPC   C1A23741  30.659  26.119  15.308 -0.1429 -0.0873  0.0292
 1957POPC   D2A23742  30.528  25.734  15.117  0.1866  0.0898  0.2913
 1957POPC   C3A23743  30.534  25.602  14.639 -0.0200  0.1289 -0.0197
 1957POPC   C4A23744  30.406  25.198  14.392 -0.0091 -0.2284  0.0221
 1957POPC   C1B23745  30.518  26.251  15.975 -0.1219  0.1509 -0.1255
 1957POPC   C2B23746  30.447  25.916  16.250  0.1319 -0.3748 -0.1229
 1957POPC   C3B23747  30.307  25.506  16.315 -0.0096 -0.0800 -0.1771
 1957POPC   C4B23748  30.337  25.085  16.585  0.0208 -0.3480  0.0931
 1958POPC   NC323749  24.304  26.807  15.432  0.0045  0.1978  0.0967
 1958POPC   PO423750  24.697  26.798  15.428  0.0548  0.2894  0.0775
 1958POPC   GL123751  24.597  26.685  15.794  0.1992  0.0709 -0.0409
 1958POPC   GL223752  24.703  26.416  15.966  0.0004  0.0454 -0.2508
 1958POPC   C1A23753  24.382  26.619  16.226 -0.2379  0.1031 -0.2216
 1958POPC   D2A23754  24.389  26.673  16.687 -0.2304  0.2377 -0.0078
 1958POPC   C3A23755  24.669  26.410  16.929  0.0630  0.0503  0.3917
 1958POPC   C4A23756  24.997  26.079  16.915 -0.1296 -0.3173 -0.0185
 1958POPC   C1B23757  25.153  26.349  16.159 -0.0122 -0.3904  0.2280
 1958POPC   C2B23758  25.343  26.314  16.566 -0.0018 -0.0003 -0.0596
 1958POPC   C3B23759  25.387  26.443  17.003 -0.0648  0.1142  0.0367
 1958POPC   C4B23760  25.681  26.466  17.411  0.0342  0.2880  0.2746
 1959POPC   NC323761  22.340  10.455  14.893  0.3209 -0.2903 -0.1227
 1959POPC   PO423762  22.053  10.570  15.121  0.0007  0.2314 -0.1248
 1959POPC   GL123763  21.950  10.616  15.437  0.2404 -0.4220 -0.0814
 1959POPC   GL223764  21.634  10.611  15.431 -0.2926  0.0110 -0.0341
 1959POPC   C1A23765  22.086  10.421  15.816 -0.0136 -0.1557  0.1283
 1959POPC   D2A23766  22.092  10.270  16.216  0.1305 -0.0966 -0.3339
 1959POPC   C3A23767  22.154  10.461  16.596  0.1193 -0.2589  0.0788
 1959POPC   C4A23768  21.865  10.329  16.931 -0.0433 -0.2649  0.0120
 1959POPC   C1B23769  21.404  10.818  15.792 -0.1212 -0.0549  0.2461
 1959POPC   C2B23770  21.449  11.087  16.122 -0.0678  0.1363 -0.5054
 1959POPC   C3B23771  21.723  11.298  16.445  0.1732  0.0420 -0.0292
 1959POPC   C4B23772  21.907  11.625  16.691  0.2735 -0.0689  0.1302
 1960POPC   NC323773  17.200  10.973  14.817 -0.0967  0.2439  0.0737
 1960POPC   PO423774  17.238  11.234  15.107  0.1041 -0.0588 -0.0314
 1960POPC   GL123775  17.026  11.379  15.410 -0.1302 -0.2773 -0.0281
 1960POPC   GL223776  17.304  11.459  15.559  0.1578  0.2113  0.1916
 1960POPC   C1A23777  16.737  11.354  15.771 -0.0935 -0.0346  0.2264
 1960POPC   D2A23778  16.514  11.490  16.173  0.1878  0.1094 -0.5243
 1960POPC   C3A23779  16.139  11.318  16.394 -0.2294 -0.1057  0.1770
 1960POPC   C4A23780  15.841  10.987  16.349  0.1428 -0.0234 -0.2043
 1960POPC   C1B23781  17.193  11.270  15.981 -0.0678  0.3392 -0.1071
 1960POPC   C2B23782  17.015  11.355  16.420  0.1107 -0.0762 -0.2524
 1960POPC   C3B23783  16.952  11.603  16.826 -0.0264  0.1551  0.0573
 1960POPC   C4B23784  16.658  11.906  16.977  0.1032 -0.0367 -0.0345
 1961POPC   NC323785  11.114  13.109  15.475 -0.0558  0.2895  0.1482
 1961POPC   PO423786  11.123  12.722  15.389  0.0958  0.1190 -0.0296
 1961POPC   GL123787  10.946  12.788  15.756 -0.0183 -0.1950  0.1963
 1961POPC   GL223788  10.689  12.820  15.654  0.1910  0.2337  0.1454
 1961POPC   C1A23789  10.871  12.501  16.140  0.3926  0.3260 -0.2125
 1961POPC   D2A23790  10.722  12.298  16.556 -0.0816 -0.2839 -0.2533
 1961POPC   C3A23791  10.462  12.396  16.978 -0.2428 -0.0560  0.1467
 1961POPC   C4A23792  10.378  12.674  17.336  0.1919  0.1751 -0.0139
 1961POPC   C1B23793  10.509  12.824  16.125  0.4476 -0.1005 -0.2727
 1961POPC   C2B23794  10.517  12.769  16.571  0.0900 -0.0081  0.0071
 1961POPC   C3B23795  10.666  12.921  16.963 -0.0148  0.0469  0.1166
 1961POPC   C4B23796  10.704  13.329  17.137 -0.1714 -0.1578 -0.2295
 1962POPC   NC323797   0.233   4.362  15.594  0.1843 -0.1178 -0.1692
 1962POPC   PO423798  -0.145   4.310  15.638  0.2804  0.2013 -0.0847
 1962POPC   GL123799  -0.045   4.322  15.963  0.0965 -0.0656 -0.3121
 1962POPC   GL223800  -0.099   4.631  16.075  0.3220 -0.0660  0.1210
 1962POPC   C1A23801   0.142   4.256  16.402  0.0686  0.1053 -0.1316
 1962POPC   D2A23802  -0.049   4.300  16.793  0.0035 -0.3270  0.2859
 1962POPC   C3A23803  -0.463   4.393  16.994  0.1363 -0.0532  0.1634
 1962POPC   C4A23804  -0.691   4.780  17.166  0.1691 -0.0039 -0.0222
 1962POPC   C1B23805   0.159   4.762  16.346  0.0347  0.0848 -0.2064
 1962POPC   C2B23806   0.462   4.599  16.620  0.0060  0.0562  0.3624
 1962POPC   C3B23807   0.600   4.700  17.086  0.1835 -0.1511  0.0795
 1962POPC   C4B23808   0.448   4.494  17.493  0.0388 -0.0800  0.1130
 1963POPC   NC323809  29.167  14.376  15.067 -0.2188 -0.1576  0.1721
 1963POPC   PO423810  29.387  14.108  15.252  0.1543  0.2016  0.2206
 1963POPC   GL123811  29.297  14.187  15.661 -0.3792 -0.0279 -0.1201
 1963POPC   GL223812  29.410  13.885  15.850  0.2346 -0.0241  0.0311
 1963POPC   C1A23813  29.121  14.345  16.102 -0.0194  0.0011 -0.0869
 1963POPC   D2A23814  28.700  14.267  16.263 -0.2290 -0.2661  0.1316
 1963POPC   C3A23815  28.380  14.207  16.555  0.0826  0.1887  0.0405
 1963POPC   C4A23816  28.249  14.477  16.873  0.1146 -0.1163  0.0939
 1963POPC   C1B23817  29.644  13.634  16.204 -0.1437  0.0950 -0.3791
 1963POPC   C2B23818  29.729  13.300  16.494 -0.5735  0.0835  0.1303
 1963POPC   C3B23819  29.604  12.975  16.817 -0.3066  0.2208  0.2831
 1963POPC   C4B23820  29.852  12.888  17.181  0.1976  0.1124 -0.1467
 1964POPC   NC323821   8.184  29.231  14.461 -0.1762  0.0083 -0.1003
 1964POPC   PO423822   7.990  29.245  14.815  0.2065 -0.1821 -0.0820
 1964POPC   GL123823   8.041  29.104  15.212 -0.0579  0.6136  0.1073
 1964POPC   GL223824   8.139  28.846  15.142  0.1389  0.2420 -0.1012
 1964POPC   C1A23825   8.145  29.083  15.639  0.0190  0.0318  0.0888
 1964POPC   D2A23826   8.073  28.950  16.057  0.1565 -0.2067  0.1654
 1964POPC   C3A23827   7.688  28.783  16.238  0.0574 -0.0253  0.2879
 1964POPC   C4A23828   7.568  28.684  16.684  0.0504 -0.1189  0.3089
 1964POPC   C1B23829   7.797  28.665  15.467  0.1154 -0.2771 -0.2284
 1964POPC   C2B23830   7.455  28.631  15.810  0.2220 -0.0433  0.4251
 1964POPC   C3B23831   7.137  28.824  15.956  0.1180 -0.0354 -0.4055
 1964POPC   C4B23832   6.968  29.179  16.139  0.1779 -0.0144  0.1221
 1965POPC   NC323833  22.957  11.937  15.044  0.2905 -0.0098 -0.2138
 1965POPC   PO423834  22.903  12.227  15.308  0.1336  0.0064  0.1683
 1965POPC   GL123835  22.621  12.276  15.614  0.1035  0.0648  0.4265
 1965POPC   GL223836  22.626  12.270  15.955 -0.0013 -0.4053  0.0555
 1965POPC   C1A23837  22.182  12.350  15.735 -0.0778  0.1515  0.2095
 1965POPC   D2A23838  21.901  12.644  15.966 -0.1230  0.2479  0.2281
 1965POPC   C3A23839  21.464  12.569  15.892 -0.3855 -0.0462  0.1713
 1965POPC   C4A23840  21.137  12.848  15.935 -0.0603 -0.2227 -0.1104
 1965POPC   C1B23841  22.650  12.245  16.435 -0.0151 -0.0869  0.1086
 1965POPC   C2B23842  22.639  12.222  16.911 -0.0706 -0.1000 -0.1511
 1965POPC   C3B23843  22.359  12.029  17.226 -0.1510  0.1874  0.3159
 1965POPC   C4B23844  21.941  11.938  17.265 -0.0366 -0.3079 -0.2071
 1966POPC   NC323845  15.263   2.416  15.201 -0.0654 -0.0806 -0.0416
 1966POPC   PO423846  14.959   2.158  15.234  0.1900 -0.0966  0.0167
 1966POPC   GL123847  14.815   2.261  15.600 -0.4264  0.0624 -0.0919
 1966POPC   GL223848  15.118   2.381  15.712 -0.2046 -0.1574  0.0341
 1966POPC   C1A23849  14.561   2.449  15.924  0.2184 -0.2408  0.1619
 1966POPC   D2A23850  14.440   2.878  16.103 -0.0265  0.0054 -0.1880
 1966POPC   C3A23851  14.426   2.985  16.583 -0.3445 -0.0423  0.0330
 1966POPC   C4A23852  14.561   2.966  17.013  0.1692 -0.0610 -0.0095
 1966POPC   C1B23853  14.925   2.168  16.135 -0.0546 -0.1692  0.1474
 1966POPC   C2B23854  14.856   2.078  16.613  0.0908 -0.0323 -0.2114
 1966POPC   C3B23855  14.627   2.060  17.067  0.1395  0.0799  0.0150
 1966POPC   C4B23856  14.567   1.896  17.507  0.1431  0.0454 -0.2468
 1967POPC   NC323857   3.612   6.654  15.726 -0.0220  0.1277  0.0526
 1967POPC   PO423858   3.238   6.547  15.807  0.2989  0.0508  0.0091
 1967POPC   GL123859   3.333   6.656  16.109 -0.3711 -0.0297  0.0302
 1967POPC   GL223860   3.550   6.446  16.169  0.1750  0.2488  0.2361
 1967POPC   C1A23861   3.106   6.822  16.460  0.3089  0.2080 -0.0331
 1967POPC   D2A23862   2.732   6.871  16.820 -0.0257 -0.2997 -0.1339
 1967POPC   C3A23863   2.668   7.073  17.299  0.0157  0.0546  0.1357
 1967POPC   C4A23864   2.393   7.086  17.662 -0.2023  0.3823 -0.0239
 1967POPC   C1B23865   3.576   6.654  16.619 -0.2347  0.3136 -0.4077
 1967POPC   C2B23866   3.669   6.454  17.068  0.2487  0.0033  0.0089
 1967POPC   C3B23867   3.913   6.259  17.450 -0.1150 -0.2803  0.0379
 1967POPC   C4B23868   4.239   6.470  17.762 -0.0187  0.2499  0.3180
 1968POPC   NC323869   1.553  28.895  14.970 -0.1224  0.2867 -0.1949
 1968POPC   PO423870   1.958  28.983  14.890  0.1077  0.0317  0.3210
 1968POPC   GL123871   1.934  29.180  15.212  0.0517 -0.1684  0.4059
 1968POPC   GL223872   1.832  29.052  15.441 -0.0514 -0.0319 -0.2147
 1968POPC   C1A23873   2.170  29.464  15.426 -0.0294  0.1183 -0.1878
 1968POPC   D2A23874   2.447  29.745  15.690 -0.0678 -0.1931  0.2016
 1968POPC   C3A23875   2.369  29.623  16.039 -0.1120 -0.2196  0.0688
 1968POPC   C4A23876   2.420  29.713  16.485  0.0769  0.2651 -0.0075
 1968POPC   C1B23877   1.836  29.312  15.794 -0.2002  0.2213  0.1810
 1968POPC   C2B23878   1.862  29.524  16.195 -0.0219  0.1116 -0.2944
 1968POPC   C3B23879   1.947  29.580  16.630 -0.0519 -0.2759 -0.1817
 1968POPC   C4B23880   2.165  29.902  16.883 -0.3991 -0.1343  0.1611
 1969POPC   NC323881   1.707  22.665  14.624 -0.5202  0.2166  0.6216
 1969POPC   PO423882   1.900  22.430  14.871 -0.3649  0.2047  0.4855
 1969POPC   GL123883   1.911  22.371  15.284  0.0071 -0.3409  0.0376
 1969POPC   GL223884   1.944  22.616  15.426  0.0543  0.2699 -0.1932
 1969POPC   C1A23885   1.621  22.286  15.669  0.0978 -0.0107  0.1128
 1969POPC   D2A23886   1.616  22.327  16.158 -0.0300  0.3933 -0.3668
 1969POPC   C3A23887   1.394  22.481  16.611  0.1191  0.0782  0.2282
 1969POPC   C4A23888   1.052  22.748  16.602 -0.1496 -0.0329  0.0637
 1969POPC   C1B23889   1.938  22.697  15.872 -0.0279  0.1352  0.3995
 1969POPC   C2B23890   1.971  22.676  16.310  0.1847 -0.0839  0.4044
 1969POPC   C3B23891   1.848  22.629  16.805  0.4266  0.2049 -0.1039
 1969POPC   C4B23892   1.527  22.452  17.083 -0.0667  0.0353  0.2163
 1970POPC   NC323893   9.034   2.482  14.842  0.2361  0.0546  0.0898
 1970POPC   PO423894   9.366   2.369  14.996 -0.1657  0.0370  0.0824
 1970POPC   GL123895   9.291   2.311  15.471 -0.3305 -0.1543  0.2005
 1970POPC   GL223896   9.052   2.368  15.381  0.1662  0.0576 -0.1547
 1970POPC   C1A23897   9.372   2.326  15.945 -0.0414 -0.1201  0.1461
 1970POPC   D2A23898   9.039   2.494  16.263 -0.3609  0.1096  0.2944
 1970POPC   C3A23899   8.813   2.499  16.653  0.1855 -0.2368 -0.2881
 1970POPC   C4A23900   8.954   2.455  17.120  0.0349  0.0766 -0.0808
 1970POPC   C1B23901   8.879   2.287  15.841 -0.3782 -0.0322  0.1014
 1970POPC   C2B23902   8.630   2.187  16.193 -0.2707 -0.2974  0.3873
 1970POPC   C3B23903   8.508   2.068  16.649  0.0038  0.0242  0.1466
 1970POPC   C4B23904   8.571   2.107  17.118 -0.0230 -0.0177  0.2051
 1971POPC   NC323905   9.610  24.836  15.030  0.3369 -0.0467  0.2010
 1971POPC   PO423906   9.818  25.084  15.263 -0.0357  0.1375  0.1208
 1971POPC   GL123907   9.798  25.091  15.578  0.1444  0.0782  0.0463
 1971POPC   GL223908   9.995  25.136  15.738  0.2017  0.1965  0.3020
 1971POPC   C1A23909   9.668  24.751  15.911  0.3365 -0.2761 -0.1090
 1971POPC   D2A23910   9.627  24.373  16.099 -0.6216  0.0766 -0.0196
 1971POPC   C3A23911   9.579  23.935  16.060 -0.0840  0.1091 -0.1410
 1971POPC   C4A23912   9.630  23.592  15.833  0.1104 -0.3224 -0.2050
 1971POPC   C1B23913   9.939  25.161  16.174 -0.3488 -0.1246 -0.0745
 1971POPC   C2B23914   9.971  25.504  16.453  0.1457 -0.0631  0.2392
 1971POPC   C3B23915   9.949  25.852  16.788 -0.1321 -0.2091  0.0627
 1971POPC   C4B23916   9.892  26.264  17.068 -0.0833  0.2200 -0.0089
 1972POPC   NC323917   5.438   3.753  14.956 -0.0777 -0.0511  0.3560
 1972POPC   PO423918   5.792   3.781  15.065  0.2564 -0.0369 -0.1483
 1972POPC   GL123919   5.763   3.903  15.407  0.3982 -0.1149 -0.3090
 1972POPC   GL223920   5.922   4.124  15.509 -0.1153  0.1664  0.0203
 1972POPC   C1A23921   5.515   4.006  15.782  0.3537  0.0102 -0.0054
 1972POPC   D2A23922   5.402   4.245  16.192 -0.3783 -0.0168  0.0544
 1972POPC   C3A23923   5.567   3.976  16.579  0.3133 -0.0944  0.1737
 1972POPC   C4A23924   5.672   3.632  16.877 -0.0721 -0.0710  0.2261
 1972POPC   C1B23925   5.939   4.189  16.021 -0.3289  0.4163  0.2024
 1972POPC   C2B23926   5.826   4.404  16.455  0.1044 -0.1080 -0.2058
 1972POPC   C3B23927   5.971   4.549  16.800 -0.0025 -0.1140 -0.1878
 1972POPC   C4B23928   5.847   4.502  17.222  0.0540 -0.3189 -0.0120
 1973POPC   NC323929  15.255  20.870  14.854  0.3932  0.1069  0.1002
 1973POPC   PO423930  15.494  21.103  15.075 -0.0791  0.1245  0.0463
 1973POPC   GL123931  15.581  21.070  15.447  0.3630  0.0465 -0.3571
 1973POPC   GL223932  15.324  21.027  15.626  0.0153 -0.0488 -0.4557
 1973POPC   C1A23933  15.877  20.939  15.794 -0.1855 -0.0028  0.1483
 1973POPC   D2A23934  16.048  21.114  16.215  0.0078  0.1408  0.1057
 1973POPC   C3A23935  16.283  21.099  16.632  0.2601  0.1770 -0.2497
 1973POPC   C4A23936  16.123  20.816  16.970 -0.2557  0.0025  0.0795
 1973POPC   C1B23937  15.312  21.058  16.062  0.2132  0.1700  0.1489
 1973POPC   C2B23938  15.353  21.221  16.483  0.1664  0.0552  0.0601
 1973POPC   C3B23939  15.031  21.257  16.824 -0.0462 -0.1211  0.0504
 1973POPC   C4B23940  15.008  21.281  17.301  0.1061  0.1792 -0.0921
 1974POPC   NC323941  19.020  28.874  15.365 -0.0009 -0.1015  0.1310
 1974POPC   PO423942  18.833  29.172  15.244  0.0416 -0.1839 -0.0299
 1974POPC   GL123943  18.694  29.197  15.576  0.2103 -0.1012 -0.0657
 1974POPC   GL223944  18.912  29.255  15.725  0.2388 -0.0472  0.1940
 1974POPC   C1A23945  18.476  29.152  15.969  0.2354 -0.0210  0.0638
 1974POPC   D2A23946  18.191  28.918  16.265 -0.0586 -0.3491 -0.1861
 1974POPC   C3A23947  18.034  28.905  16.675  0.1300  0.0815 -0.1883
 1974POPC   C4A23948  17.870  28.799  17.063 -0.0976  0.2405 -0.0057
 1974POPC   C1B23949  18.728  29.499  16.065 -0.1070  0.2788  0.0682
 1974POPC   C2B23950  18.817  29.755  16.432  0.1448 -0.0553  0.1356
 1974POPC   C3B23951  18.648  30.120  16.671  0.2270  0.0670  0.1698
 1974POPC   C4B23952  18.406  30.418  16.517 -0.5198  0.0428 -0.1426
 1975POPC   NC323953   6.801  24.610  14.866  0.0672  0.0212 -0.0983
 1975POPC   PO423954   7.011  24.266  15.009  0.2043 -0.0429  0.1273
 1975POPC   GL123955   6.920  24.281  15.340  0.0529 -0.1786  0.1126
 1975POPC   GL223956   6.881  24.580  15.452 -0.1038  0.0466 -0.0585
 1975POPC   C1A23957   6.977  24.313  15.831  0.0761 -0.0537 -0.5704
 1975POPC   D2A23958   7.000  24.579  16.133  0.1438  0.4800  0.1446
 1975POPC   C3A23959   7.101  24.623  16.601  0.3788 -0.0444  0.1376
 1975POPC   C4A23960   7.042  24.832  17.015 -0.3351  0.3526  0.5461
 1975POPC   C1B23961   6.523  24.564  15.816 -0.1374 -0.1744 -0.0935
 1975POPC   C2B23962   6.578  24.736  16.246  0.0913  0.3187 -0.2662
 1975POPC   C3B23963   6.803  25.052  16.487 -0.2424 -0.0469  0.1061
 1975POPC   C4B23964   7.248  25.164  16.676  0.2779 -0.0439  0.2474
 1976POPC   NC323965  22.508   6.395  14.809 -0.2180  0.2787 -0.4015
 1976POPC   PO423966  22.732   6.719  14.885 -0.1564  0.0220  0.3317
 1976POPC   GL123967  22.513   6.655  15.248  0.5281 -0.1090  0.0823
 1976POPC   GL223968  22.695   6.494  15.314 -0.1209 -0.0442 -0.1876
 1976POPC   C1A23969  22.426   6.585  15.674  0.1078 -0.2214  0.1865
 1976POPC   D2A23970  22.416   6.381  16.051 -0.2908  0.2401 -0.1157
 1976POPC   C3A23971  22.057   6.169  16.291 -0.2558  0.1767  0.1533
 1976POPC   C4A23972  21.839   5.923  16.571  0.3841  0.1837 -0.2109
 1976POPC   C1B23973  22.897   6.324  15.670  0.2237  0.3236 -0.1846
 1976POPC   C2B23974  22.765   6.086  16.102 -0.0516 -0.1908 -0.2041
 1976POPC   C3B23975  22.655   6.153  16.572 -0.1613 -0.0373  0.2351
 1976POPC   C4B23976  22.620   6.206  17.014 -0.0716 -0.1459 -0.0498
 1977POPC   NC323977  16.919   2.763  15.049 -0.2839  0.1208  0.0060
 1977POPC   PO423978  16.985   2.365  15.084  0.4148 -0.0999 -0.0307
 1977POPC   GL123979  16.715   2.163  15.197 -0.0407  0.3239 -0.4670
 1977POPC   GL223980  16.729   2.068  15.472 -0.2694  0.2427  0.4119
 1977POPC   C1A23981  16.321   1.926  15.155  0.0402  0.1712  0.1477
 1977POPC   D2A23982  16.006   1.879  15.489  0.1721 -0.0236  0.0545
 1977POPC   C3A23983  16.020   2.158  15.890 -0.2000  0.3987  0.0978
 1977POPC   C4A23984  16.252   2.158  16.259  0.1385 -0.0233 -0.0600
 1977POPC   C1B23985  16.505   2.223  15.765 -0.2236 -0.0500 -0.1256
 1977POPC   C2B23986  16.469   2.547  16.112  0.3912  0.0092  0.1062
 1977POPC   C3B23987  16.302   2.583  16.514  0.1672 -0.1567 -0.1529
 1977POPC   C4B23988  16.072   2.497  16.927 -0.0113 -0.0493 -0.1050
 1978POPC   NC323989  15.455   9.047  14.594 -0.1623 -0.1188 -0.0427
 1978POPC   PO423990  15.479   8.846  14.970  0.1616 -0.1108 -0.1502
 1978POPC   GL123991  15.243   8.896  15.238 -0.2077  0.0479 -0.3270
 1978POPC   GL223992  15.028   8.979  15.283 -0.0831  0.0752  0.1058
 1978POPC   C1A23993  15.463   8.904  15.628  0.1535  0.0585  0.0756
 1978POPC   D2A23994  15.822   9.146  15.756 -0.2009  0.2251 -0.1884
 1978POPC   C3A23995  15.909   9.244  16.144  0.0479 -0.1798 -0.0397
 1978POPC   C4A23996  15.965   9.365  16.603  0.1538  0.0723  0.0865
 1978POPC   C1B23997  14.967   9.284  15.621 -0.0104  0.1118  0.0779
 1978POPC   C2B23998  14.988   9.675  15.896 -0.0104 -0.2064  0.0654
 1978POPC   C3B23999  14.827   9.970  16.202 -0.2099 -0.0565 -0.0804
 1978POPC   C4B24000  14.808  10.284  16.508 -0.2283 -0.0817  0.0132
 1979POPC   NC324001  20.587  17.114  15.254  0.2404 -0.1178  0.3815
 1979POPC   PO424002  20.904  16.947  15.104  0.2590  0.2111 -0.3941
 1979POPC   GL124003  20.779  16.583  15.239  0.0724 -0.0331  0.0287
 1979POPC   GL224004  20.558  16.627  15.362  0.3622  0.0126 -0.0723
 1979POPC   C1A24005  20.714  16.140  15.149  0.2060 -0.1476  0.0449
 1979POPC   D2A24006  20.987  15.798  15.198  0.0572  0.2541 -0.0045
 1979POPC   C3A24007  20.947  15.560  15.545  0.1016 -0.1374  0.0128
 1979POPC   C4A24008  21.015  15.477  16.003  0.2097  0.2344 -0.1704
 1979POPC   C1B24009  20.711  16.274  15.659  0.0996 -0.0791 -0.0161
 1979POPC   C2B24010  20.624  15.960  15.952  0.0310 -0.2020  0.3399
 1979POPC   C3B24011  20.792  15.808  16.350  0.1626  0.2863 -0.4854
 1979POPC   C4B24012  21.032  15.624  16.665 -0.1129 -0.0174  0.1406
 1980POPC   NC324013   5.223  23.033  15.254  0.0541  0.0979  0.2787
 1980POPC   PO424014   5.484  23.191  15.011 -0.1348  0.2943  0.0483
 1980POPC   GL124015   5.681  23.154  15.390  0.3323  0.1353 -0.1783
 1980POPC   GL224016   5.530  23.001  15.634  0.1824  0.0133  0.0969
 1980POPC   C1A24017   5.924  23.493  15.702 -0.2200 -0.0623  0.2471
 1980POPC   D2A24018   5.786  23.787  15.925 -0.0115  0.0105 -0.1963
 1980POPC   C3A24019   5.779  23.989  16.378 -0.0059 -0.3076  0.0025
 1980POPC   C4A24020   5.747  24.337  16.667  0.1917 -0.1740 -0.0473
 1980POPC   C1B24021   5.579  23.247  16.039  0.0898  0.0982  0.0610
 1980POPC   C2B24022   5.685  23.545  16.453  0.2172  0.0947  0.1010
 1980POPC   C3B24023   5.817  23.794  16.812 -0.1079  0.1185 -0.0401
 1980POPC   C4B24024   5.842  23.748  17.301 -0.0726 -0.1580 -0.0841
 1981POPC   NC324025   3.593   1.661  15.501  0.1292  0.0779 -0.0071
 1981POPC   PO424026   3.881   1.416  15.501 -0.2378  0.1465 -0.4772
 1981POPC   GL124027   3.859   1.468  15.902  0.1188 -0.0893  0.0707
 1981POPC   GL224028   3.600   1.360  15.913  0.4078  0.1246  0.1946
 1981POPC   C1A24029   3.850   1.610  16.313  0.2828  0.3477  0.0893
 1981POPC   D2A24030   4.016   1.578  16.758  0.0512 -0.1624  0.2064
 1981POPC   C3A24031   3.695   1.350  16.885  0.1481 -0.2844 -0.0469
 1981POPC   C4A24032   3.270   1.328  17.035  0.0536 -0.2741  0.2148
 1981POPC   C1B24033   3.628   1.106  16.250 -0.0703  0.2587  0.1960
 1981POPC   C2B24034   3.521   0.686  16.375 -0.0104 -0.2667  0.0303
 1981POPC   C3B24035   3.465   0.404  16.765  0.1776  0.1055  0.2349
 1981POPC   C4B24036   3.456   0.355  17.257  0.1193 -0.2451 -0.1561
 1982POPC   NC324037  30.561   2.725  15.477 -0.0034  0.0811 -0.1526
 1982POPC   PO424038  30.661   2.384  15.280  0.3782 -0.0919  0.0487
 1982POPC   GL124039  30.746   2.296  15.616 -0.1407  0.1587  0.2043
 1982POPC   GL224040  30.618   2.378  15.817  0.3636 -0.0736  0.1994
 1982POPC   C1A24041  31.008   1.891  15.676 -0.2739 -0.0677 -0.0912
 1982POPC   D2A24042  31.216   1.747  16.111  0.2978 -0.0485  0.1668
 1982POPC   C3A24043  31.121   1.576  16.588 -0.0251  0.0758  0.0386
 1982POPC   C4A24044  31.270   1.330  16.921  0.0318  0.0626 -0.1511
 1982POPC   C1B24045  30.438   2.335  16.219 -0.1278  0.3621  0.2657
 1982POPC   C2B24046  30.181   2.007  16.492  0.0168  0.0285  0.0477
 1982POPC   C3B24047  30.161   1.927  16.954  0.1328  0.0462 -0.0475
 1982POPC   C4B24048  29.988   1.582  17.230  0.3616 -0.1873 -0.0795
 1983POPC   NC324049   0.086  26.261  15.148 -0.0696  0.2668  0.0091
 1983POPC   PO424050  -0.290  26.309  15.255  0.1695 -0.2586  0.2216
 1983POPC   GL124051  -0.509  26.353  15.677 -0.3532 -0.1868  0.2011
 1983POPC   GL224052  -0.313  26.113  15.791 -0.0436  0.0078 -0.0220
 1983POPC   C1A24053  -0.766  25.988  15.828 -0.0967  0.2497  0.1441
 1983POPC   D2A24054  -1.013  25.612  15.938 -0.2141 -0.0419  0.0974
 1983POPC   C3A24055  -0.973  25.312  16.303 -0.0921  0.2136  0.0201
 1983POPC   C4A24056  -0.945  24.911  16.573 -0.1316 -0.2412 -0.0345
 1983POPC   C1B24057  -0.272  26.047  16.286  0.0179  0.0304  0.0641
 1983POPC   C2B24058  -0.470  25.911  16.712 -0.0279  0.0153  0.0894
 1983POPC   C3B24059  -0.829  25.880  17.011 -0.0614 -0.3649 -0.3107
 1983POPC   C4B24060  -1.239  25.764  17.211 -0.0664  0.0711  0.0176
 1984POPC   NC324061  30.580  15.522  15.347 -0.0322  0.0297  0.0489
 1984POPC   PO424062  30.397  15.239  15.096  0.0428  0.1999  0.1783
 1984POPC   GL124063  30.391  15.016  15.473  0.0871  0.2480 -0.2063
 1984POPC   GL224064  30.519  14.741  15.500 -0.0017 -0.3444 -0.2424
 1984POPC   C1A24065  30.652  15.145  15.870 -0.0247  0.2364  0.3823
 1984POPC   D2A24066  30.769  14.892  16.311  0.1716 -0.0912 -0.1388
 1984POPC   C3A24067  30.431  15.095  16.599  0.2219 -0.2975 -0.0317
 1984POPC   C4A24068  30.235  15.492  16.677  0.1791  0.3049  0.0621
 1984POPC   C1B24069  30.269  14.801  15.880  0.0445  0.1741 -0.0200
 1984POPC   C2B24070  29.998  14.569  16.119 -0.1732 -0.0398 -0.1148
 1984POPC   C3B24071  29.685  14.651  16.446 -0.0000  0.1332  0.0941
 1984POPC   C4B24072  29.528  14.666  16.863  0.1519 -0.0114 -0.1206
 1985POPC   NC324073  10.450   8.496  15.849 -0.0957  0.3578  0.1481
 1985POPC   PO424074  10.089   8.575  15.683  0.0431 -0.1568 -0.1699
 1985POPC   GL124075   9.846   8.905  15.949  0.0782  0.1059  0.1074
 1985POPC   GL224076   9.690   8.761  16.006  0.0832  0.0866 -0.2046
 1985POPC   C1A24077   9.801   9.147  16.337 -0.0059 -0.0036  0.0946
 1985POPC   D2A24078   9.874   9.456  16.579 -0.0101 -0.3578 -0.0888
 1985POPC   C3A24079   9.588   9.654  16.872 -0.1031  0.1895  0.1427
 1985POPC   C4A24080   9.274   9.521  17.146  0.4090  0.3222 -0.2092
 1985POPC   C1B24081   9.536   8.692  16.442  0.0078  0.1939 -0.1190
 1985POPC   C2B24082   9.638   8.467  16.811 -0.1685  0.1134  0.0116
 1985POPC   C3B24083   9.828   8.646  17.222 -0.0125  0.2606  0.0602
 1985POPC   C4B24084   9.983   8.796  17.563 -0.0628  0.1103 -0.0493
 1986POPC   NC324085  18.555  19.156  15.249  0.1880  0.0554 -0.0503
 1986POPC   PO424086  18.220  18.973  15.381  0.0211  0.2383  0.0908
 1986POPC   GL124087  18.374  18.860  15.760 -0.0342  0.2835  0.3885
 1986POPC   GL224088  18.647  18.987  15.682  0.0074  0.2134  0.0566
 1986POPC   C1A24089  18.144  18.649  16.079  0.0837  0.0462 -0.1195
 1986POPC   D2A24090  18.053  18.775  16.527 -0.1540 -0.1648  0.2211
 1986POPC   C3A24091  17.934  19.228  16.660  0.1388 -0.0804  0.0194
 1986POPC   C4A24092  17.914  19.237  17.147 -0.3813 -0.0229 -0.1753
 1986POPC   C1B24093  18.619  18.869  16.162  0.0383 -0.3585 -0.0232
 1986POPC   C2B24094  18.568  18.822  16.637  0.0817  0.0984  0.3850
 1986POPC   C3B24095  18.341  19.071  16.870  0.2725  0.2096 -0.0010
 1986POPC   C4B24096  18.400  19.523  16.853 -0.0162 -0.4021  0.0526
 1987POPC   NC324097   0.619  26.111  15.596 -0.1419 -0.2256  0.2416
 1987POPC   PO424098   0.460  25.975  15.273 -0.1165  0.2572 -0.0540
 1987POPC   GL124099   0.094  25.766  15.120  0.2588 -0.0011 -0.1456
 1987POPC   GL224100  -0.057  25.859  15.415  0.1167 -0.1271  0.0502
 1987POPC   C1A24101  -0.030  25.381  15.433  0.1280 -0.1412 -0.0102
 1987POPC   D2A24102  -0.120  25.018  15.645 -0.2114  0.0714 -0.3028
 1987POPC   C3A24103  -0.128  24.740  15.985  0.0750  0.1569  0.0578
 1987POPC   C4A24104  -0.163  24.672  16.431 -0.2061 -0.1168  0.1204
 1987POPC   C1B24105  -0.373  25.662  15.701 -0.2914  0.2339  0.0813
 1987POPC   C2B24106  -0.579  25.261  15.814 -0.1681  0.1244  0.3322
 1987POPC   C3B24107  -0.564  24.961  16.172 -0.1344 -0.0521  0.1897
 1987POPC   C4B24108  -0.465  25.009  16.605  0.0701  0.0243  0.1030
 1988POPC   NC324109  18.717   1.393  15.216 -0.3834  0.0252  0.2402
 1988POPC   PO424110  18.685   1.759  15.306  0.4077 -0.1016  0.1316
 1988POPC   GL124111  18.786   1.721  15.684  0.0564  0.2379  0.1840
 1988POPC   GL224112  18.947   1.468  15.692  0.2369 -0.1296  0.3932
 1988POPC   C1A24113  18.972   1.846  16.084  0.1584  0.0127  0.2494
 1988POPC   D2A24114  18.875   1.594  16.402  0.1090  0.0125 -0.3039
 1988POPC   C3A24115  18.612   1.752  16.804  0.1734 -0.1579 -0.3179
 1988POPC   C4A24116  18.520   1.465  17.147  0.2084 -0.1132 -0.0182
 1988POPC   C1B24117  19.166   1.348  16.046 -0.1412 -0.0491  0.0154
 1988POPC   C2B24118  19.308   1.249  16.482 -0.2590 -0.0520 -0.2848
 1988POPC   C3B24119  19.585   1.389  16.736 -0.2218  0.1054 -0.0821
 1988POPC   C4B24120  19.880   1.599  17.013 -0.0972  0.1337  0.2235
 1989POPC   NC324121  20.914  31.084  15.078  0.0008 -0.1926  0.2340
 1989POPC   PO424122  20.578  31.246  15.224  0.1873 -0.3544  0.0922
 1989POPC   GL124123  20.833  31.304  15.496 -0.1755 -0.1514  0.0970
 1989POPC   GL224124  20.998  31.031  15.569 -0.0230 -0.2709 -0.1008
 1989POPC   C1A24125  20.992  31.569  15.841 -0.0033  0.1664  0.0968
 1989POPC   D2A24126  21.300  31.650  16.212  0.0035 -0.0293 -0.0658
 1989POPC   C3A24127  21.186  31.967  16.501 -0.0564 -0.1160  0.2550
 1989POPC   C4A24128  21.045  32.381  16.581 -0.1034 -0.3289 -0.1349
 1989POPC   C1B24129  21.256  31.107  15.900 -0.1806  0.1304 -0.0652
 1989POPC   C2B24130  21.435  31.043  16.290  0.1158  0.2038 -0.2273
 1989POPC   C3B24131  21.350  31.066  16.767 -0.0900  0.3434 -0.1020
 1989POPC   C4B24132  20.986  31.073  17.077  0.0473  0.1576 -0.4605
 1990POPC   NC324133  10.984   0.844  15.149 -0.2404 -0.2292 -0.3084
 1990POPC   PO424134  11.365   0.705  15.213  0.0540 -0.2147  0.0567
 1990POPC   GL124135  11.536   0.888  15.561  0.1442 -0.0247  0.2603
 1990POPC   GL224136  11.819   1.023  15.491 -0.2384  0.2849 -0.1488
 1990POPC   C1A24137  11.439   0.599  15.920  0.2032 -0.2119 -0.0713
 1990POPC   D2A24138  11.667   0.581  16.364 -0.2052  0.0777 -0.3166
 1990POPC   C3A24139  12.061   0.273  16.529  0.3215 -0.0837 -0.2785
 1990POPC   C4A24140  12.083   0.102  16.895 -0.0247 -0.1782  0.1717
 1990POPC   C1B24141  12.071   0.880  15.779 -0.1825 -0.0560 -0.0436
 1990POPC   C2B24142  12.128   0.673  16.155 -0.2164  0.0896  0.0243
 1990POPC   C3B24143  12.167   0.741  16.637  0.2447  0.1095 -0.2630
 1990POPC   C4B24144  12.373   0.878  17.088  0.3853  0.3590  0.1957
 1991POPC   NC324145  22.063  25.833  15.330 -0.1607 -0.2557 -0.1175
 1991POPC   PO424146  21.673  25.705  15.203 -0.1035 -0.0071  0.0407
 1991POPC   GL124147  21.427  25.518  15.433  0.2794  0.1867  0.4441
 1991POPC   GL224148  21.265  25.700  15.557 -0.0758  0.2496  0.2851
 1991POPC   C1A24149  21.256  25.368  15.887  0.1387  0.2685  0.0382
 1991POPC   D2A24150  21.367  25.345  16.352  0.1518 -0.1807  0.0015
 1991POPC   C3A24151  21.648  25.478  16.684 -0.0359 -0.0863 -0.0838
 1991POPC   C4A24152  21.918  25.693  17.022 -0.0339 -0.1147  0.2077
 1991POPC   C1B24153  21.330  25.894  15.932 -0.1069 -0.1384  0.1032
 1991POPC   C2B24154  21.106  25.943  16.353  0.1954  0.1655  0.2925
 1991POPC   C3B24155  20.848  26.038  16.710  0.1458  0.1107 -0.0260
 1991POPC   C4B24156  20.561  26.313  16.941  0.1367  0.1216  0.1023
 1992POPC   NC324157  24.976   7.687  15.421 -0.1271  0.0696  0.0441
 1992POPC   PO424158  25.178   8.010  15.277  0.1769  0.3524 -0.2251
 1992POPC   GL124159  24.898   8.050  15.670  0.3196  0.0412  0.0337
 1992POPC   GL224160  24.947   8.232  15.830 -0.1205 -0.0560 -0.2437
 1992POPC   C1A24161  24.508   8.105  15.920 -0.3746 -0.2161  0.1192
 1992POPC   D2A24162  24.124   8.343  16.035  0.1604 -0.0824  0.2116
 1992POPC   C3A24163  23.887   8.266  16.407  0.3169 -0.0784 -0.0966
 1992POPC   C4A24164  23.608   8.424  16.700 -0.0984 -0.1743  0.1230
 1992POPC   C1B24165  25.302   8.239  16.140 -0.1702 -0.1569 -0.0925
 1992POPC   C2B24166  25.397   8.055  16.565 -0.2028 -0.3066  0.0668
 1992POPC   C3B24167  25.672   7.919  16.914  0.3323  0.0865 -0.3255
 1992POPC   C4B24168  25.699   7.929  17.387 -0.4039 -0.2477  0.2107
 1993POPC   NC324169  13.949  25.242  15.068 -0.0079 -0.1939 -0.0067
 1993POPC   PO424170  13.617  25.360  14.974 -0.0264  0.1240  0.1787
 1993POPC   GL124171  13.565  24.985  15.234 -0.3828  0.0868  0.0003
 1993POPC   GL224172  13.507  25.128  15.374 -0.0632 -0.0174 -0.1631
 1993POPC   C1A24173  13.853  24.919  15.630  0.1184 -0.0322  0.1791
 1993POPC   D2A24174  13.817  24.763  16.090 -0.2694  0.1158  0.0314
 1993POPC   C3A24175  13.697  24.511  16.503 -0.0743  0.3372  0.1936
 1993POPC   C4A24176  13.609  24.236  16.847  0.1726  0.0119 -0.2020
 1993POPC   C1B24177  13.471  25.113  15.893 -0.0035  0.0458  0.0616
 1993POPC   C2B24178  13.465  25.138  16.362 -0.1654  0.0110 -0.0294
 1993POPC   C3B24179  13.533  25.324  16.794  0.0334  0.0387 -0.1569
 1993POPC   C4B24180  13.539  25.543  17.164  0.0672  0.3187 -0.0486
 1994POPC   NC324181  10.274  30.527  15.385 -0.0549  0.0445  0.1699
 1994POPC   PO424182  10.027  30.860  15.459  0.2411  0.2677 -0.1570
 1994POPC   GL124183  10.115  30.924  15.852  0.0411  0.2048 -0.1382
 1994POPC   GL224184  10.359  30.885  15.878  0.5703 -0.0783 -0.1628
 1994POPC   C1A24185  10.107  30.805  16.324  0.1108  0.0324  0.1065
 1994POPC   D2A24186   9.757  30.699  16.603  0.0424  0.0829 -0.1233
 1994POPC   C3A24187   9.831  30.943  16.954 -0.2183 -0.2449  0.0362
 1994POPC   C4A24188   9.572  31.080  17.291 -0.3856  0.2171  0.1196
 1994POPC   C1B24189  10.358  31.316  16.115 -0.0428  0.1472 -0.5171
 1994POPC   C2B24190  10.322  31.680  16.422  0.0045  0.0421 -0.0710
 1994POPC   C3B24191  10.489  31.793  16.872  0.0620  0.2005  0.1550
 1994POPC   C4B24192  10.679  31.908  17.291  0.0770 -0.2459 -0.1225
 1995POPC   NC324193  18.694  11.977  15.362 -0.1851  0.3424  0.0489
 1995POPC   PO424194  18.828  12.364  15.351  0.2367 -0.1713 -0.4627
 1995POPC   GL124195  19.033  12.668  15.515 -0.1614  0.2443  0.1101
 1995POPC   GL224196  18.991  12.581  15.765 -0.2570 -0.3032 -0.1964
 1995POPC   C1A24197  19.156  13.038  15.743 -0.0416  0.0500 -0.0611
 1995POPC   D2A24198  19.133  13.396  16.003 -0.1457 -0.0400 -0.0234
 1995POPC   C3A24199  19.113  13.624  16.349  0.1041  0.3164 -0.3766
 1995POPC   C4A24200  18.832  13.679  16.662  0.5869  0.2189 -0.0952
 1995POPC   C1B24201  19.069  12.431  16.200 -0.1549  0.0245 -0.4750
 1995POPC   C2B24202  19.210  12.398  16.655  0.1768  0.2516  0.1158
 1995POPC   C3B24203  19.048  12.174  17.008  0.2190  0.1840 -0.0166
 1995POPC   C4B24204  18.703  11.931  17.240 -0.3189 -0.1120 -0.1568
 1996POPC   NC324205  27.506  12.481  14.890 -0.2107  0.0341 -0.1934
 1996POPC   PO424206  27.617  12.133  14.787 -0.1130 -0.1009 -0.0710
 1996POPC   GL124207  27.633  12.140  15.194 -0.0499 -0.1277 -0.2264
 1996POPC   GL224208  27.448  11.919  15.187  0.0046 -0.0374  0.1900
 1996POPC   C1A24209  27.920  12.082  15.562 -0.1608  0.0480  0.4054
 1996POPC   D2A24210  28.098  12.019  16.003  0.2679 -0.1095  0.1723
 1996POPC   C3A24211  28.000  12.030  16.435 -0.2996 -0.1259 -0.1080
 1996POPC   C4A24212  27.944  12.343  16.783 -0.0834 -0.2692 -0.1550
 1996POPC   C1B24213  27.313  12.242  15.498 -0.2866 -0.0721  0.0956
 1996POPC   C2B24214  27.513  12.329  15.906  0.0397 -0.3024 -0.0465
 1996POPC   C3B24215  27.441  12.139  16.342 -0.0597 -0.0265 -0.0206
 1996POPC   C4B24216  27.388  12.260  16.779  0.1138 -0.1506 -0.1501
 1997POPC   NC324217  17.404  19.998  15.318  0.3678 -0.0524 -0.2032
 1997POPC   PO424218  17.073  20.204  15.205 -0.2520  0.0094  0.2835
 1997POPC   GL124219  17.177  20.407  15.466 -0.1649 -0.0841 -0.5537
 1997POPC   GL224220  17.337  20.653  15.488  0.1693  0.3917  0.0616
 1997POPC   C1A24221  17.188  20.440  15.966  0.3481  0.1163  0.0252
 1997POPC   D2A24222  17.103  20.461  16.439 -0.0546 -0.0675  0.0146
 1997POPC   C3A24223  17.463  20.599  16.714  0.0415  0.1159 -0.2958
 1997POPC   C4A24224  17.612  20.670  17.150  0.1590  0.1414  0.5361
 1997POPC   C1B24225  17.502  20.838  15.890  0.1268  0.2655 -0.1078
 1997POPC   C2B24226  17.543  21.024  16.290  0.0920  0.1246 -0.3927
 1997POPC   C3B24227  17.252  21.067  16.672  0.1960 -0.0106 -0.0145
 1997POPC   C4B24228  16.934  21.204  16.970  0.0770 -0.1244 -0.2274
 1998POPC   NC324229   1.146  25.491  15.072 -0.2648 -0.2230 -0.1489
 1998POPC   PO424230   0.878  25.579  15.365  0.1233  0.2114  0.1415
 1998POPC   GL124231   0.620  25.571  15.738  0.0409  0.0547  0.1831
 1998POPC   GL224232   0.343  25.568  15.700  0.1187 -0.0562 -0.0555
 1998POPC   C1A24233   0.492  25.469  16.166  0.0531  0.3008 -0.0502
 1998POPC   D2A24234   0.362  25.368  16.598  0.0066  0.0738  0.0016
 1998POPC   C3A24235   0.462  25.595  17.043 -0.1659  0.0671  0.2387
 1998POPC   C4A24236   0.352  25.601  17.421 -0.0949 -0.1203  0.0874
 1998POPC   C1B24237  -0.001  25.590  16.064 -0.1614 -0.1641  0.1252
 1998POPC   C2B24238  -0.434  25.540  16.317 -0.0787  0.0463  0.0627
 1998POPC   C3B24239  -0.692  25.410  16.699 -0.1874 -0.0702  0.0327
 1998POPC   C4B24240  -1.077  25.294  16.979  0.3745 -0.0546  0.0853
 1999POPC   NC324241  16.551  25.184  14.889 -0.1767  0.0533  0.1725
 1999POPC   PO424242  16.415  25.309  15.234  0.1625  0.0384  0.1160
 1999POPC   GL124243  16.283  25.130  15.568 -0.0840  0.0589  0.0662
 1999POPC   GL224244  16.613  25.181  15.675  0.2522  0.0816  0.4314
 1999POPC   C1A24245  16.369  24.885  15.935 -0.2009 -0.1897 -0.2029
 1999POPC   D2A24246  16.173  24.872  16.365 -0.2708  0.0257  0.0862
 1999POPC   C3A24247  16.359  24.887  16.784  0.0498  0.0283  0.0187
 1999POPC   C4A24248  16.536  24.840  17.218 -0.0443  0.3453 -0.2353
 1999POPC   C1B24249  16.510  25.372  16.078  0.1084 -0.2990 -0.0454
 1999POPC   C2B24250  16.465  25.614  16.483  0.2135 -0.0712 -0.3588
 1999POPC   C3B24251  16.301  25.658  16.888 -0.1032 -0.1034  0.1256
 1999POPC   C4B24252  16.548  25.430  17.110 -0.0143 -0.1974  0.1335
 2000POPC   NC324253   5.154   5.706  15.482  0.0211  0.0027 -0.1137
 2000POPC   PO424254   4.919   5.955  15.286 -0.2572 -0.0925  0.0772
 2000POPC   GL124255   5.239   6.176  15.507  0.2598  0.0306 -0.4591
 2000POPC   GL224256   5.254   6.537  15.350  0.2055  0.3458  0.3117
 2000POPC   C1A24257   5.212   6.307  15.927 -0.0544 -0.0852  0.1056
 2000POPC   D2A24258   5.350   6.321  16.381  0.2087 -0.3428  0.2164
 2000POPC   C3A24259   5.640   6.182  16.774 -0.1290  0.1192 -0.0091
 2000POPC   C4A24260   6.049   6.332  17.063 -0.1583  0.0862  0.2237
 2000POPC   C1B24261   5.306   6.748  15.757 -0.1249  0.0246  0.1984
 2000POPC   C2B24262   5.246   7.168  15.943 -0.0722  0.2655 -0.0611
 2000POPC   C3B24263   5.433   7.531  16.060  0.0704 -0.0514 -0.2291
 2000POPC   C4B24264   5.682   7.556  16.469  0.2334  0.1018  0.4880
 2001POPC   NC324265   8.885  20.809  15.666 -0.0650 -0.0886 -0.0467
 2001POPC   PO424266   9.031  21.184  15.594  0.1816 -0.0280 -0.2433
 2001POPC   GL124267   9.037  21.250  15.899 -0.0472  0.0254 -0.3926
 2001POPC   GL224268   8.791  21.266  16.108  0.0265  0.0023  0.0254
 2001POPC   C1A24269   9.305  21.230  16.267 -0.0284  0.1410 -0.3942
 2001POPC   D2A24270   9.193  21.160  16.702  0.2386 -0.0588 -0.1583
 2001POPC   C3A24271   9.280  21.370  17.124 -0.0239 -0.2048  0.2168
 2001POPC   C4A24272   8.943  21.555  17.326 -0.0096  0.1397  0.2458
 2001POPC   C1B24273   8.886  21.432  16.490  0.1634  0.0690 -0.0869
 2001POPC   C2B24274   8.938  21.696  16.869 -0.0953 -0.4205  0.0234
 2001POPC   C3B24275   8.998  22.046  17.152  0.0290  0.3592 -0.0343
 2001POPC   C4B24276   9.305  22.127  17.447 -0.0822 -0.0396 -0.1805
 2002POPC   NC324277   9.047  27.262  15.299 -0.0509 -0.1266 -0.0240
 2002POPC   PO424278   9.294  26.963  15.380  0.1490 -0.1329 -0.1683
 2002POPC   GL124279   9.178  27.141  15.724  0.2449  0.0466  0.3974
 2002POPC   GL224280   9.462  27.227  15.884 -0.1354  0.1030  0.0257
 2002POPC   C1A24281   9.132  27.044  16.212 -0.1861 -0.0382 -0.0452
 2002POPC   D2A24282   9.060  27.023  16.665  0.1347  0.5437  0.2128
 2002POPC   C3A24283   8.860  26.722  16.990  0.0242 -0.1648 -0.1513
 2002POPC   C4A24284   8.763  26.457  17.378 -0.0660  0.4371 -0.2758
 2002POPC   C1B24285   9.685  27.276  16.297 -0.1225  0.1333  0.0354
 2002POPC   C2B24286   9.537  27.199  16.694 -0.0247  0.3266  0.0220
 2002POPC   C3B24287   9.806  27.086  17.041 -0.1582 -0.0518  0.2265
 2002POPC   C4B24288  10.180  26.926  17.143  0.1453  0.1947 -0.0070
 2003POPC   NC324289   1.911  19.750  15.480  0.1177  0.1997  0.4107
 2003POPC   PO424290   1.784  20.091  15.610  0.0313  0.1430 -0.0812
 2003POPC   GL124291   1.903  20.047  15.940 -0.3145 -0.0787 -0.0445
 2003POPC   GL224292   1.832  19.721  16.011  0.0478 -0.1797 -0.2398
 2003POPC   C1A24293   2.027  20.367  16.282  0.0736  0.1336  0.2638
 2003POPC   D2A24294   2.145  20.500  16.723  0.3012  0.1374  0.0283
 2003POPC   C3A24295   2.508  20.568  16.945 -0.0888 -0.1204  0.5104
 2003POPC   C4A24296   2.630  20.998  16.844 -0.3123 -0.2813  0.1772
 2003POPC   C1B24297   1.784  19.780  16.495 -0.2590  0.0585 -0.0397
 2003POPC   C2B24298   1.947  19.618  16.889 -0.2384 -0.0534  0.1870
 2003POPC   C3B24299   1.882  19.155  17.077 -0.2228 -0.2867  0.0416
 2003POPC   C4B24300   2.165  18.885  17.327  0.4338 -0.0792  0.0772
 2004POPC   NC324301  20.135  21.878  15.190  0.0826 -0.2571 -0.1221
 2004POPC   PO424302  19.770  21.776  15.340 -0.0526 -0.0111  0.1475
 2004POPC   GL124303  20.009  21.739  15.587  0.0464  0.2848 -0.2758
 2004POPC   GL224304  20.275  21.934  15.689 -0.0017 -0.0882  0.2154
 2004POPC   C1A24305  19.969  21.361  15.830 -0.3652  0.0322 -0.2977
 2004POPC   D2A24306  19.999  21.179  16.291  0.0771 -0.2981  0.0957
 2004POPC   C3A24307  20.264  21.430  16.589  0.3464 -0.2930 -0.1895
 2004POPC   C4A24308  19.927  21.646  16.895 -0.6514  0.0900 -0.0970
 2004POPC   C1B24309  20.518  22.163  15.975 -0.0068 -0.0147  0.0091
 2004POPC   C2B24310  20.533  22.324  16.431  0.1012 -0.0767  0.1361
 2004POPC   C3B24311  20.714  22.321  16.853 -0.1949 -0.1249  0.0128
 2004POPC   C4B24312  20.939  22.369  17.277  0.2561  0.0308  0.0753
 2005POPC   NC324313  26.054   0.423  14.911 -0.0487  0.0102  0.0785
 2005POPC   PO424314  26.348   0.173  14.838 -0.0174  0.2877  0.2237
 2005POPC   GL124315  26.566   0.023  15.187 -0.2753 -0.0160 -0.3208
 2005POPC   GL224316  26.707  -0.169  15.098 -0.1883  0.1526  0.0568
 2005POPC   C1A24317  26.735   0.303  15.554 -0.3428  0.2010  0.1559
 2005POPC   D2A24318  27.050   0.317  15.896  0.2944 -0.0425 -0.0716
 2005POPC   C3A24319  27.178   0.237  16.288  0.1155 -0.0705  0.1166
 2005POPC   C4A24320  27.342   0.283  16.712  0.1858 -0.0755  0.0273
 2005POPC   C1B24321  26.899  -0.181  15.533 -0.2013  0.1543  0.0676
 2005POPC   C2B24322  27.292  -0.283  15.726  0.1600  0.0872 -0.1478
 2005POPC   C3B24323  27.698  -0.482  15.778  0.1993 -0.2690 -0.0177
 2005POPC   C4B24324  28.113  -0.586  15.685  0.2614  0.0742  0.2465
 2006POPC   NC324325  28.707  27.846  15.099 -0.1400 -0.2517 -0.2287
 2006POPC   PO424326  28.354  28.001  15.144  0.1685 -0.0408 -0.0799
 2006POPC   GL124327  28.363  27.729  15.512  0.0928 -0.0304 -0.2510
 2006POPC   GL224328  28.593  27.586  15.630  0.1283  0.0095 -0.0732
 2006POPC   C1A24329  28.084  27.823  15.882 -0.0429  0.0952 -0.1894
 2006POPC   D2A24330  27.953  27.877  16.331 -0.2175 -0.0425  0.2455
 2006POPC   C3A24331  28.178  27.853  16.724 -0.0589  0.0770  0.1182
 2006POPC   C4A24332  28.157  27.748  17.166  0.1986 -0.1853  0.3090
 2006POPC   C1B24333  28.677  27.632  16.067  0.1395  0.1043 -0.1565
 2006POPC   C2B24334  28.515  27.939  16.353  0.2666  0.1491  0.0331
 2006POPC   C3B24335  28.610  28.163  16.752  0.0706  0.0719  0.2213
 2006POPC   C4B24336  28.634  28.045  17.185 -0.0952 -0.1300  0.0776
 2007POPC   NC324337   6.995   0.000  14.895 -0.0287  0.0969 -0.1698
 2007POPC   PO424338   6.756  -0.010  15.214 -0.3751  0.2542 -0.0982
 2007POPC   GL124339   6.826   0.204  15.582 -0.0698 -0.0090  0.0690
 2007POPC   GL224340   7.141   0.306  15.602 -0.1544 -0.1071  0.0870
 2007POPC   C1A24341   6.604   0.473  15.884 -0.0209  0.2727 -0.0747
 2007POPC   D2A24342   6.700   0.849  16.123 -0.0614 -0.0443 -0.0092
 2007POPC   C3A24343   6.621   1.048  16.523  0.4019 -0.1554  0.0025
 2007POPC   C4A24344   6.643   1.116  16.966 -0.0723 -0.0329  0.2063
 2007POPC   C1B24345   7.056   0.292  16.047  0.3783 -0.2327 -0.0825
 2007POPC   C2B24346   6.765   0.391  16.401 -0.2399  0.0799  0.0676
 2007POPC   C3B24347   6.774   0.656  16.822 -0.0586  0.3277  0.0221
 2007POPC   C4B24348   6.881   0.719  17.221 -0.0835  0.3340 -0.0398
 2008POPC   NC324349  14.206   8.222  15.266  0.0425 -0.1329 -0.0115
 2008POPC   PO424350  14.178   7.939  15.538 -0.0762  0.1074 -0.0094
 2008POPC   GL124351  14.353   8.095  15.910  0.2377  0.0340  0.0710
 2008POPC   GL224352  14.279   8.368  15.846  0.0255 -0.2628  0.0652
 2008POPC   C1A24353  14.552   8.031  16.351 -0.2662  0.0416 -0.0907
 2008POPC   D2A24354  14.675   8.165  16.762 -0.1693 -0.0736 -0.0722
 2008POPC   C3A24355  14.554   7.954  17.179 -0.1753 -0.1544 -0.1666
 2008POPC   C4A24356  14.708   7.754  17.525 -0.1645  0.1381 -0.0931
 2008POPC   C1B24357  14.275   8.503  16.291 -0.2712 -0.1587  0.0161
 2008POPC   C2B24358  14.278   8.727  16.705  0.3915 -0.1861  0.1798
 2008POPC   C3B24359  14.153   8.763  17.191  0.3097  0.1490  0.2712
 2008POPC   C4B24360  13.972   8.804  17.634 -0.3561 -0.2861  0.3821
 2009POPC   NC324361   9.450  21.469  15.743  0.5517  0.3478 -0.1147
 2009POPC   PO424362   9.647  21.698  15.469  0.2447 -0.1145  0.0342
 2009POPC   GL124363   9.751  21.824  15.839  0.3283  0.1856  0.2312
 2009POPC   GL224364   9.557  21.976  15.869  0.0555  0.1284  0.0490
 2009POPC   C1A24365   9.751  21.477  16.122 -0.2730  0.2209  0.1675
 2009POPC   D2A24366   9.682  21.311  16.571  0.0426  0.1500  0.0186
 2009POPC   C3A24367   9.650  20.872  16.698 -0.1362  0.0501 -0.0070
 2009POPC   C4A24368   9.544  20.582  16.368 -0.5503 -0.2225  0.2439
 2009POPC   C1B24369   9.634  22.097  16.286 -0.0430  0.0258 -0.0848
 2009POPC   C2B24370   9.857  22.060  16.742 -0.2671 -0.0311 -0.1293
 2009POPC   C3B24371  10.185  22.131  17.115 -0.0645  0.2094  0.1151
 2009POPC   C4B24372  10.536  22.379  17.293 -0.1297 -0.2471  0.0020
 2010POPC   NC324373  27.790  22.162  15.298  0.0730  0.1427 -0.1197
 2010POPC   PO424374  27.755  22.385  14.994  0.0070  0.0210 -0.1117
 2010POPC   GL124375  27.754  22.595  15.329  0.3155 -0.2422 -0.1601
 2010POPC   GL224376  27.998  22.737  15.414 -0.0729  0.0467 -0.3231
 2010POPC   C1A24377  27.776  22.481  15.787  0.2290 -0.0853  0.3036
 2010POPC   D2A24378  27.889  22.620  16.262  0.0197 -0.1345 -0.0919
 2010POPC   C3A24379  28.271  22.732  16.538  0.3867  0.0109  0.0513
 2010POPC   C4A24380  28.383  22.802  16.970  0.0345 -0.0555 -0.0700
 2010POPC   C1B24381  28.250  22.961  15.718 -0.2340  0.2246  0.2981
 2010POPC   C2B24382  28.384  23.034  16.137  0.0607 -0.0723 -0.1888
 2010POPC   C3B24383  28.567  23.106  16.562 -0.1828 -0.1698 -0.0299
 2010POPC   C4B24384  28.854  23.111  16.890 -0.1501  0.0036  0.1054
 2011POPC   NC324385   3.506  22.614  14.563 -0.0596  0.1200  0.1602
 2011POPC   PO424386   3.312  22.524  14.902 -0.1935  0.0568  0.2284
 2011POPC   GL124387   3.340  22.694  15.220 -0.0557  0.2091  0.1869
 2011POPC   GL224388   3.125  22.621  15.408 -0.0782  0.2516 -0.1945
 2011POPC   C1A24389   3.493  22.862  15.682  0.0622 -0.2149 -0.2718
 2011POPC   D2A24390   3.494  23.101  16.105  0.0562  0.0900  0.1796
 2011POPC   C3A24391   3.297  22.861  16.462  0.2540 -0.3396  0.2938
 2011POPC   C4A24392   3.442  22.616  16.793 -0.0028 -0.1159  0.0037
 2011POPC   C1B24393   3.210  22.432  15.814 -0.1817 -0.1110 -0.0591
 2011POPC   C2B24394   3.243  22.426  16.247 -0.0567  0.1630 -0.2748
 2011POPC   C3B24395   3.160  22.167  16.667  0.2787  0.1161 -0.0043
 2011POPC   C4B24396   3.061  21.846  16.962  0.0919 -0.0389  0.0458
 2012POPC   NC324397  20.308   9.318  15.187  0.0171  0.2349  0.0603
 2012POPC   PO424398  20.076   9.589  15.371 -0.2222 -0.2430 -0.2356
 2012POPC   GL124399  19.893   9.596  15.768 -0.6241 -0.0817 -0.2062
 2012POPC   GL224400  20.176   9.745  15.834 -0.3074  0.0063 -0.1587
 2012POPC   C1A24401  19.675   9.539  16.180  0.1602 -0.0542 -0.0007
 2012POPC   D2A24402  19.288   9.347  16.377 -0.0284 -0.1316 -0.0947
 2012POPC   C3A24403  19.258   9.226  16.840  0.2855  0.0852 -0.2595
 2012POPC   C4A24404  19.055   9.195  17.244 -0.0249  0.1173 -0.0943
 2012POPC   C1B24405  20.251   9.644  16.279 -0.0219  0.1353  0.2604
 2012POPC   C2B24406  20.412   9.983  16.537 -0.2299  0.0457 -0.0537
 2012POPC   C3B24407  20.655  10.058  16.939  0.0401 -0.5151 -0.0820
 2012POPC   C4B24408  20.742  10.293  17.326 -0.0510 -0.1739  0.2129
 2013POPC   NC324409   2.052  27.624  15.348  0.0104 -0.2283 -0.4398
 2013POPC   PO424410   1.730  27.760  15.544 -0.0760 -0.3768 -0.1447
 2013POPC   GL124411   1.839  27.846  15.954 -0.0018 -0.1202  0.1670
 2013POPC   GL224412   2.032  27.571  15.988 -0.0883 -0.1238  0.1273
 2013POPC   C1A24413   1.650  27.582  16.294  0.0901  0.0941 -0.0484
 2013POPC   D2A24414   1.721  27.349  16.653  0.1522  0.0783 -0.0256
 2013POPC   C3A24415   2.166  27.458  16.529  0.2211  0.2313 -0.0636
 2013POPC   C4A24416   2.522  27.195  16.529 -0.2465  0.1577  0.4371
 2013POPC   C1B24417   2.134  27.875  16.290 -0.0510  0.0436  0.0490
 2013POPC   C2B24418   2.260  28.056  16.663  0.1037  0.1927  0.3424
 2013POPC   C3B24419   2.563  28.107  16.970 -0.0965 -0.0390  0.2073
 2013POPC   C4B24420   2.981  27.972  17.027  0.0655  0.1558  0.1123
 2014POPC   NC324421  22.049   2.643  14.762  0.1436  0.1608  0.2051
 2014POPC   PO424422  22.088   3.028  14.891 -0.1592 -0.1698  0.2337
 2014POPC   GL124423  22.116   2.967  15.262 -0.1655  0.0088 -0.0194
 2014POPC   GL224424  21.885   3.090  15.421 -0.0707 -0.1221  0.2622
 2014POPC   C1A24425  22.384   3.083  15.619  0.0032  0.1388  0.4787
 2014POPC   D2A24426  22.378   3.044  16.069  0.1612  0.1777  0.0195
 2014POPC   C3A24427  22.768   2.895  16.298 -0.0855  0.2010  0.0520
 2014POPC   C4A24428  23.045   2.721  16.636 -0.1849 -0.1829  0.0224
 2014POPC   C1B24429  21.959   3.027  15.889  0.1151 -0.2421 -0.1981
 2014POPC   C2B24430  21.844   2.968  16.314 -0.3069  0.1736  0.0608
 2014POPC   C3B24431  21.548   2.875  16.620  0.0346  0.1314  0.4134
 2014POPC   C4B24432  21.289   2.910  17.051 -0.1415  0.2358  0.0783
 2015POPC   NC324433  19.481  22.154  15.471  0.0716 -0.3116 -0.1436
 2015POPC   PO424434  19.336  22.508  15.348  0.0424 -0.0952  0.2301
 2015POPC   GL124435  19.070  22.426  15.551 -0.4017 -0.0594  0.1915
 2015POPC   GL224436  18.873  22.589  15.624  0.1132 -0.0287  0.0491
 2015POPC   C1A24437  19.156  22.076  15.863 -0.1190 -0.1086 -0.0397
 2015POPC   D2A24438  19.209  21.836  16.274 -0.0469  0.0551 -0.1504
 2015POPC   C3A24439  19.120  21.988  16.687  0.2164  0.0932  0.0893
 2015POPC   C4A24440  18.808  22.194  16.965  0.0126 -0.1326 -0.2701
 2015POPC   C1B24441  18.584  22.743  16.001  0.1245 -0.0497 -0.1103
 2015POPC   C2B24442  18.292  22.606  16.353  0.1284  0.1013  0.0430
 2015POPC   C3B24443  18.011  22.597  16.749 -0.2292  0.0357 -0.6031
 2015POPC   C4B24444  17.748  22.623  17.088 -0.1045  0.0653  0.1115
 2016POPC   NC324445  16.131  29.064  14.916 -0.0788  0.0497 -0.0399
 2016POPC   PO424446  16.088  28.888  15.263  0.2107  0.3822 -0.3154
 2016POPC   GL124447  16.192  28.912  15.668  0.0853  0.6016  0.1413
 2016POPC   GL224448  16.278  28.724  15.877 -0.0699  0.0579  0.0122
 2016POPC   C1A24449  16.309  29.175  16.030 -0.0374  0.0614  0.1125
 2016POPC   D2A24450  16.672  29.241  16.287  0.0344 -0.0027 -0.3657
 2016POPC   C3A24451  16.642  29.488  16.675  0.0796  0.0882 -0.0920
 2016POPC   C4A24452  16.859  29.633  17.033  0.2354 -0.4707  0.5764
 2016POPC   C1B24453  16.445  28.563  16.237 -0.0096 -0.0872  0.1902
 2016POPC   C2B24454  16.481  28.405  16.687 -0.1369  0.0147 -0.0664
 2016POPC   C3B24455  16.686  28.626  17.055 -0.0468 -0.1997 -0.0026
 2016POPC   C4B24456  16.938  28.588  17.436  0.1453 -0.1691  0.2149
 2017POPC   NC324457  10.370  16.625  15.049 -0.0959  0.0876 -0.1954
 2017POPC   PO424458  10.606  16.845  15.266  0.0705 -0.3051  0.0685
 2017POPC   GL124459  10.860  16.977  15.532 -0.2412  0.0017  0.1017
 2017POPC   GL224460  10.683  17.161  15.645  0.1409 -0.2140 -0.0967
 2017POPC   C1A24461  11.335  16.967  15.597  0.0529 -0.2160 -0.0650
 2017POPC   D2A24462  11.762  17.013  15.764 -0.0837 -0.2771  0.2629
 2017POPC   C3A24463  11.998  16.648  16.004  0.1571  0.3955  0.0557
 2017POPC   C4A24464  12.446  16.478  16.031 -0.3671 -0.1516  0.0989
 2017POPC   C1B24465  10.908  16.998  15.974 -0.3151  0.0537 -0.0287
 2017POPC   C2B24466  11.314  17.084  16.113 -0.2506 -0.2879 -0.1601
 2017POPC   C3B24467  11.741  17.074  16.263  0.2495  0.5622  0.1320
 2017POPC   C4B24468  12.211  17.033  16.294 -0.2229  0.3095 -0.0885
 2018POPC   NC324469   4.469  13.665  15.060 -0.1590  0.1468  0.0089
 2018POPC   PO424470   4.832  13.710  15.168 -0.0612  0.0869  0.1582
 2018POPC   GL124471   4.941  13.472  15.460 -0.0452  0.1850 -0.2144
 2018POPC   GL224472   5.004  13.200  15.461  0.1429 -0.1724  0.2355
 2018POPC   C1A24473   4.946  13.696  15.897 -0.0310  0.0804 -0.0369
 2018POPC   D2A24474   4.870  13.848  16.331  0.2600  0.3594  0.0861
 2018POPC   C3A24475   4.939  13.615  16.751  0.1369  0.0835 -0.0117
 2018POPC   C4A24476   4.995  13.355  17.106  0.2909  0.1781 -0.5401
 2018POPC   C1B24477   4.797  13.128  15.894  0.0634 -0.1182 -0.1105
 2018POPC   C2B24478   4.816  12.815  16.294 -0.0915 -0.1198  0.2261
 2018POPC   C3B24479   4.658  12.753  16.728 -0.1624  0.1836 -0.0781
 2018POPC   C4B24480   4.552  12.515  17.142 -0.2774 -0.2612 -0.0035
 2019POPC   NC324481  28.102  23.193  15.184  0.2234  0.2657  0.0638
 2019POPC   PO424482  28.246  23.546  15.061  0.3876  0.0152 -0.2021
 2019POPC   GL124483  28.346  23.637  15.362 -0.1335 -0.1183  0.2472
 2019POPC   GL224484  28.177  23.443  15.588  0.0523  0.0660 -0.0170
 2019POPC   C1A24485  28.689  23.808  15.620 -0.0177  0.1040  0.1501
 2019POPC   D2A24486  29.108  23.782  15.772  0.3829 -0.0164 -0.1222
 2019POPC   C3A24487  29.334  23.658  16.116 -0.2454  0.0982 -0.0441
 2019POPC   C4A24488  29.739  23.470  16.280 -0.2431  0.1420 -0.1733
 2019POPC   C1B24489  28.332  23.520  15.976 -0.0274 -0.1309  0.1447
 2019POPC   C2B24490  28.225  23.694  16.390  0.0010 -0.2539  0.1910
 2019POPC   C3B24491  28.233  23.916  16.797 -0.0667  0.1659  0.0733
 2019POPC   C4B24492  28.374  24.294  17.097  0.1944  0.2918 -0.0623
 2020POPC   NC324493  16.363  28.510  15.424  0.0892 -0.3452 -0.0863
 2020POPC   PO424494  16.314  28.228  15.662 -0.0097  0.1739  0.2511
 2020POPC   GL124495  16.172  28.223  16.087 -0.1084  0.0198  0.2555
 2020POPC   GL224496  15.945  28.365  16.100  0.4067  0.0821 -0.3596
 2020POPC   C1A24497  16.169  28.058  16.505 -0.1749  0.0032 -0.1983
 2020POPC   D2A24498  16.172  28.106  16.951 -0.0557  0.2687  0.3416
 2020POPC   C3A24499  16.404  27.827  17.183  0.0895 -0.0034  0.1738
 2020POPC   C4A24500  16.742  27.492  17.166  0.1795  0.0109 -0.2299
 2020POPC   C1B24501  16.060  28.526  16.470  0.1487  0.1285 -0.1538
 2020POPC   C2B24502  16.133  28.680  16.861 -0.0251 -0.3140  0.1059
 2020POPC   C3B24503  16.298  28.703  17.310  0.1736  0.1822  0.0948
 2020POPC   C4B24504  16.511  28.906  17.615  0.3205  0.2678  0.1735
 2021POPC   NC324505   5.891  17.197  15.280 -0.0955  0.1082  0.0829
 2021POPC   PO424506   6.058  17.532  15.384  0.0736 -0.1954 -0.0840
 2021POPC   GL124507   6.031  17.242  15.709  0.0711 -0.2703  0.3758
 2021POPC   GL224508   6.206  17.284  15.871 -0.1600  0.1503  0.1110
 2021POPC   C1A24509   5.681  17.062  15.932 -0.4528 -0.1229 -0.0739
 2021POPC   D2A24510   5.509  17.199  16.380  0.0252 -0.1678 -0.2988
 2021POPC   C3A24511   5.580  17.582  16.579  0.0742 -0.4170  0.0555
 2021POPC   C4A24512   5.841  17.908  16.376  0.0182 -0.1902 -0.1656
 2021POPC   C1B24513   6.224  16.986  16.204 -0.2732  0.2247 -0.1559
 2021POPC   C2B24514   6.201  16.724  16.567  0.0471 -0.1598 -0.1360
 2021POPC   C3B24515   6.239  16.489  16.990 -0.2583 -0.1640  0.0340
 2021POPC   C4B24516   6.198  16.272  17.398 -0.1541 -0.0886 -0.1861
 2022POPC   NC324517  29.837  20.540  15.162 -0.1447 -0.0249  0.0154
 2022POPC   PO424518  29.468  20.441  15.244 -0.0030  0.3107  0.1569
 2022POPC   GL124519  29.570  20.477  15.622  0.0872  0.2015 -0.0467
 2022POPC   GL224520  29.667  20.201  15.698  0.1371  0.0139  0.2506
 2022POPC   C1A24521  29.191  20.327  15.880 -0.1354 -0.0862 -0.0246
 2022POPC   D2A24522  29.086  20.203  16.342  0.0906 -0.3467 -0.0769
 2022POPC   C3A24523  29.039  20.224  16.760  0.1122  0.0781  0.1086
 2022POPC   C4A24524  28.973  19.866  17.046  0.0485 -0.0262 -0.0904
 2022POPC   C1B24525  29.621  20.345  16.102 -0.2243 -0.0558 -0.0682
 2022POPC   C2B24526  29.503  20.436  16.522  0.0525 -0.1272  0.4875
 2022POPC   C3B24527  29.179  20.699  16.724  0.1224  0.2255  0.0723
 2022POPC   C4B24528  28.839  20.953  16.815  0.0950  0.2188  0.1133
 2023POPC   NC324529  12.896  24.463  15.020 -0.3091 -0.1268 -0.1932
 2023POPC   PO424530  12.546  24.447  15.187  0.0118  0.0413 -0.2992
 2023POPC   GL124531  12.441  24.685  15.487 -0.0006 -0.0562  0.0434
 2023POPC   GL224532  12.183  24.747  15.407 -0.0979 -0.0747 -0.1708
 2023POPC   C1A24533  12.507  24.859  15.956  0.0394 -0.1592  0.1937
 2023POPC   D2A24534  12.524  24.849  16.410  0.2479 -0.0185 -0.0769
 2023POPC   C3A24535  12.186  25.108  16.554 -0.1862  0.2586  0.0845
 2023POPC   C4A24536  11.840  25.425  16.629 -0.0048  0.3082 -0.1906
 2023POPC   C1B24537  12.034  24.713  15.826 -0.2694  0.0311  0.0987
 2023POPC   C2B24538  12.048  24.744  16.271  0.0291 -0.1570 -0.2234
 2023POPC   C3B24539  11.757  24.864  16.627  0.1924  0.0993 -0.1610
 2023POPC   C4B24540  11.859  24.944  17.109 -0.1922 -0.0131 -0.0608
 2024POPC   NC324541  30.511  28.460  15.516 -0.1732  0.0505  0.0081
 2024POPC   PO424542  30.213  28.147  15.484 -0.0172  0.0800  0.0663
 2024POPC   GL124543  30.199  27.802  15.594  0.0869  0.2876  0.4398
 2024POPC   GL224544  30.337  27.946  15.886 -0.2206 -0.0084  0.2419
 2024POPC   C1A24545  30.396  27.481  15.811  0.1238  0.1850  0.1803
 2024POPC   D2A24546  30.623  27.172  16.099  0.2890  0.0911  0.2045
 2024POPC   C3A24547  30.441  27.102  16.485 -0.0069 -0.1234 -0.2361
 2024POPC   C4A24548  30.293  26.683  16.646 -0.2856 -0.1656  0.1141
 2024POPC   C1B24549  30.507  27.641  16.245  0.3587 -0.1642 -0.0770
 2024POPC   C2B24550  30.754  27.482  16.603 -0.4025 -0.1748  0.0155
 2024POPC   C3B24551  30.895  27.158  16.891 -0.0044  0.1896  0.0871
 2024POPC   C4B24552  31.027  26.794  17.212  0.1457 -0.0117  0.0261
 2025POPC   NC324553   5.688  27.047  15.030  0.2376 -0.1425  0.0592
 2025POPC   PO424554   5.504  26.792  15.225  0.0505  0.1882  0.0659
 2025POPC   GL124555   5.542  26.780  15.550  0.1823  0.2830  0.1897
 2025POPC   GL224556   5.300  26.869  15.810 -0.0109  0.2618 -0.1175
 2025POPC   C1A24557   5.721  26.691  15.977 -0.0758 -0.2441 -0.1240
 2025POPC   D2A24558   5.743  26.452  16.303  0.0469 -0.0190  0.3638
 2025POPC   C3A24559   5.807  26.538  16.752 -0.0170  0.2955 -0.0353
 2025POPC   C4A24560   5.996  26.527  17.188 -0.1270  0.1700 -0.0990
 2025POPC   C1B24561   5.370  26.942  16.316  0.0392  0.1796 -0.0165
 2025POPC   C2B24562   5.445  26.915  16.782 -0.1611  0.0606  0.3334
 2025POPC   C3B24563   5.708  26.924  17.229 -0.2362  0.1326  0.0421
 2025POPC   C4B24564   5.652  27.119  17.627 -0.1078  0.2930  0.2770
 2026POPC   NC324565  10.237  25.397  15.278  0.0673 -0.2257 -0.6282
 2026POPC   PO424566  10.195  25.767  15.199  0.0703 -0.3489  0.1331
 2026POPC   GL124567  10.078  25.792  15.543  0.0897  0.1165 -0.3134
 2026POPC   GL224568   9.832  25.626  15.500  0.1495 -0.0067  0.0521
 2026POPC   C1A24569  10.322  25.968  15.912 -0.2374  0.0497  0.1707
 2026POPC   D2A24570  10.478  26.271  16.188 -0.0232  0.0458 -0.2086
 2026POPC   C3A24571  10.742  26.245  16.567  0.1965 -0.1531  0.1963
 2026POPC   C4A24572  10.830  25.839  16.817  0.0071  0.0242 -0.3482
 2026POPC   C1B24573   9.894  25.666  15.958 -0.1114 -0.2049  0.1082
 2026POPC   C2B24574   9.976  25.995  16.263  0.2930  0.1853 -0.0988
 2026POPC   C3B24575  10.067  26.338  16.492 -0.2718 -0.0350 -0.1354
 2026POPC   C4B24576  10.339  26.628  16.705 -0.0294  0.1814 -0.1041
 2027POPC   NC324577  20.508  27.021  14.631  0.3800  0.3399  0.0968
 2027POPC   PO424578  20.621  26.867  14.952  0.0477 -0.0070 -0.1056
 2027POPC   GL124579  20.335  26.699  15.271  0.0373 -0.4060 -0.2363
 2027POPC   GL224580  20.109  26.722  15.049  0.0789 -0.0642 -0.2563
 2027POPC   C1A24581  20.292  26.323  15.560  0.2829 -0.2376  0.1842
 2027POPC   D2A24582  20.146  25.903  15.582  0.4019 -0.0605 -0.3313
 2027POPC   C3A24583  19.873  25.885  15.914 -0.0939 -0.0047 -0.0223
 2027POPC   C4A24584  19.476  26.052  15.909 -0.0052  0.0579 -0.1805
 2027POPC   C1B24585  19.744  26.672  15.292 -0.0435  0.0999 -0.0070
 2027POPC   C2B24586  19.342  26.434  15.264 -0.0942 -0.5071 -0.0106
 2027POPC   C3B24587  19.018  26.164  15.431 -0.0974 -0.1929  0.0624
 2027POPC   C4B24588  18.682  25.803  15.479  0.1442 -0.1101  0.1131
 2028POPC   NC324589  16.569  20.123  15.433  0.0989 -0.4266 -0.0505
 2028POPC   PO424590  16.760  19.742  15.326  0.0394  0.1424 -0.2496
 2028POPC   GL124591  16.738  19.796  15.765 -0.0204 -0.4348  0.2430
 2028POPC   GL224592  16.953  19.991  15.785  0.0872 -0.0483 -0.2265
 2028POPC   C1A24593  17.020  19.521  16.060 -0.1183 -0.1414  0.1304
 2028POPC   D2A24594  17.433  19.349  16.005 -0.2610 -0.2041  0.1495
 2028POPC   C3A24595  17.433  19.203  16.435 -0.1205  0.3781  0.2500
 2028POPC   C4A24596  17.534  19.028  16.840  0.1125 -0.1328 -0.0117
 2028POPC   C1B24597  16.698  19.941  16.202  0.0507 -0.3568 -0.0599
 2028POPC   C2B24598  16.819  19.973  16.659  0.1504  0.0488 -0.1647
 2028POPC   C3B24599  17.069  20.228  16.870  0.0191  0.3813 -0.2952
 2028POPC   C4B24600  17.076  20.680  17.032  0.1084 -0.0267 -0.0932
 2029POPC   NC324601  17.790   0.231  15.570  0.1751  0.0277  0.1035
 2029POPC   PO424602  17.567   0.399  15.310 -0.0054 -0.5218 -0.1987
 2029POPC   GL124603  17.554   0.684  15.579 -0.2436 -0.1729  0.0743
 2029POPC   GL224604  17.290   0.787  15.564 -0.2806 -0.1432 -0.1992
 2029POPC   C1A24605  17.570   0.889  15.977  0.3782  0.1566 -0.0126
 2029POPC   D2A24606  17.734   1.277  16.158  0.0191  0.0672  0.0440
 2029POPC   C3A24607  17.556   1.497  16.506  0.2302  0.1789 -0.1673
 2029POPC   C4A24608  17.300   1.732  16.799  0.0842  0.1089 -0.1477
 2029POPC   C1B24609  16.968   0.715  15.895  0.1462  0.2345 -0.0082
 2029POPC   C2B24610  16.674   0.643  16.220  0.0560  0.2557  0.1889
 2029POPC   C3B24611  16.567   0.692  16.588  0.3951 -0.0819  0.3567
 2029POPC   C4B24612  16.270   0.649  16.985  0.1994 -0.1245  0.3538
 2030POPC   NC324613   1.240  17.949  15.266  0.0100 -0.0426 -0.1276
 2030POPC   PO424614   1.258  18.182  14.941 -0.1634 -0.0847  0.1695
 2030POPC   GL124615   1.608  18.261  15.135 -0.3455  0.2544  0.1818
 2030POPC   GL224616   1.677  18.304  15.442 -0.1643  0.0315 -0.3374
 2030POPC   C1A24617   2.028  18.045  15.183 -0.1301  0.0415  0.2152
 2030POPC   D2A24618   2.381  17.747  15.164 -0.1963 -0.0605  0.0168
 2030POPC   C3A24619   2.103  17.364  15.028  0.1648  0.0182 -0.0219
 2030POPC   C4A24620   1.880  17.238  14.593 -0.1955 -0.1850  0.2865
 2030POPC   C1B24621   2.044  18.234  15.690 -0.3949 -0.1800  0.2800
 2030POPC   C2B24622   2.490  18.091  15.648  0.2750 -0.0579  0.1334
 2030POPC   C3B24623   2.725  17.726  15.712  0.2836  0.3373 -0.0504
 2030POPC   C4B24624   2.985  17.403  15.851  0.0419 -0.0629  0.3042
 2031POPC   NC324625  20.882  29.464  15.333 -0.1377  0.2092 -0.1205
 2031POPC   PO424626  21.182  29.175  15.336  0.0107  0.0164  0.0276
 2031POPC   GL124627  20.927  29.123  15.676  0.1199 -0.1733  0.0047
 2031POPC   GL224628  20.737  29.310  15.874  0.2308  0.2519  0.1312
 2031POPC   C1A24629  20.689  28.866  16.021 -0.0152  0.3159 -0.2527
 2031POPC   D2A24630  20.513  28.752  16.474  0.1632  0.3361  0.1242
 2031POPC   C3A24631  20.526  28.960  16.865 -0.3063  0.1648 -0.2078
 2031POPC   C4A24632  20.341  29.139  17.272 -0.0717 -0.0691 -0.1654
 2031POPC   C1B24633  20.373  29.353  16.118  0.1858 -0.0370  0.2251
 2031POPC   C2B24634  20.146  29.277  16.468  0.0180  0.0450  0.1393
 2031POPC   C3B24635  19.983  28.986  16.842  0.0597 -0.1478 -0.1319
 2031POPC   C4B24636  19.950  28.675  17.125 -0.2784 -0.3298  0.0739
 2032POPC   NC324637  11.869  14.622  15.216  0.4713  0.0626  0.1640
 2032POPC   PO424638  12.049  14.955  15.107 -0.1769  0.2247 -0.0632
 2032POPC   GL124639  12.059  15.246  15.492 -0.2906  0.2023 -0.1303
 2032POPC   GL224640  12.339  15.196  15.603 -0.3249 -0.0637  0.0067
 2032POPC   C1A24641  12.000  15.534  15.846 -0.1643 -0.1555 -0.1809
 2032POPC   D2A24642  12.055  15.586  16.297  0.0129  0.3281 -0.0859
 2032POPC   C3A24643  12.306  15.642  16.713  0.0226 -0.1597 -0.3580
 2032POPC   C4A24644  12.586  15.848  16.947  0.0355  0.1079 -0.2430
 2032POPC   C1B24645  12.532  15.278  16.047 -0.0245 -0.3332 -0.2646
 2032POPC   C2B24646  12.639  15.637  16.370  0.0853 -0.0557 -0.1556
 2032POPC   C3B24647  12.678  16.061  16.486  0.1321 -0.0807  0.3447
 2032POPC   C4B24648  12.848  16.490  16.405  0.1070  0.0467  0.2432
 2033POPC   NC324649  17.973   6.464  14.869 -0.2272 -0.0126  0.0900
 2033POPC   PO424650  18.131   6.566  15.216  0.0965 -0.0253 -0.1124
 2033POPC   GL124651  18.201   6.667  15.609  0.2592  0.1605  0.1403
 2033POPC   GL224652  17.966   6.702  15.697 -0.0437 -0.1939  0.0174
 2033POPC   C1A24653  18.357   6.610  16.063  0.3270 -0.3181 -0.0640
 2033POPC   D2A24654  18.496   6.670  16.528 -0.1302  0.1036  0.0515
 2033POPC   C3A24655  18.608   6.402  16.866 -0.2656 -0.3679  0.1723
 2033POPC   C4A24656  18.530   6.333  17.255 -0.1074 -0.0547 -0.2397
 2033POPC   C1B24657  17.865   6.881  16.094 -0.5023  0.0174 -0.3063
 2033POPC   C2B24658  17.977   6.801  16.553 -0.2070 -0.0735 -0.0239
 2033POPC   C3B24659  17.884   6.810  17.038 -0.2653  0.1209 -0.0289
 2033POPC   C4B24660  17.535   7.036  17.257  0.0924 -0.2555 -0.1456
 2034POPC   NC324661  29.188  25.358  14.961 -0.0709  0.0090  0.1405
 2034POPC   PO424662  29.368  25.733  14.981 -0.3011  0.1338 -0.0639
 2034POPC   GL124663  29.497  25.533  15.285 -0.0350  0.3051 -0.2031
 2034POPC   GL224664  29.286  25.533  15.512 -0.0863 -0.4692  0.2316
 2034POPC   C1A24665  29.717  25.493  15.697  0.0889 -0.1548  0.1208
 2034POPC   D2A24666  29.828  25.379  16.132 -0.2800 -0.1014  0.1108
 2034POPC   C3A24667  29.900  25.342  16.562 -0.0136  0.1713 -0.1051
 2034POPC   C4A24668  29.636  25.243  16.886  0.0576 -0.1796 -0.1117
 2034POPC   C1B24669  29.357  25.315  15.970  0.1278 -0.0122  0.0971
 2034POPC   C2B24670  29.432  25.157  16.378  0.0581 -0.1836  0.0600
 2034POPC   C3B24671  29.259  24.819  16.648  0.1695  0.4275  0.3755
 2034POPC   C4B24672  29.282  24.357  16.925 -0.1685  0.1444  0.0198
 2035POPC   NC324673  22.403  10.257  15.333 -0.3131  0.2414  0.0534
 2035POPC   PO424674  22.757  10.241  15.510  0.0009 -0.3370  0.0831
 2035POPC   GL124675  22.692  10.587  15.829 -0.1445 -0.2921  0.4127
 2035POPC   GL224676  22.859  10.808  15.814  0.1097 -0.0057  0.1420
 2035POPC   C1A24677  22.960  10.602  16.269  0.2461 -0.1878  0.2713
 2035POPC   D2A24678  23.055  10.401  16.686 -0.2607 -0.2007 -0.0305
 2035POPC   C3A24679  22.861  10.637  16.999  0.0092 -0.1774 -0.0387
 2035POPC   C4A24680  22.687  10.737  17.407  0.1517 -0.1790  0.1086
 2035POPC   C1B24681  22.735  11.046  16.278 -0.3621 -0.1094 -0.1405
 2035POPC   C2B24682  22.810  11.150  16.715 -0.1037 -0.3222 -0.3815
 2035POPC   C3B24683  22.823  11.218  17.184  0.1806  0.0481 -0.0944
 2035POPC   C4B24684  23.102  11.465  17.496  0.0876  0.0618  0.0611
 2036POPC   NC324685  15.980  21.989  14.673 -0.1302 -0.0327 -0.0530
 2036POPC   PO424686  16.112  22.288  14.903 -0.1009  0.0142  0.1136
 2036POPC   GL124687  16.253  22.387  15.221 -0.0131 -0.1274  0.1866
 2036POPC   GL224688  16.334  22.133  15.437  0.3464  0.0768 -0.1448
 2036POPC   C1A24689  16.493  22.719  15.451  0.1560 -0.1343 -0.1964
 2036POPC   D2A24690  16.699  22.977  15.814 -0.1507  0.0295  0.1098
 2036POPC   C3A24691  16.505  23.070  16.180 -0.0703  0.3529  0.2761
 2036POPC   C4A24692  16.216  23.226  16.548 -0.1136 -0.0210  0.0911
 2036POPC   C1B24693  16.367  22.397  15.811 -0.0433 -0.1776  0.1671
 2036POPC   C2B24694  16.217  22.434  16.244 -0.4808 -0.0962  0.1411
 2036POPC   C3B24695  16.309  22.749  16.606 -0.1183  0.2365  0.0473
 2036POPC   C4B24696  16.599  22.915  16.877 -0.3906 -0.0852  0.0429
 2037POPC   NC324697  23.192  11.539  15.367 -0.0080  0.1245 -0.2010
 2037POPC   PO424698  22.924  11.732  15.548  0.1162 -0.1863 -0.1082
 2037POPC   GL124699  22.948  11.964  15.892 -0.2599  0.0467  0.1511
 2037POPC   GL224700  23.141  12.148  15.766  0.0700 -0.1462  0.2247
 2037POPC   C1A24701  23.070  11.914  16.373 -0.1035  0.4101  0.0076
 2037POPC   D2A24702  23.231  12.035  16.750 -0.1659  0.0924 -0.0862
 2037POPC   C3A24703  23.624  12.074  16.983  0.3555 -0.0714  0.2451
 2037POPC   C4A24704  24.008  12.060  17.165 -0.3176 -0.0530 -0.0771
 2037POPC   C1B24705  23.310  12.251  16.153 -0.2787 -0.1107 -0.1168
 2037POPC   C2B24706  23.567  12.309  16.553 -0.0879 -0.1192  0.2275
 2037POPC   C3B24707  23.556  12.577  16.954 -0.2102  0.0866  0.1113
 2037POPC   C4B24708  23.504  12.324  17.395 -0.1572 -0.2448 -0.0490
 2038POPC   NC324709  13.799  13.687  15.125  0.0259  0.0312  0.2020
 2038POPC   PO424710  14.177  13.843  15.150 -0.1179 -0.1443 -0.0967
 2038POPC   GL124711  14.140  13.907  15.547 -0.3804 -0.5985 -0.0547
 2038POPC   GL224712  13.980  13.690  15.647  0.1787 -0.0589  0.2472
 2038POPC   C1A24713  14.296  13.763  15.967  0.1727 -0.0239 -0.2689
 2038POPC   D2A24714  14.760  13.820  16.150 -0.4879  0.0142  0.0882
 2038POPC   C3A24715  15.153  14.014  16.292  0.0399 -0.0837  0.2498
 2038POPC   C4A24716  15.261  14.253  16.690 -0.1218 -0.2804 -0.3705
 2038POPC   C1B24717  13.862  13.703  16.178 -0.0107  0.4323 -0.1357
 2038POPC   C2B24718  14.028  13.556  16.633 -0.2291 -0.3110  0.3680
 2038POPC   C3B24719  14.109  13.313  16.999  0.0224 -0.0440  0.0042
 2038POPC   C4B24720  14.440  13.336  17.306 -0.1565 -0.2059 -0.0572
 2039POPC   NC324721  25.458   6.918  15.586 -0.0355 -0.0360 -0.3755
 2039POPC   PO424722  25.702   6.693  15.425 -0.0171 -0.0017 -0.2131
 2039POPC   GL124723  25.369   6.498  15.766 -0.2903  0.0954  0.0728
 2039POPC   GL224724  25.610   6.575  15.928 -0.0222  0.0703 -0.1358
 2039POPC   C1A24725  25.312   6.276  16.181  0.0446 -0.0466  0.0562
 2039POPC   D2A24726  25.378   5.872  16.433  0.0728  0.1334  0.1858
 2039POPC   C3A24727  25.253   5.782  16.884  0.3104  0.1241  0.0618
 2039POPC   C4A24728  25.212   5.557  17.356  0.0103  0.1232 -0.0915
 2039POPC   C1B24729  25.627   6.765  16.341 -0.0809 -0.3089 -0.0913
 2039POPC   C2B24730  25.514   6.771  16.808  0.0115 -0.0495 -0.2944
 2039POPC   C3B24731  25.186   6.659  17.093 -0.1785  0.1896  0.1898
 2039POPC   C4B24732  24.985   6.721  17.492 -0.0548  0.2444  0.2064
 2040POPC   NC324733  19.473  12.661  15.480 -0.0787  0.4237 -0.0327
 2040POPC   PO424734  19.374  12.299  15.510 -0.2591  0.0466 -0.1116
 2040POPC   GL124735  19.551  12.419  15.854 -0.2184 -0.2092 -0.4072
 2040POPC   GL224736  19.438  12.652  15.989  0.6225 -0.1227 -0.1984
 2040POPC   C1A24737  19.490  12.125  16.225 -0.0795  0.3222 -0.0086
 2040POPC   D2A24738  19.558  12.026  16.677 -0.1028 -0.1754  0.1867
 2040POPC   C3A24739  19.493  12.177  17.087  0.1282 -0.1492  0.1044
 2040POPC   C4A24740  19.805  12.488  17.250 -0.0945 -0.0368  0.4356
 2040POPC   C1B24741  19.200  12.983  16.234 -0.1693  0.1005  0.0334
 2040POPC   C2B24742  19.128  13.159  16.677 -0.1342 -0.0178 -0.0795
 2040POPC   C3B24743  19.088  13.413  17.034  0.0239  0.1054  0.0981
 2040POPC   C4B24744  18.946  13.229  17.379 -0.0785 -0.2748 -0.0046
 2041POPC   NC324745  16.621  24.781  15.344  0.0406 -0.1116  0.6229
 2041POPC   PO424746  17.001  24.734  15.335 -0.4464  0.1523 -0.2571
 2041POPC   GL124747  16.935  24.747  15.688  0.2466 -0.2057  0.0445
 2041POPC   GL224748  16.812  24.499  15.787  0.0628  0.0782 -0.1228
 2041POPC   C1A24749  16.873  24.946  16.098  0.0531  0.2560  0.1324
 2041POPC   D2A24750  16.825  25.212  16.495  0.1428  0.1539  0.2989
 2041POPC   C3A24751  16.893  24.959  16.892  0.1419 -0.3302 -0.1937
 2041POPC   C4A24752  17.067  24.761  17.218 -0.0778  0.1459 -0.3152
 2041POPC   C1B24753  16.869  24.372  16.211  0.3087 -0.3721 -0.0614
 2041POPC   C2B24754  16.773  24.556  16.670 -0.0744  0.1464 -0.2337
 2041POPC   C3B24755  16.748  24.369  17.086 -0.0350  0.0809 -0.0602
 2041POPC   C4B24756  17.028  24.315  17.424 -0.0524  0.2379  0.1477
 2042POPC   NC324757   7.475  17.005  14.863  0.0364 -0.2440 -0.0249
 2042POPC   PO424758   7.561  16.723  15.100 -0.2616 -0.1803  0.0573
 2042POPC   GL124759   7.601  16.945  15.452 -0.0655  0.3217 -0.2349
 2042POPC   GL224760   7.535  17.142  15.381  0.0541  0.2105  0.1576
 2042POPC   C1A24761   7.683  16.859  15.898  0.1521 -0.0830  0.0658
 2042POPC   D2A24762   7.464  17.028  16.278  0.2093 -0.0595 -0.4751
 2042POPC   C3A24763   7.118  16.725  16.407 -0.0418 -0.2886 -0.0545
 2042POPC   C4A24764   6.745  16.654  16.661 -0.3092  0.3553  0.1596
 2042POPC   C1B24765   7.524  17.301  15.814 -0.0299  0.0530  0.2336
 2042POPC   C2B24766   7.713  17.421  16.171  0.0273  0.1394 -0.1594
 2042POPC   C3B24767   7.786  17.443  16.605 -0.0560 -0.0940 -0.2821
 2042POPC   C4B24768   7.782  17.680  17.039  0.0487  0.1808  0.2741
 2043POPC   NC324769   0.787  21.601  15.143  0.0842  0.0637  0.1458
 2043POPC   PO424770   0.403  21.642  15.068 -0.2993  0.1121  0.0911
 2043POPC   GL124771   0.381  21.362  15.356 -0.0531 -0.3154  0.2139
 2043POPC   GL224772   0.482  21.612  15.568  0.1003 -0.2664  0.0371
 2043POPC   C1A24773   0.243  20.988  15.619  0.0601 -0.3051 -0.1943
 2043POPC   D2A24774  -0.128  20.791  15.738  0.1566 -0.3706  0.2417
 2043POPC   C3A24775  -0.443  20.911  16.108 -0.2536  0.2636  0.2061
 2043POPC   C4A24776  -0.399  21.174  16.488 -0.0132  0.0096  0.3475
 2043POPC   C1B24777   0.451  21.289  15.902  0.1182 -0.1169  0.0892
 2043POPC   C2B24778   0.603  21.228  16.309 -0.0590 -0.2457  0.0886
 2043POPC   C3B24779   0.567  21.359  16.759 -0.0059 -0.2264  0.0449
 2043POPC   C4B24780   0.549  21.393  17.218  0.0437 -0.2445 -0.0553
 2044POPC   NC324781  24.667  26.124  15.544 -0.3735 -0.0160  0.0030
 2044POPC   PO424782  24.373  26.348  15.462 -0.0652  0.1201  0.0604
 2044POPC   GL124783  24.270  26.253  15.770  0.1771 -0.0762 -0.1676
 2044POPC   GL224784  23.953  26.420  15.690 -0.1937  0.2538  0.0725
 2044POPC   C1A24785  24.352  26.009  16.169  0.0454 -0.0889 -0.2103
 2044POPC   D2A24786  24.542  25.624  16.321  0.1116  0.3360 -0.1402
 2044POPC   C3A24787  24.539  25.734  16.796  0.0264  0.2922 -0.2301
 2044POPC   C4A24788  24.361  26.048  17.060  0.3337  0.0937  0.1908
 2044POPC   C1B24789  23.849  26.658  16.100  0.1127 -0.3095 -0.2574
 2044POPC   C2B24790  23.867  26.811  16.535 -0.0660  0.0791 -0.2460
 2044POPC   C3B24791  23.961  26.539  16.888  0.1056 -0.1723 -0.0664
 2044POPC   C4B24792  24.115  26.384  17.309 -0.0364 -0.2144  0.2793
 2045POPC   NC324793   7.006  18.782  15.039  0.0421  0.1562 -0.1451
 2045POPC   PO424794   6.684  18.654  15.223  0.2215 -0.2983 -0.0026
 2045POPC   GL124795   6.621  18.597  15.565 -0.2068  0.2953 -0.3767
 2045POPC   GL224796   6.513  18.348  15.563  0.0773  0.0025  0.1548
 2045POPC   C1A24797   6.329  18.647  15.973 -0.1400 -0.1764 -0.2619
 2045POPC   D2A24798   6.464  18.865  16.373 -0.1247 -0.0116 -0.1572
 2045POPC   C3A24799   6.384  18.615  16.755  0.0248 -0.0482  0.0155
 2045POPC   C4A24800   6.042  18.540  17.061 -0.0911 -0.0293  0.1398
 2045POPC   C1B24801   6.795  18.395  15.999 -0.0568 -0.0788 -0.2149
 2045POPC   C2B24802   6.760  18.321  16.504  0.0216 -0.0976 -0.0905
 2045POPC   C3B24803   6.849  18.654  16.860  0.0096  0.0000 -0.1269
 2045POPC   C4B24804   6.982  18.880  17.227  0.0056 -0.1504  0.5649
 2046POPC   NC324805  23.409  18.404  15.523  0.2835 -0.4541 -0.4341
 2046POPC   PO424806  23.625  18.590  15.244  0.0701 -0.1654  0.0542
 2046POPC   GL124807  23.596  18.891  15.522 -0.1615 -0.1481 -0.1676
 2046POPC   GL224808  23.788  18.744  15.762 -0.2843  0.0870  0.0553
 2046POPC   C1A24809  23.401  18.943  15.939 -0.2849 -0.0095  0.1037
 2046POPC   D2A24810  23.161  18.877  16.305  0.2596  0.0643  0.3623
 2046POPC   C3A24811  23.320  18.854  16.731 -0.1222 -0.0830  0.2129
 2046POPC   C4A24812  23.490  18.856  17.136  0.2479 -0.2586  0.0491
 2046POPC   C1B24813  23.778  18.622  16.202 -0.0478  0.2573  0.1909
 2046POPC   C2B24814  23.838  18.669  16.651  0.2329  0.0350  0.0585
 2046POPC   C3B24815  23.934  18.558  17.104 -0.1086 -0.2645  0.0389
 2046POPC   C4B24816  23.853  18.245  17.469  0.3071  0.0601  0.0843
 2047POPC   NC324817  12.049  24.279  15.344  0.0226  0.0089  0.1387
 2047POPC   PO424818  12.088  23.888  15.380  0.0888 -0.0467  0.1785
 2047POPC   GL124819  12.161  24.114  15.732  0.0102 -0.0298 -0.1013
 2047POPC   GL224820  12.469  24.168  15.618 -0.0571 -0.1760 -0.0796
 2047POPC   C1A24821  12.008  24.166  16.163  0.0490 -0.1923  0.3593
 2047POPC   D2A24822  11.895  23.958  16.591 -0.0425 -0.0928 -0.1648
 2047POPC   C3A24823  11.523  24.022  16.893 -0.1051  0.1379  0.4388
 2047POPC   C4A24824  11.169  24.068  17.176 -0.1133  0.2942  0.1278
 2047POPC   C1B24825  12.431  24.400  15.999  0.1275 -0.0528  0.1865
 2047POPC   C2B24826  12.326  24.391  16.483 -0.0207 -0.1018 -0.1818
 2047POPC   C3B24827  12.318  24.687  16.858  0.1915 -0.1816 -0.3372
 2047POPC   C4B24828  12.702  24.713  17.173 -0.0216  0.4452  0.5490
 2048POPC   NC324829  20.176  20.881  14.964 -0.0944 -0.0391  0.3769
 2048POPC   PO424830  20.477  21.004  15.117  0.0502  0.0569  0.0023
 2048POPC   GL124831  20.513  20.977  15.490  0.2953  0.0336  0.1539
 2048POPC   GL224832  20.698  20.759  15.529 -0.1245  0.2740 -0.0868
 2048POPC   C1A24833  20.505  21.304  15.747  0.2822  0.0902 -0.1370
 2048POPC   D2A24834  20.411  21.544  16.133 -0.0138  0.1476  0.2007
 2048POPC   C3A24835  20.777  21.636  16.416 -0.0249 -0.1212  0.0241
 2048POPC   C4A24836  21.166  21.607  16.575  0.0675 -0.0942  0.2042
 2048POPC   C1B24837  20.746  20.888  15.991 -0.0050  0.0009 -0.1138
 2048POPC   C2B24838  20.701  21.091  16.430 -0.1494 -0.2960 -0.0576
 2048POPC   C3B24839  20.705  21.347  16.815  0.0175 -0.0069 -0.0352
 2048POPC   C4B24840  20.435  21.565  17.139 -0.2553  0.0109  0.1402
 2049POPC   NC324841  26.582  27.747  15.420  0.0116 -0.1745 -0.0221
 2049POPC   PO424842  26.332  27.411  15.391  0.4295 -0.1502  0.1640
 2049POPC   GL124843  26.036  27.459  15.745  0.0449  0.4336  0.1501
 2049POPC   GL224844  26.232  27.767  15.834  0.1428 -0.1390  0.0908
 2049POPC   C1A24845  25.650  27.246  15.948  0.1449 -0.1185 -0.0186
 2049POPC   D2A24846  25.242  27.164  16.175  0.1434 -0.1728 -0.0807
 2049POPC   C3A24847  24.966  27.257  16.496  0.0248 -0.0031  0.0734
 2049POPC   C4A24848  24.763  27.505  16.859 -0.2210  0.0562 -0.0984
 2049POPC   C1B24849  26.097  27.471  16.212 -0.1138 -0.0484 -0.0486
 2049POPC   C2B24850  26.092  27.318  16.650  0.2386  0.2278 -0.3272
 2049POPC   C3B24851  25.808  27.253  17.007  0.0350 -0.1073 -0.1492
 2049POPC   C4B24852  25.943  27.431  17.485  0.2735  0.2349  0.0540
 2050POPC   NC324853  30.463  12.068  15.244 -0.3006  0.2304 -0.1473
 2050POPC   PO424854  30.667  12.037  15.606  0.1027  0.3013  0.0838
 2050POPC   GL124855  30.665  12.139  15.994 -0.1169  0.1471  0.3620
 2050POPC   GL224856  30.951  12.050  16.044  0.1035  0.1398 -0.1382
 2050POPC   C1A24857  30.585  12.529  16.261  0.0520  0.0602  0.0791
 2050POPC   D2A24858  30.638  12.714  16.678 -0.0471  0.0262  0.1253
 2050POPC   C3A24859  30.365  12.908  17.002  0.2261  0.0304  0.1023
 2050POPC   C4A24860  30.192  13.198  17.284  0.0804 -0.0257  0.0579
 2050POPC   C1B24861  30.683  12.066  16.436 -0.0981 -0.2240  0.4025
 2050POPC   C2B24862  30.645  12.201  16.882  0.1718 -0.1688  0.2362
 2050POPC   C3B24863  30.651  12.503  17.265  0.3678 -0.2398 -0.2015
 2050POPC   C4B24864  30.540  12.342  17.653  0.1825  0.1149 -0.0589
 2051POPC   NC324865  30.604   1.822  15.341  0.0623  0.0821 -0.1205
 2051POPC   PO424866  30.647   1.421  15.418 -0.1511 -0.2975 -0.0322
 2051POPC   GL124867  30.437   1.334  15.709  0.1759  0.1313 -0.2904
 2051POPC   GL224868  30.669   1.440  15.929 -0.0499  0.1152 -0.3913
 2051POPC   C1A24869  30.166   1.461  16.118 -0.3086  0.0291 -0.2684
 2051POPC   D2A24870  30.136   1.493  16.624  0.1199  0.1570  0.3100
 2051POPC   C3A24871  30.062   1.091  16.815  0.1003 -0.0823  0.0142
 2051POPC   C4A24872  29.775   0.757  16.981 -0.0474  0.1152 -0.1673
 2051POPC   C1B24873  30.729   1.295  16.362 -0.4473 -0.1213  0.0504
 2051POPC   C2B24874  30.771   1.193  16.835  0.0881  0.2552 -0.0331
 2051POPC   C3B24875  30.884   1.313  17.253  0.1221  0.0107 -0.0689
 2051POPC   C4B24876  31.132   1.540  17.652  0.1646  0.0317  0.0164
 2052POPC   NC324877  10.853   0.181  15.587 -0.3852 -0.2138  0.4281
 2052POPC   PO424878  10.588  -0.072  15.391  0.2100 -0.1228  0.3055
 2052POPC   GL124879  10.685  -0.229  15.823  0.2285  0.0649  0.3647
 2052POPC   GL224880  10.651  -0.029  16.013  0.2794  0.3942  0.2629
 2052POPC   C1A24881  10.794  -0.520  16.170 -0.1726 -0.0828 -0.2496
 2052POPC   D2A24882  10.564  -0.783  16.520 -0.0343  0.0316 -0.3677
 2052POPC   C3A24883  10.277  -0.511  16.673  0.0410 -0.2499  0.2638
 2052POPC   C4A24884  10.023  -0.219  16.971  0.1040 -0.0616  0.0745
 2052POPC   C1B24885  10.814  -0.071  16.423  0.1300 -0.2068  0.1912
 2052POPC   C2B24886  10.837  -0.375  16.749 -0.1924 -0.2826 -0.1035
 2052POPC   C3B24887  10.881  -0.757  16.976  0.1396 -0.0495  0.1375
 2052POPC   C4B24888  11.045  -0.832  17.363  0.1840  0.1579  0.0418
 2053POPC   NC324889  28.478   0.967  15.208 -0.2266 -0.1310  0.0075
 2053POPC   PO424890  28.741   1.200  15.357 -0.2504 -0.0407  0.2394
 2053POPC   GL124891  28.631   1.059  15.696  0.2600 -0.4243 -0.1387
 2053POPC   GL224892  28.385   1.014  15.672 -0.0158  0.0276  0.0094
 2053POPC   C1A24893  28.521   1.358  16.051 -0.0438 -0.2129 -0.2376
 2053POPC   D2A24894  28.804   1.497  16.426  0.1998  0.0155 -0.3165
 2053POPC   C3A24895  28.699   1.875  16.662 -0.1858 -0.2181 -0.2699
 2053POPC   C4A24896  28.287   2.191  16.542 -0.2135  0.1797  0.0030
 2053POPC   C1B24897  28.261   0.828  16.062 -0.5060 -0.2299  0.1659
 2053POPC   C2B24898  28.186   0.664  16.466  0.3823 -0.0588  0.1060
 2053POPC   C3B24899  28.025   0.330  16.759  0.0635  0.0622  0.3245
 2053POPC   C4B24900  27.881  -0.120  16.829 -0.4180 -0.0160  0.0463
 2054POPC   NC324901  27.087   3.919  15.636 -0.1646 -0.0354 -0.0681
 2054POPC   PO424902  26.718   3.782  15.562 -0.2409  0.1781  0.1772
 2054POPC   GL124903  26.730   3.562  15.868 -0.0435  0.2126  0.3623
 2054POPC   GL224904  26.896   3.593  16.043 -0.0797 -0.0695  0.3334
 2054POPC   C1A24905  26.522   3.538  16.290  0.3317  0.0686  0.0200
 2054POPC   D2A24906  26.667   3.233  16.673 -0.0067 -0.1211 -0.1592
 2054POPC   C3A24907  26.938   3.409  17.017  0.1568 -0.1333 -0.2953
 2054POPC   C4A24908  27.087   3.120  17.277 -0.1514  0.1099  0.1353
 2054POPC   C1B24909  26.978   3.579  16.485  0.1810 -0.2045 -0.0679
 2054POPC   C2B24910  26.601   3.705  16.787  0.0689 -0.1951 -0.0763
 2054POPC   C3B24911  26.391   3.898  17.142  0.1125  0.0478  0.0777
 2054POPC   C4B24912  26.603   4.274  17.358  0.0717 -0.0594  0.2436
 2055POPC   NC324913   0.474  25.019  14.848  0.0299  0.0061  0.0076
 2055POPC   PO424914   0.752  25.178  15.037  0.3044 -0.2019 -0.1907
 2055POPC   GL124915   0.658  25.210  15.498 -0.1331 -0.1030  0.0832
 2055POPC   GL224916   0.378  25.015  15.588  0.0779 -0.2135 -0.0076
 2055POPC   C1A24917   0.789  25.120  15.883 -0.0355  0.2850  0.0619
 2055POPC   D2A24918   0.730  24.949  16.306 -0.1496  0.1660 -0.1168
 2055POPC   C3A24919   0.339  24.843  16.598  0.1864 -0.1790 -0.2833
 2055POPC   C4A24920   0.368  24.605  17.029 -0.0876  0.1396 -0.1013
 2055POPC   C1B24921   0.288  25.023  16.076  0.1518  0.0864  0.0621
 2055POPC   C2B24922  -0.007  25.194  16.347 -0.0311 -0.1514 -0.1155
 2055POPC   C3B24923  -0.097  25.397  16.734  0.0339 -0.0146 -0.4028
 2055POPC   C4B24924  -0.077  25.538  17.177 -0.3335 -0.1180  0.2362
 2056POPC   NC324925   5.514  28.710  15.198  0.1079  0.2862 -0.0100
 2056POPC   PO424926   5.667  29.065  15.004 -0.0089 -0.0693  0.1934
 2056POPC   GL124927   5.709  29.198  15.401 -0.0569  0.0234  0.3152
 2056POPC   GL224928   5.440  29.358  15.396  0.1719 -0.1856 -0.0531
 2056POPC   C1A24929   5.652  29.351  15.814  0.2296  0.0250  0.0005
 2056POPC   D2A24930   5.713  29.563  16.232  0.3036  0.2112  0.0737
 2056POPC   C3A24931   5.478  29.527  16.633  0.2630  0.4085 -0.0493
 2056POPC   C4A24932   5.385  29.454  17.089  0.0753  0.1545  0.0870
 2056POPC   C1B24933   5.171  29.572  15.686  0.2709  0.1849 -0.1661
 2056POPC   C2B24934   4.880  29.517  16.003  0.1598  0.1472  0.0785
 2056POPC   C3B24935   4.640  29.395  16.419  0.1837  0.2728 -0.0949
 2056POPC   C4B24936   4.504  29.292  16.847 -0.1002 -0.1036 -0.2281
 2057POPC   NC324937   2.218   6.406  15.656 -0.3621 -0.1626 -0.1301
 2057POPC   PO424938   2.012   6.613  15.856  0.1571  0.0145 -0.0408
 2057POPC   GL124939   2.133   6.530  16.280  0.2350  0.0459  0.3130
 2057POPC   GL224940   2.436   6.476  16.195  0.0741 -0.0012  0.0944
 2057POPC   C1A24941   2.221   6.674  16.701  0.3216 -0.5442  0.0959
 2057POPC   D2A24942   2.289   6.796  17.127 -0.1231  0.0257  0.0631
 2057POPC   C3A24943   1.958   6.772  17.456  0.2043  0.0232  0.0141
 2057POPC   C4A24944   1.735   7.091  17.678 -0.5191  0.2976 -0.1867
 2057POPC   C1B24945   2.538   6.878  16.391 -0.0629  0.1722  0.2777
 2057POPC   C2B24946   2.242   7.187  16.602  0.0088  0.1814  0.0782
 2057POPC   C3B24947   1.878   7.220  16.850  0.2821 -0.0437  0.2053
 2057POPC   C4B24948   1.583   7.011  17.178 -0.1954 -0.0159 -0.0873
 2058POPC   NC324949   0.438  12.035  15.484 -0.2220  0.0455  0.0916
 2058POPC   PO424950   0.176  11.933  15.222  0.0594 -0.2742 -0.2880
 2058POPC   GL124951  -0.057  11.941  15.553 -0.3422  0.1654  0.2160
 2058POPC   GL224952   0.000  12.195  15.651  0.2437 -0.1015  0.0509
 2058POPC   C1A24953   0.045  11.763  16.001 -0.1780 -0.1672 -0.2185
 2058POPC   D2A24954   0.063  11.776  16.462 -0.3936  0.0712  0.1200
 2058POPC   C3A24955  -0.277  11.630  16.777 -0.0441  0.0906  0.2434
 2058POPC   C4A24956  -0.544  11.442  17.071  0.0314  0.0366 -0.0835
 2058POPC   C1B24957  -0.238  12.154  16.000  0.1571 -0.1389 -0.3636
 2058POPC   C2B24958  -0.380  12.067  16.390 -0.0513 -0.1918  0.2052
 2058POPC   C3B24959  -0.443  12.114  16.853 -0.3736  0.1471 -0.1457
 2058POPC   C4B24960  -0.395  12.311  17.274 -0.0892  0.2593  0.0558
 2059POPC   NC324961   3.955   2.760  15.407  0.0402  0.0433  0.1998
 2059POPC   PO424962   3.565   2.756  15.295 -0.1339  0.0691 -0.0623
 2059POPC   GL124963   3.505   2.920  15.586  0.1691  0.4694 -0.1826
 2059POPC   GL224964   3.624   2.695  15.860  0.0077  0.0120  0.0093
 2059POPC   C1A24965   3.166   3.186  15.770 -0.0836 -0.3169  0.2270
 2059POPC   D2A24966   3.037   3.278  16.171 -0.0885  0.1032  0.0244
 2059POPC   C3A24967   3.216   3.305  16.630 -0.0698  0.2037  0.0819
 2059POPC   C4A24968   3.395   3.332  17.106  0.1151  0.0075  0.0588
 2059POPC   C1B24969   3.225   2.766  16.127  0.1919  0.0157 -0.0039
 2059POPC   C2B24970   3.049   2.782  16.535  0.1558  0.0575 -0.0478
 2059POPC   C3B24971   2.650   3.000  16.705 -0.0634  0.2120  0.2466
 2059POPC   C4B24972   2.393   3.024  17.059  0.2036 -0.2274 -0.0235
 2060POPC   NC324973  21.075   6.113  15.386 -0.1743  0.0221 -0.2504
 2060POPC   PO424974  21.375   6.142  15.125  0.1317  0.2750  0.0200
 2060POPC   GL124975  21.531   5.946  15.448  0.3436 -0.0107  0.0599
 2060POPC   GL224976  21.346   5.695  15.582 -0.1439 -0.0637 -0.0959
 2060POPC   C1A24977  21.670   5.892  15.854 -0.0385  0.0931 -0.1292
 2060POPC   D2A24978  21.855   5.564  16.088 -0.0384 -0.1688 -0.1493
 2060POPC   C3A24979  21.962   5.425  16.488  0.0604  0.1166  0.0640
 2060POPC   C4A24980  22.103   5.231  16.878  0.1221  0.1284 -0.0706
 2060POPC   C1B24981  21.418   5.408  15.871 -0.0420  0.1974  0.1055
 2060POPC   C2B24982  21.557   5.211  16.222  0.0465  0.0539 -0.2682
 2060POPC   C3B24983  21.453   5.023  16.616 -0.2922 -0.1191 -0.3432
 2060POPC   C4B24984  21.603   4.886  17.037 -0.2868 -0.1495 -0.3103
 2061POPC   NC324985  12.712   2.525  15.829 -0.0326 -0.1181  0.0216
 2061POPC   PO424986  12.969   2.407  15.532 -0.3788 -0.1900 -0.3103
 2061POPC   GL124987  13.304   2.249  15.694 -0.1335 -0.2936  0.2128
 2061POPC   GL224988  13.387   2.005  15.565 -0.2042  0.0302 -0.1405
 2061POPC   C1A24989  13.366   1.970  16.099 -0.2370  0.0802 -0.1673
 2061POPC   D2A24990  13.413   1.866  16.517 -0.0597  0.0361  0.0245
 2061POPC   C3A24991  13.265   1.532  16.770 -0.2934 -0.1689 -0.0395
 2061POPC   C4A24992  12.951   1.513  17.130 -0.0935 -0.2352  0.2878
 2061POPC   C1B24993  13.635   1.654  15.749  0.1559 -0.2082 -0.0632
 2061POPC   C2B24994  13.654   1.469  16.180  0.3186  0.1468 -0.1292
 2061POPC   C3B24995  13.571   1.202  16.541  0.1500 -0.1203  0.3106
 2061POPC   C4B24996  13.193   0.990  16.638  0.0010 -0.0509 -0.0688
 2062POPC   NC324997   0.998  13.734  15.657  0.1755 -0.0672  0.0841
 2062POPC   PO424998   1.148  13.974  15.394 -0.0892  0.2439  0.0985
 2062POPC   GL124999   1.445  14.035  15.660  0.3949 -0.0264  0.0143
 2062POPC   GL225000   1.440  13.798  15.812 -0.0942  0.0183 -0.0822
 2062POPC   C1A25001   1.522  14.299  16.032 -0.1360 -0.0533  0.3182
 2062POPC   D2A25002   1.498  14.669  16.376  0.0025 -0.0122 -0.0350
 2062POPC   C3A25003   1.886  14.741  16.635  0.1792 -0.1965 -0.1513
 2062POPC   C4A25004   2.284  14.541  16.539  0.1444  0.2985  0.2961
 2062POPC   C1B25005   1.352  13.500  16.136 -0.0588  0.3644  0.1710
 2062POPC   C2B25006   1.452  13.507  16.545 -0.2607 -0.6716 -0.3255
 2062POPC   C3B25007   1.680  13.410  16.927  0.0416  0.1521 -0.0242
 2062POPC   C4B25008   1.738  13.341  17.364 -0.0631 -0.0806 -0.0174
 2063POPC   NC325009   6.164  23.153  15.441  0.1576  0.3302  0.1387
 2063POPC   PO425010   6.316  22.760  15.397 -0.0687 -0.6297 -0.2916
 2063POPC   GL125011   6.250  22.753  15.744 -0.7211 -0.0011 -0.1808
 2063POPC   GL225012   6.074  22.963  15.856 -0.0008 -0.0728 -0.2073
 2063POPC   C1A25013   6.372  22.511  16.154 -0.2616 -0.2673  0.0663
 2063POPC   D2A25014   6.465  22.229  16.540  0.1582 -0.0081 -0.0676
 2063POPC   C3A25015   6.297  22.243  16.934 -0.1616  0.1065 -0.1080
 2063POPC   C4A25016   6.317  22.385  17.371  0.1181 -0.0429 -0.0232
 2063POPC   C1B25017   6.201  23.195  16.250 -0.0752  0.2154 -0.1637
 2063POPC   C2B25018   6.084  23.357  16.667  0.3494  0.0271  0.0678
 2063POPC   C3B25019   6.022  23.229  17.100 -0.0118  0.0328  0.1369
 2063POPC   C4B25020   5.734  22.984  17.384  0.2294 -0.2322 -0.2219
 2064POPC   NC325021  16.187  16.817  15.373  0.3035 -0.0587 -0.2595
 2064POPC   PO425022  16.404  17.131  15.453 -0.1183  0.1635 -0.1304
 2064POPC   GL125023  16.586  17.112  15.730  0.1493  0.1774 -0.1144
 2064POPC   GL225024  16.653  17.404  15.844 -0.3376  0.1546 -0.1640
 2064POPC   C1A25025  16.716  16.703  15.967 -0.0715 -0.2722  0.2024
 2064POPC   D2A25026  17.046  16.546  16.200 -0.4555 -0.1445  0.0430
 2064POPC   C3A25027  16.992  16.528  16.651 -0.1551  0.0129 -0.4286
 2064POPC   C4A25028  17.273  16.529  17.008 -0.0215 -0.0935  0.1858
 2064POPC   C1B25029  16.900  17.592  16.201 -0.0822  0.0454 -0.0601
 2064POPC   C2B25030  16.931  17.818  16.634 -0.0474  0.0126  0.2488
 2064POPC   C3B25031  17.081  17.701  17.053 -0.0647  0.1116 -0.0657
 2064POPC   C4B25032  17.133  17.468  17.464 -0.0214 -0.4095  0.1389
 2065POPC   NC325033  18.767  24.931  14.882 -0.0182 -0.0404  0.0001
 2065POPC   PO425034  19.072  25.084  14.718 -0.2071 -0.1262 -0.1715
 2065POPC   GL125035  19.122  25.166  15.158  0.4988  0.3736  0.4915
 2065POPC   GL225036  19.214  24.933  15.247 -0.2885 -0.1091 -0.1025
 2065POPC   C1A25037  19.039  25.478  15.425 -0.1710  0.0118 -0.0913
 2065POPC   D2A25038  18.873  25.558  15.872  0.1157  0.1199  0.1648
 2065POPC   C3A25039  19.086  25.770  16.208 -0.1296 -0.1434 -0.2920
 2065POPC   C4A25040  19.250  25.809  16.642  0.1222  0.0620  0.1119
 2065POPC   C1B25041  19.307  25.097  15.648  0.0417 -0.0920 -0.0814
 2065POPC   C2B25042  19.276  25.150  16.078 -0.0090 -0.0111 -0.1859
 2065POPC   C3B25043  19.124  25.299  16.446  0.0952  0.0814 -0.1609
 2065POPC   C4B25044  19.058  25.315  16.940 -0.2196 -0.4005  0.4232
 2066POPC   NC325045  23.270  15.630  15.197  0.0781 -0.0783 -0.0664
 2066POPC   PO425046  23.481  15.926  15.094 -0.0585 -0.1088  0.2679
 2066POPC   GL125047  23.634  16.004  15.454  0.1017  0.1883  0.2366
 2066POPC   GL225048  23.767  16.232  15.458  0.1113 -0.2667 -0.4145
 2066POPC   C1A25049  23.876  15.663  15.709  0.0396 -0.0344 -0.0794
 2066POPC   D2A25050  24.189  15.448  15.964 -0.1509 -0.3521 -0.1079
 2066POPC   C3A25051  24.268  15.781  16.321  0.3227 -0.3643 -0.3310
 2066POPC   C4A25052  24.359  16.182  16.446 -0.1809  0.1232  0.1954
 2066POPC   C1B25053  23.889  16.251  15.900  0.1641 -0.0988 -0.0578
 2066POPC   C2B25054  23.839  16.177  16.382  0.1715  0.0916  0.2403
 2066POPC   C3B25055  23.981  16.263  16.824  0.0410 -0.0955  0.0251
 2066POPC   C4B25056  24.280  16.629  16.878  0.2862 -0.0666  0.1090
 2067POPC   NC325057  15.925   2.105  14.853 -0.0046 -0.1594  0.3682
 2067POPC   PO425058  15.504   1.980  14.834 -0.0605  0.2617 -0.0424
 2067POPC   GL125059  15.327   1.851  15.215 -0.0287  0.0048 -0.1020
 2067POPC   GL225060  15.454   1.977  15.526  0.2477 -0.0039  0.2245
 2067POPC   C1A25061  15.061   1.580  15.512 -0.3543  0.0549  0.1035
 2067POPC   D2A25062  15.222   1.122  15.771 -0.1438  0.1121  0.3006
 2067POPC   C3A25063  15.101   1.093  16.248  0.1115 -0.0382  0.1146
 2067POPC   C4A25064  14.885   0.732  16.471  0.0697  0.0635  0.3040
 2067POPC   C1B25065  15.553   2.019  15.988 -0.1238  0.3070 -0.1945
 2067POPC   C2B25066  15.311   1.984  16.410 -0.3502 -0.1897  0.1888
 2067POPC   C3B25067  15.384   2.074  16.867 -0.0533  0.1675  0.1107
 2067POPC   C4B25068  15.495   1.863  17.291 -0.0106 -0.1309  0.1014
 2068POPC   NC325069   9.305  19.636  15.354  0.0456 -0.1728 -0.1071
 2068POPC   PO425070   9.242  19.244  15.263  0.2588 -0.0976 -0.0653
 2068POPC   GL125071   9.089  19.064  15.638  0.1473  0.0833  0.2463
 2068POPC   GL225072   9.219  18.842  15.781 -0.1911  0.0343 -0.0969
 2068POPC   C1A25073   8.696  18.952  15.809  0.0921 -0.2093 -0.0725
 2068POPC   D2A25074   8.538  19.140  16.235 -0.0584 -0.0172  0.1360
 2068POPC   C3A25075   8.886  19.155  16.591 -0.2820 -0.0882 -0.1790
 2068POPC   C4A25076   9.303  19.274  16.809  0.2358  0.2426  0.0169
 2068POPC   C1B25077   9.072  19.159  16.054 -0.0724 -0.1129 -0.0378
 2068POPC   C2B25078   9.173  19.470  16.337  0.0879 -0.2318 -0.0738
 2068POPC   C3B25079   9.308  19.876  16.598  0.0532  0.3088  0.0342
 2068POPC   C4B25080   9.023  20.182  16.807 -0.1301 -0.1858  0.1715
 2069POPC   NC325081  13.086   4.432  14.912  0.1549  0.1169  0.1604
 2069POPC   PO425082  12.934   4.383  15.227  0.0959  0.0860  0.1223
 2069POPC   GL125083  12.895   4.549  15.617 -0.1764  0.0306  0.3580
 2069POPC   GL225084  12.930   4.404  15.925 -0.0303  0.1472  0.2927
 2069POPC   C1A25085  13.194   4.806  15.831 -0.2386 -0.0823 -0.0684
 2069POPC   D2A25086  13.377   4.666  16.220  0.1897  0.0354 -0.2653
 2069POPC   C3A25087  13.094   4.775  16.548  0.2053  0.1042 -0.4213
 2069POPC   C4A25088  12.873   5.092  16.801  0.0057 -0.5060  0.1827
 2069POPC   C1B25089  12.801   4.415  16.375 -0.0778  0.0208 -0.1255
 2069POPC   C2B25090  12.868   4.377  16.805 -0.0522  0.3519 -0.0669
 2069POPC   C3B25091  13.131   4.300  17.169  0.0673  0.0512  0.0712
 2069POPC   C4B25092  13.505   4.446  17.424 -0.0951  0.0161  0.0233
 2070POPC   NC325093  11.269   6.347  15.027 -0.0568 -0.0388 -0.3050
 2070POPC   PO425094  10.969   6.139  15.091 -0.1732 -0.1686 -0.2620
 2070POPC   GL125095  10.910   6.339  15.382  0.1260  0.1716  0.0462
 2070POPC   GL225096  11.130   6.363  15.519 -0.0926  0.0381 -0.2582
 2070POPC   C1A25097  10.763   6.361  15.818 -0.3532 -0.0357  0.3012
 2070POPC   D2A25098  10.429   6.055  15.969  0.0748 -0.3046 -0.1979
 2070POPC   C3A25099  10.541   6.032  16.418 -0.1026  0.1287  0.0629
 2070POPC   C4A25100  10.370   6.118  16.819 -0.2213  0.0381  0.1385
 2070POPC   C1B25101  11.248   6.291  15.997 -0.4769 -0.0012  0.1605
 2070POPC   C2B25102  11.531   6.167  16.365 -0.0463 -0.0534  0.0634
 2070POPC   C3B25103  11.813   5.889  16.623 -0.1284  0.0606 -0.0805
 2070POPC   C4B25104  12.127   5.681  16.879  0.0148  0.3814  0.0773
 2071POPC   NC325105  29.031   9.913  15.243 -0.3690 -0.2756 -0.2566
 2071POPC   PO425106  28.682   9.942  15.121  0.1187 -0.0059  0.1616
 2071POPC   GL125107  28.368   9.870  15.345 -0.2553 -0.1194  0.0540
 2071POPC   GL225108  28.483  10.086  15.604 -0.1646 -0.0963  0.0976
 2071POPC   C1A25109  28.142   9.697  15.717  0.0333 -0.1351 -0.0389
 2071POPC   D2A25110  27.978   9.777  16.208  0.1715  0.0507 -0.0067
 2071POPC   C3A25111  28.172   9.665  16.622 -0.1274  0.2677  0.3128
 2071POPC   C4A25112  28.309   9.736  17.026  0.1257  0.1741  0.0436
 2071POPC   C1B25113  28.210  10.160  15.972  0.0942 -0.0940 -0.0011
 2071POPC   C2B25114  28.245  10.218  16.431 -0.0247 -0.1292  0.0113
 2071POPC   C3B25115  28.371  10.529  16.710 -0.1346 -0.0799 -0.2936
 2071POPC   C4B25116  28.583  10.826  16.964  0.1435  0.2945 -0.0360
 2072POPC   NC325117   8.032   2.364  15.383 -0.5033  0.1349 -0.3189
 2072POPC   PO425118   7.683   2.460  15.456 -0.1487 -0.1876 -0.1609
 2072POPC   GL125119   7.411   2.489  15.819 -0.0692 -0.2676  0.2312
 2072POPC   GL225120   7.440   2.198  15.917 -0.1144 -0.2947  0.0841
 2072POPC   C1A25121   7.261   2.885  16.027 -0.0846 -0.1281 -0.0072
 2072POPC   D2A25122   6.933   3.060  16.368 -0.0663 -0.1680 -0.1274
 2072POPC   C3A25123   6.895   2.995  16.783  0.1196 -0.2075 -0.1153
 2072POPC   C4A25124   6.705   2.827  17.152  0.2133 -0.3208 -0.0342
 2072POPC   C1B25125   7.441   2.123  16.333 -0.0064 -0.0085 -0.1642
 2072POPC   C2B25126   7.653   2.141  16.713 -0.0731  0.1927  0.2995
 2072POPC   C3B25127   8.020   2.156  17.038  0.1748  0.0796 -0.0928
 2072POPC   C4B25128   8.119   2.103  17.495 -0.3853 -0.0630  0.0061
 2073POPC   NC325129   6.644  19.883  15.776 -0.0443  0.1610  0.1405
 2073POPC   PO425130   6.430  20.149  15.626  0.0339 -0.1665 -0.2089
 2073POPC   GL125131   6.327  20.198  15.940 -0.1888 -0.2425 -0.4095
 2073POPC   GL225132   6.245  20.465  16.053  0.0826 -0.2539 -0.0617
 2073POPC   C1A25133   6.418  20.071  16.384  0.0713 -0.0279  0.2349
 2073POPC   D2A25134   6.624  20.106  16.796 -0.2705  0.1623 -0.1975
 2073POPC   C3A25135   7.069  20.178  17.032  0.0338 -0.2358  0.0050
 2073POPC   C4A25136   7.442  20.175  16.793  0.1031 -0.1692  0.0474
 2073POPC   C1B25137   6.332  20.517  16.499 -0.0995 -0.1565 -0.0016
 2073POPC   C2B25138   6.142  20.826  16.868 -0.0376 -0.0016  0.2799
 2073POPC   C3B25139   6.080  21.012  17.303  0.0677  0.0929  0.1969
 2073POPC   C4B25140   6.001  21.136  17.730 -0.1278 -0.0570 -0.0605
 2074POPC   NC325141  15.880  31.446  14.144  0.3093 -0.2659  0.0849
 2074POPC   PO425142  15.785  31.308  14.451 -0.1254 -0.5270  0.0465
 2074POPC   GL125143  15.374  31.350  14.654  0.1798  0.0603  0.0683
 2074POPC   GL225144  15.449  31.519  14.855  0.1316  0.0094 -0.0820
 2074POPC   C1A25145  15.013  31.360  14.953 -0.0879  0.1896 -0.0479
 2074POPC   D2A25146  14.969  31.030  15.305  0.2111 -0.1142  0.0640
 2074POPC   C3A25147  14.957  31.172  15.721 -0.1444 -0.0098 -0.0598
 2074POPC   C4A25148  14.971  31.447  16.068 -0.0876  0.0233  0.0343
 2074POPC   C1B25149  15.291  31.471  15.314  0.2799 -0.0450 -0.4220
 2074POPC   C2B25150  15.111  31.770  15.679 -0.1127 -0.0450  0.2588
 2074POPC   C3B25151  15.096  31.946  16.132 -0.0759 -0.2352 -0.2984
 2074POPC   C4B25152  15.214  32.106  16.612 -0.1202  0.3519  0.0916
 2075POPC   NC325153  15.820   3.613  15.524  0.2187  0.1649  0.0250
 2075POPC   PO425154  15.785   3.244  15.357  0.1703  0.0283 -0.2003
 2075POPC   GL125155  15.555   3.268  15.729 -0.2433 -0.3836 -0.0579
 2075POPC   GL225156  15.698   3.054  15.857 -0.0892  0.2553  0.0281
 2075POPC   C1A25157  15.706   3.520  16.104 -0.1726  0.2081 -0.0058
 2075POPC   D2A25158  16.082   3.451  16.343 -0.1195 -0.3044 -0.0647
 2075POPC   C3A25159  16.049   3.497  16.787  0.0295 -0.2534 -0.5364
 2075POPC   C4A25160  15.970   3.637  17.229  0.1881  0.3962  0.0374
 2075POPC   C1B25161  15.777   3.054  16.300  0.2222  0.1361 -0.2355
 2075POPC   C2B25162  16.034   2.937  16.715  0.1327  0.1438 -0.0900
 2075POPC   C3B25163  16.032   3.114  17.138 -0.0726  0.3338  0.0271
 2075POPC   C4B25164  16.187   3.282  17.512 -0.1421  0.0112  0.1988
 2076POPC   NC325165  31.208  29.300  14.658 -0.3153  0.1852 -0.0854
 2076POPC   PO425166  31.206  29.706  14.765 -0.1772  0.1025 -0.0281
 2076POPC   GL125167  31.307  29.737  15.209  0.0208 -0.3504  0.0183
 2076POPC   GL225168  31.090  29.792  15.277  0.0957  0.0135  0.2589
 2076POPC   C1A25169  31.400  29.464  15.652 -0.0476 -0.1096 -0.1506
 2076POPC   D2A25170  31.444  29.420  16.141  0.2596 -0.0421  0.0715
 2076POPC   C3A25171  31.282  29.777  16.330  0.3157  0.1038  0.0289
 2076POPC   C4A25172  31.193  29.910  16.798 -0.1958 -0.1596  0.0294
 2076POPC   C1B25173  31.171  29.997  15.661 -0.1137 -0.0467 -0.0677
 2076POPC   C2B25174  31.178  30.197  16.103 -0.1730  0.2340 -0.3021
 2076POPC   C3B25175  31.257  30.329  16.560  0.0588  0.0542  0.2436
 2076POPC   C4B25176  31.461  30.314  16.947 -0.2646  0.2622  0.1948
 2077POPC   NC325177  28.614  29.921  14.844 -0.1164  0.0200  0.2534
 2077POPC   PO425178  28.810  29.937  15.183  0.0919  0.1892  0.1568
 2077POPC   GL125179  28.492  29.918  15.388  0.1116 -0.0826  0.2978
 2077POPC   GL225180  28.284  30.064  15.210  0.1369 -0.0504  0.3396
 2077POPC   C1A25181  28.463  30.118  15.788  0.0607 -0.0820 -0.3239
 2077POPC   D2A25182  28.420  30.224  16.248 -0.0628  0.1572 -0.3085
 2077POPC   C3A25183  28.384  30.025  16.657 -0.1096 -0.0668  0.2853
 2077POPC   C4A25184  28.077  29.960  17.001 -0.1852 -0.2770  0.0833
 2077POPC   C1B25185  28.001  30.002  15.570 -0.0869 -0.1412 -0.4470
 2077POPC   C2B25186  28.004  30.116  16.041 -0.0535  0.1617  0.0607
 2077POPC   C3B25187  27.863  30.211  16.446 -0.3204 -0.1043 -0.2818
 2077POPC   C4B25188  27.664  30.275  16.865  0.1077  0.0842 -0.1362
 2078POPC   NC325189   4.126  10.925  14.821 -0.0281 -0.3664 -0.0301
 2078POPC   PO425190   3.985  11.172  15.144  0.0545 -0.0474  0.4082
 2078POPC   GL125191   3.859  11.060  15.484 -0.0929  0.0897 -0.1825
 2078POPC   GL225192   4.061  10.982  15.629 -0.2979 -0.1413 -0.1796
 2078POPC   C1A25193   3.770  11.323  15.874 -0.2202  0.1680 -0.0367
 2078POPC   D2A25194   3.604  11.273  16.394  0.1582  0.1455  0.1853
 2078POPC   C3A25195   3.702  11.449  16.785  0.0800  0.3304 -0.2073
 2078POPC   C4A25196   3.640  11.553  17.230 -0.0381 -0.1640 -0.1782
 2078POPC   C1B25197   4.205  11.048  16.057  0.2459 -0.0795  0.0642
 2078POPC   C2B25198   4.528  11.159  16.361  0.0381  0.0572  0.0389
 2078POPC   C3B25199   4.721  11.175  16.791  0.0173  0.1471  0.1321
 2078POPC   C4B25200   5.009  11.266  17.122  0.1141 -0.2878  0.0175
 2079POPC   NC325201  30.006  29.209  15.439  0.1402 -0.1987  0.3231
 2079POPC   PO425202  30.351  29.334  15.344 -0.1161  0.0516  0.2382
 2079POPC   GL125203  30.275  29.285  15.810 -0.2661  0.1996 -0.2339
 2079POPC   GL225204  30.251  29.619  15.845  0.2557 -0.1181  0.1983
 2079POPC   C1A25205  30.569  29.049  16.147 -0.1778 -0.0900  0.0491
 2079POPC   D2A25206  30.623  28.725  16.437 -0.0588  0.0393  0.1885
 2079POPC   C3A25207  30.456  28.816  16.843  0.5241  0.2507  0.1938
 2079POPC   C4A25208  30.595  28.932  17.278 -0.3649  0.0779  0.0892
 2079POPC   C1B25209  30.659  29.686  16.121  0.0731  0.2281 -0.3828
 2079POPC   C2B25210  30.672  29.733  16.579 -0.1292  0.3728  0.0774
 2079POPC   C3B25211  30.762  29.814  17.045 -0.0430 -0.0061 -0.5502
 2079POPC   C4B25212  31.047  29.717  17.397 -0.1615  0.1677 -0.2223
 2080POPC   NC325213  16.810  16.298  15.129 -0.1580  0.1830 -0.0224
 2080POPC   PO425214  16.482  16.285  15.300 -0.1628 -0.1661  0.0121
 2080POPC   GL125215  16.227  16.316  15.427 -0.4274 -0.0017  0.2668
 2080POPC   GL225216  16.055  16.169  15.600 -0.0197  0.0684 -0.0097
 2080POPC   C1A25217  16.269  16.596  15.819  0.1123 -0.0017 -0.0492
 2080POPC   D2A25218  16.284  16.871  16.225  0.1467  0.1658 -0.0727
 2080POPC   C3A25219  15.945  16.944  16.506  0.1376  0.3485 -0.0079
 2080POPC   C4A25220  15.716  17.082  16.907  0.0191  0.0280 -0.1991
 2080POPC   C1B25221  16.141  16.065  16.083  0.1882 -0.0368  0.4212
 2080POPC   C2B25222  16.377  15.957  16.450 -0.0993 -0.1613  0.0270
 2080POPC   C3B25223  16.340  15.740  16.805  0.1257  0.0244 -0.0795
 2080POPC   C4B25224  16.188  15.341  16.986  0.2397  0.5779 -0.1016
 2081POPC   NC325225  22.989   5.549  14.803  0.0558 -0.0362  0.2621
 2081POPC   PO425226  23.367   5.434  14.766 -0.3612  0.0512  0.0818
 2081POPC   GL125227  23.637   5.368  14.969 -0.0998  0.0168  0.0686
 2081POPC   GL225228  23.626   5.532  15.202 -0.0327 -0.0658 -0.0198
 2081POPC   C1A25229  23.727   4.984  15.187 -0.2446 -0.1451  0.2529
 2081POPC   D2A25230  24.097   4.702  15.130  0.0540  0.0541 -0.0834
 2081POPC   C3A25231  24.128   4.578  15.549 -0.1311 -0.1095 -0.0537
 2081POPC   C4A25232  24.109   4.684  15.982 -0.0196  0.3308 -0.4051
 2081POPC   C1B25233  23.711   5.520  15.658 -0.1932 -0.1965  0.1488
 2081POPC   C2B25234  23.604   5.668  16.039  0.0154  0.0319  0.0501
 2081POPC   C3B25235  23.380   5.444  16.418 -0.0877 -0.1827  0.0332
 2081POPC   C4B25236  23.240   5.267  16.836 -0.1647 -0.1573 -0.2123
 2082POPC   NC325237   3.032  31.329  15.213  0.2319  0.0960 -0.3153
 2082POPC   PO425238   3.375  31.368  15.001  0.0341 -0.2077  0.0146
 2082POPC   GL125239   3.390  31.076  15.343 -0.0680 -0.1708  0.0748
 2082POPC   GL225240   3.345  31.241  15.569 -0.0625 -0.0002  0.0039
 2082POPC   C1A25241   3.468  30.640  15.422  0.0254  0.3653  0.3161
 2082POPC   D2A25242   3.497  30.198  15.589  0.1265  0.0300  0.1531
 2082POPC   C3A25243   3.900  29.918  15.498  0.1047  0.0062 -0.1300
 2082POPC   C4A25244   4.291  29.756  15.316  0.3486  0.0121 -0.0211
 2082POPC   C1B25245   3.585  30.988  15.803 -0.0048  0.0842  0.1722
 2082POPC   C2B25246   3.594  30.635  16.140  0.0673  0.5402 -0.0845
 2082POPC   C3B25247   3.366  30.311  16.434 -0.1764 -0.2761 -0.2138
 2082POPC   C4B25248   3.027  30.051  16.557  0.1552 -0.3031  0.0127
 2083POPC   NC325249   8.967  30.657  14.942 -0.2550  0.1193  0.1405
 2083POPC   PO425250   8.609  30.799  15.067  0.1159 -0.0469  0.0449
 2083POPC   GL125251   8.782  30.696  15.446  0.1371 -0.1222 -0.2569
 2083POPC   GL225252   8.845  30.996  15.591  0.1738  0.1258  0.3580
 2083POPC   C1A25253   8.615  30.283  15.621  0.1466  0.0561  0.0566
 2083POPC   D2A25254   8.570  29.834  15.641 -0.2636 -0.1697 -0.0568
 2083POPC   C3A25255   8.572  29.355  15.708 -0.0467  0.2447 -0.2662
 2083POPC   C4A25256   8.513  28.978  15.976 -0.1016 -0.1148 -0.0493
 2083POPC   C1B25257   8.696  30.697  15.940 -0.0489  0.2000 -0.0433
 2083POPC   C2B25258   8.890  30.493  16.302 -0.0726  0.1212 -0.0137
 2083POPC   C3B25259   8.885  30.323  16.713 -0.0210 -0.0721 -0.2027
 2083POPC   C4B25260   8.904  30.392  17.153 -0.0344 -0.0568 -0.0269
 2084POPC   NC325261   8.356   0.503  15.354  0.1766 -0.1248  0.0957
 2084POPC   PO425262   8.629   0.226  15.428 -0.1342  0.0403 -0.0598
 2084POPC   GL125263   8.633   0.095  15.891  0.1599  0.2441  0.0224
 2084POPC   GL225264   8.401   0.199  15.850 -0.2331 -0.1947 -0.0794
 2084POPC   C1A25265   8.785  -0.048  16.302 -0.0444 -0.0182  0.5503
 2084POPC   D2A25266   8.916  -0.402  16.605  0.1582  0.1954  0.0319
 2084POPC   C3A25267   9.071  -0.480  17.054  0.0976 -0.0056 -0.2979
 2084POPC   C4A25268   9.270  -0.276  17.430  0.1710 -0.1731  0.0751
 2084POPC   C1B25269   8.316  -0.120  16.130  0.2217 -0.0543 -0.0273
 2084POPC   C2B25270   8.409  -0.283  16.569 -0.0354  0.0395 -0.2600
 2084POPC   C3B25271   8.559  -0.361  17.052 -0.0619  0.1222 -0.1542
 2084POPC   C4B25272   8.723  -0.453  17.488 -0.0830 -0.0037 -0.1934
 2085POPC   NC325273   3.574  12.071  15.385 -0.1179  0.0965 -0.2329
 2085POPC   PO425274   3.939  12.076  15.287  0.3805  0.2092  0.0771
 2085POPC   GL125275   3.961  12.200  15.640  0.0243  0.1720 -0.2241
 2085POPC   GL225276   3.948  11.946  15.814 -0.1122 -0.0542  0.0873
 2085POPC   C1A25277   3.696  12.327  15.986 -0.0640 -0.1198  0.1817
 2085POPC   D2A25278   3.593  12.411  16.416  0.0435 -0.1185 -0.2279
 2085POPC   C3A25279   3.638  12.364  16.868  0.0679 -0.0876 -0.4596
 2085POPC   C4A25280   3.835  12.119  17.249 -0.0528  0.0396 -0.3970
 2085POPC   C1B25281   4.031  11.971  16.280 -0.0695 -0.1561  0.1547
 2085POPC   C2B25282   3.938  11.868  16.733 -0.1292  0.0630 -0.2110
 2085POPC   C3B25283   4.088  11.612  17.103  0.0207 -0.3077  0.1744
 2085POPC   C4B25284   4.543  11.383  17.211  0.2849 -0.0181  0.3177
 2086POPC   NC325285  18.192  21.576  15.127 -0.0813 -0.0070  0.0382
 2086POPC   PO425286  18.612  21.669  15.139  0.1360  0.4487  0.2665
 2086POPC   GL125287  18.557  21.949  15.425  0.4103  0.0062  0.1327
 2086POPC   GL225288  18.869  21.999  15.493 -0.1270  0.2135 -0.1763
 2086POPC   C1A25289  18.200  21.984  15.703 -0.4203 -0.0143 -0.0330
 2086POPC   D2A25290  17.824  22.063  15.758 -0.0700 -0.1174 -0.0183
 2086POPC   C3A25291  17.697  21.900  16.174  0.2814 -0.0632 -0.0187
 2086POPC   C4A25292  17.375  21.528  16.310  0.0852  0.1551  0.2381
 2086POPC   C1B25293  18.699  21.720  15.828 -0.0368  0.0420  0.1271
 2086POPC   C2B25294  18.692  21.864  16.259 -0.0662  0.1097  0.3621
 2086POPC   C3B25295  18.688  21.668  16.644  0.2539 -0.1165 -0.0435
 2086POPC   C4B25296  18.908  21.666  17.048 -0.2933  0.0953  0.1261
 2087POPC   NC325297   5.923  16.808  15.588 -0.0433  0.1663  0.0376
 2087POPC   PO425298   6.272  16.933  15.483 -0.2687  0.1388 -0.1594
 2087POPC   GL125299   6.410  16.837  15.788 -0.2363 -0.2425 -0.1077
 2087POPC   GL225300   6.660  17.064  15.817 -0.2467  0.1051  0.0527
 2087POPC   C1A25301   6.277  16.526  16.077  0.1084 -0.2219  0.1094
 2087POPC   D2A25302   6.086  16.286  16.409 -0.2270  0.0256 -0.1387
 2087POPC   C3A25303   5.833  16.122  16.818  0.1731  0.2422  0.2906
 2087POPC   C4A25304   5.804  15.953  17.228 -0.3043  0.1311 -0.1207
 2087POPC   C1B25305   6.703  17.119  16.303 -0.0655 -0.1151  0.0752
 2087POPC   C2B25306   6.524  17.111  16.710  0.1259  0.2194  0.0770
 2087POPC   C3B25307   6.606  16.803  17.092  0.0761 -0.1410  0.0434
 2087POPC   C4B25308   6.996  16.659  17.301 -0.0731  0.0614 -0.1896
 2088POPC   NC325309  13.823   8.239  14.810 -0.0967 -0.0196  0.3244
 2088POPC   PO425310  13.713   8.219  15.172 -0.0220 -0.0548  0.0144
 2088POPC   GL125311  13.839   8.254  15.550  0.0952  0.0250  0.0537
 2088POPC   GL225312  13.847   8.532  15.584 -0.1018  0.3703 -0.0126
 2088POPC   C1A25313  13.787   8.208  16.013 -0.2718 -0.0558 -0.2517
 2088POPC   D2A25314  13.781   8.347  16.447 -0.0104  0.0298  0.0100
 2088POPC   C3A25315  13.800   8.781  16.483  0.2112 -0.0956 -0.0951
 2088POPC   C4A25316  14.089   9.097  16.479 -0.0813 -0.1662 -0.0841
 2088POPC   C1B25317  14.281   8.698  15.483 -0.3072  0.0841 -0.1046
 2088POPC   C2B25318  14.513   8.922  15.790  0.1293 -0.1172 -0.3236
 2088POPC   C3B25319  14.486   8.995  16.201 -0.1721  0.0441  0.0238
 2088POPC   C4B25320  14.628   9.158  16.639 -0.3533  0.0117  0.1241
 2089POPC   NC325321  11.779  15.392  15.144 -0.1229  0.2552  0.3441
 2089POPC   PO425322  11.572  15.097  15.277  0.1751  0.0530  0.2905
 2089POPC   GL125323  11.728  15.034  15.631  0.2683 -0.3706  0.3227
 2089POPC   GL225324  11.931  14.805  15.685 -0.1203 -0.4771  0.1230
 2089POPC   C1A25325  11.671  15.059  16.080  0.1499 -0.3361 -0.0698
 2089POPC   D2A25326  11.872  15.124  16.473 -0.3442 -0.3778 -0.0513
 2089POPC   C3A25327  11.855  15.488  16.768 -0.2346  0.2169 -0.3924
 2089POPC   C4A25328  12.008  15.686  17.146  0.0973 -0.0230 -0.1744
 2089POPC   C1B25329  12.130  14.887  16.099 -0.0896 -0.2230  0.1712
 2089POPC   C2B25330  12.344  14.997  16.439 -0.1362 -0.2410  0.1943
 2089POPC   C3B25331  12.251  15.165  16.829 -0.0256  0.3455  0.1013
 2089POPC   C4B25332  12.508  15.390  17.159  0.1197 -0.0079 -0.0584
 2090POPC   NC325333  20.156   5.906  15.316  0.0632 -0.1608  0.1046
 2090POPC   PO425334  20.501   6.175  15.300  0.4481  0.2255  0.3864
 2090POPC   GL125335  20.377   6.166  15.606  0.0538  0.1398  0.1763
 2090POPC   GL225336  20.153   6.071  15.770  0.3661 -0.3500 -0.1445
 2090POPC   C1A25337  20.373   6.500  15.911 -0.0638  0.1853  0.2637
 2090POPC   D2A25338  20.225   6.584  16.326 -0.0287  0.2027 -0.0109
 2090POPC   C3A25339  20.093   6.281  16.618 -0.0425  0.0468  0.1371
 2090POPC   C4A25340  20.157   6.314  17.077  0.1448  0.2156 -0.0010
 2090POPC   C1B25341  20.127   5.986  16.231 -0.0247 -0.0703  0.0757
 2090POPC   C2B25342  20.300   5.807  16.657 -0.0151 -0.0867  0.3172
 2090POPC   C3B25343  20.405   5.617  17.087  0.2011  0.2205  0.0598
 2090POPC   C4B25344  20.772   5.495  17.242  0.1030 -0.2079  0.1776
 2091POPC   NC325345  23.953  10.106  15.344  0.1408  0.0665 -0.0666
 2091POPC   PO425346  24.193  10.059  15.044 -0.2479 -0.2259  0.0871
 2091POPC   GL125347  24.422  10.316  15.241  0.2558  0.1243 -0.0301
 2091POPC   GL225348  24.618  10.235  15.383  0.0349  0.2590 -0.0416
 2091POPC   C1A25349  24.242  10.423  15.645  0.0101  0.3771 -0.0676
 2091POPC   D2A25350  24.129  10.636  16.029 -0.1390 -0.2438  0.3100
 2091POPC   C3A25351  23.929  10.519  16.425  0.1285  0.1752 -0.0770
 2091POPC   C4A25352  23.704  10.163  16.571  0.2839 -0.3046  0.2132
 2091POPC   C1B25353  24.656  10.647  15.665  0.0067 -0.0049 -0.0004
 2091POPC   C2B25354  24.712  10.778  16.100 -0.0882  0.1890 -0.1958
 2091POPC   C3B25355  24.777  11.016  16.436  0.1141 -0.0526  0.1297
 2091POPC   C4B25356  24.617  11.193  16.775 -0.2427  0.2894 -0.3405
 2092POPC   NC325357  17.727  30.662  15.404 -0.3815  0.1400  0.0174
 2092POPC   PO425358  17.989  30.412  15.521 -0.0212  0.1888  0.0470
 2092POPC   GL125359  17.784  30.197  15.797 -0.0766  0.3023 -0.0714
 2092POPC   GL225360  17.624  30.365  15.903 -0.0138 -0.5674  0.0261
 2092POPC   C1A25361  17.902  29.865  16.101 -0.1045  0.0701 -0.2310
 2092POPC   D2A25362  18.326  29.732  16.289  0.0332 -0.0583 -0.0460
 2092POPC   C3A25363  18.364  29.359  16.496  0.0181  0.2715 -0.1969
 2092POPC   C4A25364  18.450  29.104  16.874 -0.0670  0.0997  0.1356
 2092POPC   C1B25365  17.560  30.441  16.345  0.4024  0.1129  0.1349
 2092POPC   C2B25366  17.530  30.703  16.743  0.2767 -0.3637 -0.0314
 2092POPC   C3B25367  17.560  31.087  17.005  0.0536  0.2162 -0.2506
 2092POPC   C4B25368  17.376  31.483  17.137 -0.1585  0.0457 -0.0746
 2093POPC   NC325369   6.143  22.308  15.254 -0.1086 -0.0145 -0.3623
 2093POPC   PO425370   6.010  22.031  15.436  0.1285 -0.1800  0.1526
 2093POPC   GL125371   5.927  21.990  15.854  0.2541  0.1073  0.1503
 2093POPC   GL225372   5.840  22.285  16.011  0.3102  0.2196 -0.4307
 2093POPC   C1A25373   6.205  22.013  16.212  0.0296 -0.1235 -0.2695
 2093POPC   D2A25374   6.629  22.044  16.060 -0.2112  0.0944 -0.6444
 2093POPC   C3A25375   6.940  22.410  16.187 -0.0122 -0.0260  0.1706
 2093POPC   C4A25376   7.092  22.639  16.545  0.1648 -0.0430  0.1121
 2093POPC   C1B25377   5.927  22.409  16.455 -0.2527 -0.0950  0.0020
 2093POPC   C2B25378   6.193  22.754  16.701 -0.0059 -0.0452  0.0660
 2093POPC   C3B25379   6.591  22.654  16.853 -0.0727 -0.2056 -0.1911
 2093POPC   C4B25380   6.780  22.727  17.220  0.2439 -0.1115  0.2975
 2094POPC   NC325381  23.154  29.293  15.620 -0.2635 -0.2243 -0.0786
 2094POPC   PO425382  22.911  29.565  15.450  0.3002  0.0797  0.2395
 2094POPC   GL125383  22.837  29.668  15.856  0.1024  0.2282  0.1392
 2094POPC   GL225384  23.102  29.660  15.983  0.1403  0.1452  0.0150
 2094POPC   C1A25385  22.620  29.791  16.268  0.1698 -0.1013 -0.0253
 2094POPC   D2A25386  22.501  30.098  16.589 -0.0154  0.1397  0.2705
 2094POPC   C3A25387  22.441  29.949  17.000  0.1130  0.1453 -0.0552
 2094POPC   C4A25388  22.463  29.672  17.361  0.2494  0.0881 -0.1624
 2094POPC   C1B25389  23.520  29.695  16.143 -0.0380 -0.1684 -0.0921
 2094POPC   C2B25390  23.616  29.425  16.477 -0.0300  0.4905 -0.0157
 2094POPC   C3B25391  23.565  29.112  16.779  0.1864  0.0680 -0.1176
 2094POPC   C4B25392  23.356  29.186  17.220 -0.1947 -0.1861  0.2061
 2095POPC   NC325393  14.709   5.181  15.526 -0.0261  0.2091  0.2129
 2095POPC   PO425394  15.080   5.141  15.453 -0.3849  0.4718 -0.0830
 2095POPC   GL125395  15.068   4.946  15.819  0.0029  0.0510  0.4441
 2095POPC   GL225396  15.019   4.653  15.686  0.1987 -0.0316 -0.2449
 2095POPC   C1A25397  15.099   5.125  16.258 -0.3818  0.2815 -0.1001
 2095POPC   D2A25398  15.308   5.416  16.553 -0.1248  0.1856  0.3387
 2095POPC   C3A25399  15.562   5.533  16.929  0.1441 -0.1682 -0.1401
 2095POPC   C4A25400  15.907   5.482  17.251 -0.0387  0.0956 -0.0562
 2095POPC   C1B25401  14.921   4.650  16.149  0.1379  0.1239  0.2102
 2095POPC   C2B25402  14.774   4.501  16.596  0.0835  0.1996  0.0543
 2095POPC   C3B25403  14.893   4.264  17.005  0.1647  0.2188  0.3471
 2095POPC   C4B25404  14.759   4.124  17.423 -0.1650  0.0593  0.1530
 2096POPC   NC325405  19.088  12.954  15.114  0.3875  0.0404 -0.2031
 2096POPC   PO425406  19.458  13.082  15.137 -0.0743 -0.2209  0.1179
 2096POPC   GL125407  19.289  13.405  15.318  0.3024 -0.2201  0.3788
 2096POPC   GL225408  18.998  13.365  15.426 -0.0335  0.3107 -0.2075
 2096POPC   C1A25409  19.525  13.467  15.685  0.0380 -0.4593 -0.1910
 2096POPC   D2A25410  19.810  13.734  15.860 -0.5010 -0.1239  0.1029
 2096POPC   C3A25411  20.154  13.705  16.205 -0.0397 -0.0483 -0.0459
 2096POPC   C4A25412  20.035  13.709  16.607 -0.1600  0.1168  0.0252
 2096POPC   C1B25413  19.135  13.757  15.656 -0.0040  0.0355  0.1596
 2096POPC   C2B25414  19.383  13.938  16.003 -0.1881  0.1429 -0.1134
 2096POPC   C3B25415  19.467  14.216  16.400  0.0770  0.1512  0.1594
 2096POPC   C4B25416  19.646  14.617  16.596 -0.2037  0.1472 -0.0642
 2097POPC   NC325417  11.348   7.164  15.167 -0.0437 -0.1617 -0.1692
 2097POPC   PO425418  11.188   6.804  15.251  0.0123  0.0859  0.0584
 2097POPC   GL125419  11.269   6.752  15.682  0.0418  0.1103  0.2156
 2097POPC   GL225420  11.265   6.979  15.832  0.2639  0.1047  0.1452
 2097POPC   C1A25421  11.668   6.520  15.787  0.2181  0.0847  0.0288
 2097POPC   D2A25422  11.926   6.409  16.181 -0.3851 -0.0438  0.0965
 2097POPC   C3A25423  11.858   6.515  16.634 -0.1317 -0.0336 -0.2044
 2097POPC   C4A25424  11.588   6.499  17.041  0.0260  0.0975 -0.1842
 2097POPC   C1B25425  11.451   6.716  16.170 -0.0668  0.0636 -0.1388
 2097POPC   C2B25426  11.312   6.527  16.585  0.0877  0.0606 -0.1473
 2097POPC   C3B25427  11.141   6.724  16.989  0.1539  0.0375  0.1616
 2097POPC   C4B25428  11.232   6.968  17.405 -0.1360  0.1157 -0.0897
 2098POPC   NC325429  21.433  17.828  15.241  0.2152 -0.1792  0.0698
 2098POPC   PO425430  21.542  18.058  15.526 -0.1647 -0.0379 -0.2615
 2098POPC   GL125431  21.796  17.860  15.780  0.4530 -0.5921  0.0486
 2098POPC   GL225432  22.078  17.792  15.836 -0.0573  0.0936 -0.3765
 2098POPC   C1A25433  21.554  17.742  16.201  0.0648  0.0446  0.0360
 2098POPC   D2A25434  21.533  17.628  16.626 -0.0322 -0.1420 -0.1393
 2098POPC   C3A25435  21.918  17.652  16.814 -0.3602  0.0439 -0.0929
 2098POPC   C4A25436  22.184  17.476  17.098  0.1376  0.0803  0.1077
 2098POPC   C1B25437  22.130  17.778  16.290 -0.0305  0.0529 -0.3246
 2098POPC   C2B25438  22.414  17.682  16.644  0.2815  0.0397  0.2765
 2098POPC   C3B25439  22.834  17.547  16.922 -0.2450 -0.0929  0.0712
 2098POPC   C4B25440  22.939  17.585  17.397  0.1490  0.0167 -0.0304
 2099POPC   NC325441  26.147  20.484  15.120  0.0854  0.2705  0.3150
 2099POPC   PO425442  26.227  20.122  14.999  0.2883  0.2114  0.0032
 2099POPC   GL125443  26.378  20.143  15.381  0.0985 -0.1501  0.2154
 2099POPC   GL225444  26.604  20.199  15.492 -0.2002  0.2435  0.2876
 2099POPC   C1A25445  26.205  20.217  15.781  0.2376  0.1786 -0.0650
 2099POPC   D2A25446  26.376  20.326  16.193  0.3162  0.0052 -0.2885
 2099POPC   C3A25447  26.197  20.185  16.605  0.1254  0.0489  0.0842
 2099POPC   C4A25448  25.939  20.099  16.955  0.1831 -0.1336 -0.0261
 2099POPC   C1B25449  26.758  20.082  15.861  0.1197  0.2823  0.1940
 2099POPC   C2B25450  26.800  20.193  16.291 -0.3250 -0.1607  0.2571
 2099POPC   C3B25451  26.762  20.013  16.701  0.2685 -0.0727  0.0297
 2099POPC   C4B25452  26.665  19.944  17.171 -0.0482  0.1348  0.2683
 2100POPC   NC325453   9.046  11.252  15.104 -0.3400 -0.0015  0.1549
 2100POPC   PO425454   9.350  11.198  15.343  0.2012 -0.1227  0.0075
 2100POPC   GL125455   8.991  11.115  15.578 -0.4363 -0.0661 -0.5267
 2100POPC   GL225456   8.804  10.854  15.572  0.1983 -0.1719 -0.0912
 2100POPC   C1A25457   8.964  11.370  16.018 -0.0548  0.0128  0.0517
 2100POPC   D2A25458   8.910  11.571  16.420 -0.2244 -0.1845  0.2492
 2100POPC   C3A25459   8.702  11.326  16.711 -0.1033  0.0353  0.1129
 2100POPC   C4A25460   8.828  10.912  16.808  0.2500  0.3809 -0.1673
 2100POPC   C1B25461   8.779  10.891  15.979  0.2541  0.2780 -0.0001
 2100POPC   C2B25462   8.605  10.737  16.362  0.3821  0.1040  0.0714
 2100POPC   C3B25463   8.304  11.003  16.618 -0.1973  0.0032 -0.0556
 2100POPC   C4B25464   8.022  10.884  16.942  0.0627 -0.0568  0.3031
 2101POPC   NC325465  26.168   5.229  15.545  0.0915  0.0754 -0.5568
 2101POPC   PO425466  26.489   5.427  15.409  0.3472 -0.0601 -0.1194
 2101POPC   GL125467  26.574   5.557  15.720  0.4311  0.2635  0.1034
 2101POPC   GL225468  26.351   5.706  15.859 -0.1060  0.0062  0.1492
 2101POPC   C1A25469  26.578   5.273  16.058  0.0321 -0.0655 -0.0422
 2101POPC   D2A25470  26.636   5.250  16.513 -0.0694 -0.0897 -0.0461
 2101POPC   C3A25471  26.671   5.531  16.904 -0.1487  0.3523 -0.0251
 2101POPC   C4A25472  26.896   5.882  17.004 -0.0641  0.0737  0.0604
 2101POPC   C1B25473  26.545   5.717  16.273 -0.1728  0.0299  0.0269
 2101POPC   C2B25474  26.951   5.768  16.438  0.1905  0.1337  0.0340
 2101POPC   C3B25475  27.344   5.862  16.682  0.1678  0.1904 -0.0196
 2101POPC   C4B25476  27.355   5.842  17.120 -0.1132 -0.0962  0.1924
 2102POPC   NC325477  15.490  27.751  15.539  0.0388 -0.1442  0.1646
 2102POPC   PO425478  15.711  27.950  15.732 -0.0265  0.0689  0.0993
 2102POPC   GL125479  15.547  27.958  16.028  0.2362 -0.3002  0.0659
 2102POPC   GL225480  15.319  27.936  16.131  0.2300  0.1908 -0.2416
 2102POPC   C1A25481  15.649  28.113  16.503  0.1309 -0.0541  0.1686
 2102POPC   D2A25482  15.612  28.226  16.996 -0.2546  0.1246 -0.2356
 2102POPC   C3A25483  15.959  28.365  17.289  0.2212  0.0779  0.1598
 2102POPC   C4A25484  16.073  28.591  17.696 -0.0795 -0.2022 -0.0195
 2102POPC   C1B25485  15.307  27.811  16.598  0.0080 -0.3141  0.4477
 2102POPC   C2B25486  15.120  28.008  17.018 -0.0420  0.0811 -0.0341
 2102POPC   C3B25487  14.693  28.022  17.224 -0.0771 -0.1176  0.2485
 2102POPC   C4B25488  14.320  28.277  17.254 -0.1198 -0.1664 -0.0757
 2103POPC   NC325489  31.368   4.853  15.325 -0.2753 -0.1558 -0.1735
 2103POPC   PO425490  31.223   4.459  15.327 -0.0910 -0.1942  0.1051
 2103POPC   GL125491  31.051   4.610  15.627 -0.0909 -0.2279 -0.2374
 2103POPC   GL225492  31.115   4.420  15.833 -0.0230 -0.1250 -0.1192
 2103POPC   C1A25493  30.654   4.729  15.874  0.2753  0.0981  0.0853
 2103POPC   D2A25494  30.267   4.830  16.050  0.1295  0.0683 -0.0119
 2103POPC   C3A25495  30.254   5.105  16.421  0.1838  0.3243  0.3392
 2103POPC   C4A25496  30.120   5.276  16.810 -0.1293  0.0515  0.0677
 2103POPC   C1B25497  30.899   4.430  16.210  0.0193  0.2819  0.0946
 2103POPC   C2B25498  30.878   4.383  16.643  0.1311 -0.1804  0.2425
 2103POPC   C3B25499  30.744   4.268  17.042  0.1677 -0.0687  0.0535
 2103POPC   C4B25500  30.776   4.000  17.436  0.2502  0.1906 -0.1142
 2104POPC   NC325501  21.653  13.331  15.193 -0.0177  0.3072  0.1620
 2104POPC   PO425502  21.999  13.111  15.236  0.3016 -0.3739 -0.1132
 2104POPC   GL125503  21.876  13.233  15.653 -0.2915  0.2126 -0.0763
 2104POPC   GL225504  22.112  13.401  15.690  0.3239  0.3129  0.0923
 2104POPC   C1A25505  22.096  13.078  16.059  0.1513 -0.2480  0.0626
 2104POPC   D2A25506  22.178  12.869  16.484 -0.1865  0.1765 -0.0306
 2104POPC   C3A25507  22.433  13.168  16.738 -0.1246 -0.0958 -0.1386
 2104POPC   C4A25508  22.614  13.147  17.160  0.0653  0.0767  0.1792
 2104POPC   C1B25509  21.874  13.590  15.972  0.2229 -0.0634 -0.1584
 2104POPC   C2B25510  21.674  13.704  16.371 -0.0916  0.2712 -0.0720
 2104POPC   C3B25511  21.562  13.704  16.776 -0.3941 -0.0300  0.0837
 2104POPC   C4B25512  21.109  13.576  16.897  0.0688  0.2864  0.1412
 2105POPC   NC325513   3.880   5.732  15.960 -0.1888 -0.0853 -0.0721
 2105POPC   PO425514   4.074   5.487  15.718  0.2417 -0.1700 -0.0608
 2105POPC   GL125515   4.261   5.392  16.117  0.1360 -0.2206 -0.1096
 2105POPC   GL225516   4.539   5.440  16.025 -0.1518  0.2173 -0.2461
 2105POPC   C1A25517   4.123   5.676  16.444 -0.0070 -0.0320  0.0136
 2105POPC   D2A25518   4.002   5.653  16.860  0.1313  0.0274  0.0119
 2105POPC   C3A25519   4.125   5.856  17.260 -0.0461  0.2969  0.1680
 2105POPC   C4A25520   4.430   6.032  17.575  0.1451 -0.0607  0.4434
 2105POPC   C1B25521   4.528   5.365  16.502  0.1425 -0.2586 -0.0371
 2105POPC   C2B25522   4.768   5.325  16.872 -0.1917  0.0668  0.1475
 2105POPC   C3B25523   5.068   5.605  17.091  0.1450  0.3325 -0.2265
 2105POPC   C4B25524   5.071   5.684  17.499 -0.2804 -0.3372 -0.0319
 2106POPC   NC325525   0.520   8.355  15.876  0.4393 -0.1892 -0.0620
 2106POPC   PO425526   0.368   8.267  15.482 -0.1249 -0.1757  0.2034
 2106POPC   GL125527   0.025   8.306  15.727  0.1443 -0.4062  0.0561
 2106POPC   GL225528  -0.029   8.592  15.859  0.2340  0.0047 -0.0505
 2106POPC   C1A25529  -0.361   8.138  15.902 -0.0687  0.1178 -0.0181
 2106POPC   D2A25530  -0.843   8.054  16.093  0.2017  0.0906  0.1550
 2106POPC   C3A25531  -0.754   8.358  16.478 -0.1086 -0.1109  0.1904
 2106POPC   C4A25532  -0.805   8.507  16.871 -0.1111  0.0341  0.1211
 2106POPC   C1B25533  -0.310   8.585  16.239 -0.1047 -0.1112 -0.1810
 2106POPC   C2B25534  -0.311   8.594  16.683 -0.4497 -0.1576 -0.0957
 2106POPC   C3B25535  -0.263   8.312  17.050  0.0890 -0.6022 -0.0976
 2106POPC   C4B25536  -0.561   8.086  17.325 -0.1803  0.0288 -0.2524
 2107POPC   NC325537   0.704  25.749  14.855 -0.0324 -0.0145 -0.1537
 2107POPC   PO425538   0.484  25.519  14.628 -0.0157 -0.0133 -0.1905
 2107POPC   GL125539   0.188  25.485  14.801 -0.1857 -0.3967  0.0038
 2107POPC   GL225540  -0.021  25.696  14.675  0.1722  0.0849  0.2852
 2107POPC   C1A25541  -0.108  25.151  14.990  0.0812  0.0260 -0.0633
 2107POPC   D2A25542  -0.274  24.816  15.242  0.2387  0.1835  0.3025
 2107POPC   C3A25543  -0.459  24.535  15.600 -0.0121  0.2607  0.1370
 2107POPC   C4A25544  -0.452  24.115  15.769  0.1856  0.0443 -0.1392
 2107POPC   C1B25545  -0.291  25.686  15.004 -0.1258 -0.0018 -0.1370
 2107POPC   C2B25546  -0.676  25.791  15.305  0.2198  0.3488  0.0943
 2107POPC   C3B25547  -1.008  25.472  15.456  0.2534  0.1358 -0.0131
 2107POPC   C4B25548  -1.423  25.304  15.386  0.0562 -0.1483 -0.0788
 2108POPC   NC325549   1.966  29.634  15.013 -0.2978 -0.0462  0.1010
 2108POPC   PO425550   1.642  29.454  14.929 -0.0510  0.2935 -0.0933
 2108POPC   GL125551   1.481  29.408  15.318  0.1704  0.1037  0.0394
 2108POPC   GL225552   1.632  29.560  15.419  0.0445  0.1602 -0.0186
 2108POPC   C1A25553   1.316  29.296  15.717 -0.1327  0.0150 -0.0563
 2108POPC   D2A25554   1.520  29.165  16.117 -0.2935 -0.2015  0.0985
 2108POPC   C3A25555   1.764  29.150  16.509 -0.1436 -0.1031 -0.2447
 2108POPC   C4A25556   2.011  29.041  16.879  0.0226  0.0168  0.0020
 2108POPC   C1B25557   1.535  29.724  15.840 -0.0692  0.1945 -0.0975
 2108POPC   C2B25558   1.459  29.971  16.134  0.2102 -0.1509  0.0258
 2108POPC   C3B25559   1.565  30.046  16.582 -0.1490  0.0660 -0.0965
 2108POPC   C4B25560   1.616  30.222  17.050 -0.1681  0.0502 -0.0969
 2109POPC   NC325561  22.154  25.035  15.129 -0.1561  0.1649 -0.0985
 2109POPC   PO425562  22.240  25.389  15.241 -0.0091 -0.1281 -0.0300
 2109POPC   GL125563  22.275  25.474  15.594  0.0609 -0.2589 -0.3077
 2109POPC   GL225564  22.600  25.506  15.638  0.2116 -0.2830 -0.1674
 2109POPC   C1A25565  22.164  25.195  15.872 -0.1278  0.0736  0.0033
 2109POPC   D2A25566  21.952  25.240  16.300  0.0934  0.0100  0.2059
 2109POPC   C3A25567  21.991  24.969  16.699 -0.1817 -0.1728  0.0324
 2109POPC   C4A25568  22.191  25.248  16.949 -0.1708  0.0114  0.0849
 2109POPC   C1B25569  22.642  25.312  16.059 -0.3899  0.1474 -0.1542
 2109POPC   C2B25570  22.475  25.055  16.435 -0.3691 -0.0202  0.4370
 2109POPC   C3B25571  22.578  24.905  16.870  0.1932 -0.2918 -0.0723
 2109POPC   C4B25572  22.487  24.950  17.345 -0.1644  0.0236  0.2952
 2110POPC   NC325573  10.759   9.781  15.500  0.0995 -0.1695 -0.0538
 2110POPC   PO425574  11.075   9.571  15.605  0.0661 -0.4469 -0.2649
 2110POPC   GL125575  11.256   9.518  15.868  0.2640  0.0979 -0.1280
 2110POPC   GL225576  11.306   9.774  15.976 -0.4958  0.4943  0.4931
 2110POPC   C1A25577  11.244   9.104  16.123 -0.0349  0.1359 -0.2000
 2110POPC   D2A25578  11.281   8.633  16.153 -0.0762  0.1064 -0.1857
 2110POPC   C3A25579  11.677   8.416  16.434 -0.1996 -0.2250 -0.1186
 2110POPC   C4A25580  11.940   8.030  16.605  0.3619 -0.2247  0.0689
 2110POPC   C1B25581  11.253   9.585  16.457 -0.0169  0.0551  0.0136
 2110POPC   C2B25582  11.439   9.629  16.915 -0.3464  0.0227  0.3707
 2110POPC   C3B25583  11.603   9.626  17.368  0.0366 -0.0203  0.0123
 2110POPC   C4B25584  11.430   9.854  17.717 -0.2068  0.1404 -0.0643
 2111POPC   NC325585   1.531  28.204  15.707  0.2723 -0.0067 -0.1265
 2111POPC   PO425586   1.289  27.906  15.768 -0.0901  0.0628 -0.1734
 2111POPC   GL125587   1.164  28.095  16.151  0.0653 -0.2680  0.1205
 2111POPC   GL225588   1.436  28.102  16.172 -0.0325 -0.1444 -0.2470
 2111POPC   C1A25589   0.831  28.230  16.477  0.0531 -0.2779 -0.1715
 2111POPC   D2A25590   0.566  28.229  16.881 -0.0050  0.2136 -0.0737
 2111POPC   C3A25591   0.439  28.009  17.274 -0.2551 -0.0184  0.3353
 2111POPC   C4A25592   0.303  28.020  17.681 -0.1823 -0.5126  0.0405
 2111POPC   C1B25593   1.409  27.911  16.627 -0.0421  0.0369 -0.1380
 2111POPC   C2B25594   1.390  27.585  16.938 -0.1145 -0.0332  0.0749
 2111POPC   C3B25595   1.611  27.446  17.297  0.2578 -0.3181 -0.3716
 2111POPC   C4B25596   1.522  27.230  17.686 -0.2092 -0.0369  0.1520
 2112POPC   NC325597  30.066   6.742  14.490 -0.0188  0.1567  0.1088
 2112POPC   PO425598  30.296   6.484  14.680  0.3403 -0.2442  0.1884
 2112POPC   GL125599  30.024   6.285  14.879 -0.3394 -0.0026 -0.1212
 2112POPC   GL225600  29.742   6.424  14.709  0.0102  0.1717 -0.1211
 2112POPC   C1A25601  29.870   5.879  15.049 -0.3015 -0.1620 -0.1562
 2112POPC   D2A25602  29.652   5.764  15.424  0.0713 -0.2957  0.1514
 2112POPC   C3A25603  29.370   5.782  15.743  0.2546 -0.2600  0.1401
 2112POPC   C4A25604  29.380   6.122  16.050  0.2659  0.2250 -0.2604
 2112POPC   C1B25605  29.296   6.556  14.752 -0.1651  0.1295  0.1227
 2112POPC   C2B25606  28.851   6.444  14.738 -0.1855  0.2110  0.1526
 2112POPC   C3B25607  28.615   6.587  14.399 -0.0003 -0.3344 -0.1605
 2112POPC   C4B25608  28.311   6.792  14.143 -0.2148 -0.0839  0.0763
 2113POPC   NC325609  27.779  13.636  15.455  0.1182 -0.1135  0.0530
 2113POPC   PO425610  27.481  13.457  15.301 -0.3183 -0.1191  0.1395
 2113POPC   GL125611  27.346  13.448  15.680 -0.3069  0.0361  0.2877
 2113POPC   GL225612  27.085  13.502  15.612 -0.3107  0.2184  0.1832
 2113POPC   C1A25613  27.693  13.429  16.008  0.0218 -0.0403 -0.0637
 2113POPC   D2A25614  28.010  13.348  16.363 -0.0089  0.1710 -0.2970
 2113POPC   C3A25615  28.054  12.980  16.628 -0.2758  0.2506 -0.1393
 2113POPC   C4A25616  27.905  12.787  17.045 -0.2739  0.0048  0.2327
 2113POPC   C1B25617  27.120  13.346  16.059 -0.0769 -0.2802  0.0044
 2113POPC   C2B25618  26.889  13.399  16.494  0.1603  0.2668  0.0919
 2113POPC   C3B25619  26.774  13.434  16.914  0.1387 -0.0434  0.0661
 2113POPC   C4B25620  26.707  13.143  17.323  0.0305  0.4541 -0.3077
 2114POPC   NC325621  17.623  13.834  15.348 -0.1964 -0.0107 -0.0457
 2114POPC   PO425622  17.212  13.831  15.271 -0.3107  0.1673  0.0153
 2114POPC   GL125623  17.242  13.637  15.646  0.2202 -0.1817 -0.3953
 2114POPC   GL225624  16.951  13.588  15.679 -0.2070  0.2155 -0.1122
 2114POPC   C1A25625  17.417  13.779  16.077  0.2622 -0.0354  0.0200
 2114POPC   D2A25626  17.701  13.820  16.485  0.2106  0.1079  0.0218
 2114POPC   C3A25627  17.532  13.667  16.844  0.1078  0.0032  0.2161
 2114POPC   C4A25628  17.503  13.361  17.195 -0.0181 -0.2112 -0.1519
 2114POPC   C1B25629  17.014  13.544  16.159  0.0325 -0.6583 -0.2374
 2114POPC   C2B25630  17.120  13.650  16.599  0.0342 -0.1482 -0.3734
 2114POPC   C3B25631  16.867  13.652  16.942 -0.0662  0.0828 -0.1352
 2114POPC   C4B25632  16.821  13.792  17.337 -0.0973 -0.2327  0.0774
 2115POPC   NC325633  30.556  26.857  14.619  0.0543  0.0636 -0.0988
 2115POPC   PO425634  30.350  26.941  14.950  0.0999  0.2153  0.1654
 2115POPC   GL125635  30.348  27.078  15.344 -0.0824  0.1351 -0.2367
 2115POPC   GL225636  30.056  27.126  15.450 -0.0552 -0.2405 -0.3013
 2115POPC   C1A25637  30.462  26.831  15.724  0.1859 -0.1965  0.1931
 2115POPC   D2A25638  30.316  26.722  16.161  0.2948 -0.0793  0.4686
 2115POPC   C3A25639  30.162  26.323  16.360 -0.2351 -0.0117  0.0750
 2115POPC   C4A25640  29.987  26.314  16.742  0.1489 -0.4042 -0.0647
 2115POPC   C1B25641  30.088  27.094  15.940  0.2196 -0.1835 -0.4102
 2115POPC   C2B25642  29.917  27.029  16.420 -0.3446  0.2550 -0.0243
 2115POPC   C3B25643  30.026  27.044  16.918 -0.0621 -0.1116  0.0038
 2115POPC   C4B25644  30.331  26.919  17.216 -0.0205 -0.0263 -0.0665
 2116POPC   NC325645  15.417  13.038  15.590 -0.0976 -0.0974  0.1844
 2116POPC   PO425646  15.147  13.273  15.739 -0.1198 -0.0481  0.0245
 2116POPC   GL125647  15.277  13.246  16.080  0.0129 -0.0957  0.1086
 2116POPC   GL225648  15.048  13.383  16.237 -0.0048 -0.0247 -0.1894
 2116POPC   C1A25649  15.234  12.887  16.361 -0.0336  0.1149  0.2837
 2116POPC   D2A25650  15.067  12.705  16.725 -0.0270  0.2484 -0.0622
 2116POPC   C3A25651  15.348  12.424  16.956  0.0797  0.0376 -0.3515
 2116POPC   C4A25652  15.385  12.162  17.353 -0.2207 -0.1203 -0.2387
 2116POPC   C1B25653  14.992  13.673  16.566  0.4322 -0.0257 -0.1447
 2116POPC   C2B25654  14.952  13.950  16.918  0.2959 -0.2361  0.2205
 2116POPC   C3B25655  14.616  14.157  17.094  0.1095 -0.1979 -0.3886
 2116POPC   C4B25656  14.316  14.573  17.308 -0.0875  0.2056 -0.0489
 2117POPC   NC325657  23.196  16.828  15.354  0.0908 -0.1445  0.2274
 2117POPC   PO425658  23.255  17.248  15.325 -0.0051 -0.2331  0.0420
 2117POPC   GL125659  23.053  17.141  15.684  0.0777 -0.4095 -0.1491
 2117POPC   GL225660  22.773  17.081  15.550  0.0127  0.0069 -0.0372
 2117POPC   C1A25661  23.295  17.046  16.096  0.3221 -0.0360  0.1475
 2117POPC   D2A25662  23.382  16.913  16.538  0.0276  0.1912 -0.2442
 2117POPC   C3A25663  22.997  17.089  16.797 -0.1771  0.0229  0.0994
 2117POPC   C4A25664  22.912  17.021  17.193  0.0636  0.0869  0.1363
 2117POPC   C1B25665  22.677  17.116  16.003 -0.2532  0.0066  0.0201
 2117POPC   C2B25666  22.530  16.913  16.414 -0.5095  0.1300 -0.0944
 2117POPC   C3B25667  22.464  16.685  16.825  0.2447  0.0321 -0.0004
 2117POPC   C4B25668  22.500  16.610  17.286  0.1258 -0.0070  0.3311
 2118POPC   NC325669  17.094   1.844  15.065 -0.0624 -0.1336 -0.2908
 2118POPC   PO425670  17.270   2.038  15.362  0.2380 -0.0408  0.0670
 2118POPC   GL125671  17.688   1.900  15.615 -0.1331 -0.1330 -0.0809
 2118POPC   GL225672  17.756   1.595  15.642 -0.1555 -0.0647  0.0774
 2118POPC   C1A25673  17.917   1.897  16.019 -0.1585 -0.4418 -0.1237
 2118POPC   D2A25674  18.015   1.806  16.458  0.1526  0.3005  0.3961
 2118POPC   C3A25675  18.235   2.041  16.741 -0.0103  0.1922  0.2502
 2118POPC   C4A25676  18.233   2.427  17.010  0.0042 -0.0252  0.2114
 2118POPC   C1B25677  17.404   1.602  15.939  0.1347  0.3951  0.3045
 2118POPC   C2B25678  17.105   1.709  16.329  0.0295 -0.3485  0.2179
 2118POPC   C3B25679  16.971   1.416  16.593  0.0833 -0.0428  0.0031
 2118POPC   C4B25680  16.886   1.007  16.712  0.0295 -0.0636 -0.5117
 2119POPC   NC325681  15.685  25.266  14.789  0.1298  0.0472 -0.3610
 2119POPC   PO425682  15.425  25.195  15.058 -0.0468  0.1087  0.0422
 2119POPC   GL125683  15.413  25.096  15.449 -0.0321  0.3837 -0.4056
 2119POPC   GL225684  15.417  24.832  15.401 -0.1472  0.0146 -0.0605
 2119POPC   C1A25685  15.172  24.972  15.841  0.0163  0.1871 -0.0607
 2119POPC   D2A25686  14.886  24.919  16.164  0.0051  0.2941  0.2049
 2119POPC   C3A25687  14.556  25.057  16.462 -0.0856  0.2753  0.1705
 2119POPC   C4A25688  14.319  25.371  16.696  0.0889 -0.1992 -0.1831
 2119POPC   C1B25689  15.407  24.527  15.775 -0.1456  0.0330  0.1823
 2119POPC   C2B25690  15.516  24.168  16.048 -0.4683 -0.1147 -0.0485
 2119POPC   C3B25691  15.444  24.209  16.529  0.1223 -0.0170  0.1210
 2119POPC   C4B25692  15.175  24.031  16.762  0.2777 -0.3875  0.2303
 2120POPC   NC325693  15.328  18.686  15.464  0.2338 -0.1636  0.1210
 2120POPC   PO425694  15.263  19.055  15.531  0.2710  0.0473 -0.0890
 2120POPC   GL125695  15.121  18.675  15.878  0.1716  0.1926 -0.2344
 2120POPC   GL225696  14.899  18.428  15.795 -0.0422  0.2737  0.0800
 2120POPC   C1A25697  15.283  18.267  16.052  0.2624  0.0636  0.3179
 2120POPC   D2A25698  15.095  18.135  16.490 -0.6683  0.1024  0.0756
 2120POPC   C3A25699  15.248  18.336  16.878 -0.1510 -0.0964  0.1906
 2120POPC   C4A25700  15.096  18.589  17.252 -0.0663 -0.0604 -0.0714
 2120POPC   C1B25701  14.900  18.484  16.217  0.1507  0.0690  0.0674
 2120POPC   C2B25702  14.976  18.696  16.577 -0.1490 -0.0230 -0.2387
 2120POPC   C3B25703  14.859  19.103  16.795 -0.3846 -0.1576  0.0178
 2120POPC   C4B25704  14.740  19.514  16.977 -0.2056 -0.0897  0.0878
 2121POPC   NC325705  10.375   7.982  15.502 -0.4119  0.3373  0.1743
 2121POPC   PO425706  10.687   8.124  15.631 -0.2369  0.0259 -0.0191
 2121POPC   GL125707  10.638   7.864  15.892  0.0249  0.2644  0.0772
 2121POPC   GL225708  10.439   8.017  16.107  0.0255  0.0375  0.0725
 2121POPC   C1A25709  10.591   7.571  16.316  0.0450 -0.0015 -0.1192
 2121POPC   D2A25710  10.556   7.512  16.772 -0.1985 -0.1084  0.2500
 2121POPC   C3A25711  10.640   7.533  17.262 -0.0136 -0.2100 -0.4683
 2121POPC   C4A25712  10.888   7.690  17.615 -0.0794 -0.1003  0.0247
 2121POPC   C1B25713  10.533   8.036  16.547 -0.6060  0.0297  0.1099
 2121POPC   C2B25714  10.461   7.947  17.031 -0.1871 -0.2129  0.0097
 2121POPC   C3B25715  10.538   8.005  17.459 -0.2109 -0.1238  0.1921
 2121POPC   C4B25716  10.707   8.052  17.896 -0.0899 -0.2461 -0.0545
 2122POPC   NC325717  14.161   2.144  14.960 -0.0140  0.2170 -0.0712
 2122POPC   PO425718  14.424   2.298  15.213  0.1642 -0.1801  0.3117
 2122POPC   GL125719  14.389   1.895  15.353 -0.2882  0.0884  0.1297
 2122POPC   GL225720  14.597   1.815  15.153  0.1689  0.0760 -0.1530
 2122POPC   C1A25721  14.565   1.693  15.741  0.2093 -0.2601  0.1676
 2122POPC   D2A25722  14.917   1.584  15.993  0.2408 -0.2023 -0.1773
 2122POPC   C3A25723  14.944   1.589  16.441 -0.1596 -0.2169 -0.0618
 2122POPC   C4A25724  14.969   1.285  16.747  0.1321 -0.2159 -0.0395
 2122POPC   C1B25725  14.565   1.411  15.371  0.0782 -0.2164 -0.1537
 2122POPC   C2B25726  14.652   1.199  15.748  0.0215 -0.0092 -0.2529
 2122POPC   C3B25727  14.617   1.217  16.221  0.1749 -0.0801  0.2031
 2122POPC   C4B25728  14.464   1.528  16.548 -0.1494  0.0502  0.2608
 2123POPC   NC325729  25.577   9.594  15.398  0.1243  0.1421 -0.0233
 2123POPC   PO425730  25.959   9.615  15.340  0.0967  0.0898 -0.3423
 2123POPC   GL125731  26.200   9.567  15.690  0.3835 -0.0060 -0.3148
 2123POPC   GL225732  26.486   9.649  15.679 -0.2718  0.1653 -0.1326
 2123POPC   C1A25733  26.314   9.366  16.069  0.2126 -0.1080  0.2293
 2123POPC   D2A25734  26.522   9.416  16.517 -0.0432  0.2352 -0.0310
 2123POPC   C3A25735  26.555   9.318  16.958 -0.1711  0.0517 -0.0224
 2123POPC   C4A25736  26.648   8.971  17.309 -0.1032 -0.2499 -0.0549
 2123POPC   C1B25737  26.564   9.760  16.120  0.1512 -0.2648 -0.1297
 2123POPC   C2B25738  26.694   9.904  16.551  0.0980  0.3193 -0.0978
 2123POPC   C3B25739  26.722   9.961  16.982 -0.0263 -0.3192 -0.1485
 2123POPC   C4B25740  26.762   9.715  17.397  0.0136  0.1615 -0.0051
 2124POPC   NC325741   1.725  20.492  15.815 -0.0671  0.1599  0.0286
 2124POPC   PO425742   1.670  20.559  15.406 -0.3436 -0.1848 -0.3405
 2124POPC   GL125743   1.492  20.882  15.738  0.1132 -0.1312 -0.0530
 2124POPC   GL225744   1.348  21.098  15.589 -0.1608  0.2445  0.0030
 2124POPC   C1A25745   1.428  20.778  16.195  0.0699 -0.3191 -0.1486
 2124POPC   D2A25746   1.226  20.477  16.497 -0.3166 -0.1229  0.1471
 2124POPC   C3A25747   0.865  20.304  16.750 -0.1956 -0.0233  0.0479
 2124POPC   C4A25748   0.584  20.407  17.089 -0.1895  0.2565 -0.2493
 2124POPC   C1B25749   1.228  21.189  16.023 -0.2680 -0.1742 -0.0336
 2124POPC   C2B25750   1.114  21.144  16.470  0.4103  0.1573 -0.0095
 2124POPC   C3B25751   1.319  20.930  16.789 -0.1436  0.0166  0.0890
 2124POPC   C4B25752   1.032  20.703  17.021 -0.1677 -0.1775  0.1823
 2125POPC   NC325753  16.324   1.153  14.720 -0.0490  0.1754 -0.0141
 2125POPC   PO425754  16.667   1.335  14.684 -0.0107 -0.3218 -0.1985
 2125POPC   GL125755  16.465   1.477  14.948  0.1135  0.0174  0.0118
 2125POPC   GL225756  16.684   1.511  15.146 -0.1311  0.1769 -0.1201
 2125POPC   C1A25757  16.081   1.474  15.180  0.0446  0.0850  0.0038
 2125POPC   D2A25758  15.635   1.480  15.126  0.1583  0.1784 -0.2569
 2125POPC   C3A25759  15.258   1.249  15.235 -0.2417  0.2547 -0.2418
 2125POPC   C4A25760  14.963   0.917  15.401  0.1663  0.0919  0.0893
 2125POPC   C1B25761  16.432   1.582  15.550  0.1734  0.2834 -0.2432
 2125POPC   C2B25762  16.268   1.698  15.957 -0.3998 -0.2050 -0.4623
 2125POPC   C3B25763  15.931   1.826  16.315 -0.0957  0.0726  0.1718
 2125POPC   C4B25764  15.894   2.149  16.663 -0.1721 -0.1717  0.1846
 2126POPC   NC325765   9.697  18.792  15.672  0.0279  0.1405  0.0730
 2126POPC   PO425766   9.522  18.451  15.602  0.0091 -0.2884  0.0519
 2126POPC   GL125767   9.651  18.384  16.005  0.1122  0.1226 -0.1879
 2126POPC   GL225768   9.795  18.091  15.876  0.1113  0.1293  0.1323
 2126POPC   C1A25769   9.561  18.353  16.447 -0.2385 -0.2389  0.0504
 2126POPC   D2A25770   9.484  18.294  16.887 -0.2305  0.1188 -0.1835
 2126POPC   C3A25771   9.310  17.962  17.192  0.1854 -0.1289  0.2504
 2126POPC   C4A25772   9.039  17.823  17.501 -0.1267 -0.0761  0.1531
 2126POPC   C1B25773   9.607  17.891  16.271 -0.2631  0.0583 -0.3595
 2126POPC   C2B25774   9.453  17.468  16.392 -0.1962  0.1170 -0.2886
 2126POPC   C3B25775   9.493  17.055  16.565 -0.0381 -0.1678  0.1800
 2126POPC   C4B25776   9.597  16.538  16.567  0.3383 -0.2074 -0.0273
 2127POPC   NC325777  31.386  16.026  15.252 -0.1569 -0.2518  0.1484
 2127POPC   PO425778  31.721  16.121  15.068  0.0069 -0.0466  0.2472
 2127POPC   GL125779  32.016  16.128  15.316 -0.1850  0.2257 -0.1348
 2127POPC   GL225780  32.245  15.905  15.324 -0.0565 -0.1902  0.1064
 2127POPC   C1A25781  32.074  15.922  15.746 -0.2233 -0.2009  0.0738
 2127POPC   D2A25782  31.830  15.658  16.014 -0.0221 -0.3316 -0.1700
 2127POPC   C3A25783  31.776  15.657  16.499 -0.1637 -0.1433 -0.1941
 2127POPC   C4A25784  31.713  15.639  16.956  0.2627  0.0175 -0.4387
 2127POPC   C1B25785  32.554  16.037  15.651  0.1289 -0.0472  0.2494
 2127POPC   C2B25786  32.925  16.297  15.902 -0.2262  0.1902  0.1415
 2127POPC   C3B25787  33.316  16.281  16.151 -0.2010  0.1516 -0.0962
 2127POPC   C4B25788  33.791  16.098  16.298  0.0191 -0.1509  0.2378
 2128POPC   NC325789  14.034  14.384  15.538 -0.0902  0.0785 -0.1364
 2128POPC   PO425790  13.843  14.188  15.268  0.1295  0.0741 -0.1503
 2128POPC   GL125791  13.644  14.053  15.588 -0.1175  0.4545 -0.1251
 2128POPC   GL225792  13.420  13.896  15.452 -0.0636 -0.2390  0.0716
 2128POPC   C1A25793  13.841  14.098  15.973 -0.1464 -0.1663  0.2733
 2128POPC   D2A25794  13.893  14.200  16.370 -0.0675 -0.1821  0.3553
 2128POPC   C3A25795  13.591  14.185  16.713 -0.0693  0.1094  0.0636
 2128POPC   C4A25796  13.310  14.356  17.076 -0.2217 -0.1249 -0.1849
 2128POPC   C1B25797  13.396  13.827  15.875 -0.0279  0.1725 -0.0820
 2128POPC   C2B25798  13.403  13.720  16.340  0.0691 -0.1570  0.0826
 2128POPC   C3B25799  13.425  13.653  16.802  0.1261 -0.0247 -0.1863
 2128POPC   C4B25800  13.115  13.447  17.130  0.3417  0.0746 -0.0724
 2129POPC   NC325801  12.652  10.294  15.177 -0.2545 -0.1239  0.0479
 2129POPC   PO425802  12.370  10.028  15.228 -0.5112  0.1421  0.2711
 2129POPC   GL125803  12.513   9.976  15.532 -0.0030 -0.1100  0.1346
 2129POPC   GL225804  12.586  10.281  15.679 -0.0742  0.0807  0.1495
 2129POPC   C1A25805  12.744   9.862  15.923 -0.1499 -0.1413 -0.0392
 2129POPC   D2A25806  13.110   9.739  16.203  0.2744  0.5368  0.0504
 2129POPC   C3A25807  13.133   9.335  16.408  0.1125 -0.1784  0.0452
 2129POPC   C4A25808  13.203   9.251  16.844 -0.1263 -0.0861 -0.0757
 2129POPC   C1B25809  12.859  10.347  16.043  0.1543  0.2649  0.0351
 2129POPC   C2B25810  13.041  10.175  16.405  0.2740 -0.0662  0.2137
 2129POPC   C3B25811  13.463  10.256  16.597  0.1326  0.0608  0.2900
 2129POPC   C4B25812  13.696  10.255  16.974 -0.0317 -0.2914  0.5264
 2130POPC   NC325813  14.351  14.834  14.849  0.0113  0.1259  0.2829
 2130POPC   PO425814  14.343  14.704  15.230  0.1088  0.0564  0.0330
 2130POPC   GL125815  14.132  14.816  15.613 -0.0607  0.1919  0.0986
 2130POPC   GL225816  14.351  14.858  15.789  0.0161 -0.0148  0.1341
 2130POPC   C1A25817  13.873  14.680  16.009 -0.2241 -0.2817  0.1494
 2130POPC   D2A25818  13.628  14.726  16.391  0.1817  0.1491  0.0975
 2130POPC   C3A25819  13.881  14.647  16.790  0.4540  0.1454 -0.2202
 2130POPC   C4A25820  13.878  14.359  17.163  0.2957  0.1627 -0.0466
 2130POPC   C1B25821  14.192  15.025  16.176 -0.0182 -0.1505 -0.2043
 2130POPC   C2B25822  13.951  15.100  16.537  0.3594 -0.0115  0.0023
 2130POPC   C3B25823  13.832  15.121  17.001  0.1158  0.0615  0.0716
 2130POPC   C4B25824  13.580  15.401  17.302 -0.2489  0.2290 -0.1166
 2131POPC   NC325825   7.949   3.139  14.752  0.0172  0.0309 -0.1082
 2131POPC   PO425826   8.197   3.157  15.036  0.2855 -0.0013 -0.1229
 2131POPC   GL125827   8.167   3.140  15.394 -0.3605  0.0220  0.0197
 2131POPC   GL225828   8.131   2.844  15.444 -0.3343 -0.1134 -0.0513
 2131POPC   C1A25829   8.357   3.115  15.817  0.0107  0.0872 -0.2276
 2131POPC   D2A25830   8.225   3.149  16.303 -0.0935 -0.2187 -0.1352
 2131POPC   C3A25831   7.944   3.542  16.380 -0.0253  0.1327  0.0421
 2131POPC   C4A25832   7.642   3.850  16.151 -0.1677 -0.1950  0.1476
 2131POPC   C1B25833   8.014   2.772  15.868 -0.0343 -0.4435 -0.0906
 2131POPC   C2B25834   7.690   2.602  16.133  0.2341  0.0834  0.0964
 2131POPC   C3B25835   7.310   2.589  16.423 -0.2305  0.0384 -0.2708
 2131POPC   C4B25836   7.150   2.571  16.835 -0.0688 -0.1952 -0.1307
 2132POPC   NC325837   7.411   3.656  15.107 -0.0837 -0.0353  0.1559
 2132POPC   PO425838   7.719   3.467  15.089 -0.2966  0.0283  0.0862
 2132POPC   GL125839   7.726   3.597  15.501  0.0602  0.1466  0.1978
 2132POPC   GL225840   7.820   3.367  15.591  0.0149 -0.0684  0.0986
 2132POPC   C1A25841   8.037   3.688  15.815  0.0469 -0.5433 -0.3356
 2132POPC   D2A25842   8.481   3.702  15.898 -0.0175 -0.1156  0.0052
 2132POPC   C3A25843   8.657   3.931  16.212 -0.3505 -0.0145 -0.1213
 2132POPC   C4A25844   9.012   4.151  16.335  0.0704 -0.1171  0.2254
 2132POPC   C1B25845   7.853   3.230  16.013  0.2052  0.2356 -0.2102
 2132POPC   C2B25846   7.680   3.032  16.384  0.0185  0.2557  0.1912
 2132POPC   C3B25847   7.377   3.176  16.653 -0.1839  0.3551 -0.1088
 2132POPC   C4B25848   7.362   2.985  17.101 -0.2503  0.2778 -0.0006
 2133POPC   NC325849  29.037  10.997  15.318  0.1770  0.2916  0.0692
 2133POPC   PO425850  28.660  10.939  15.180  0.1953 -0.0270 -0.0673
 2133POPC   GL125851  28.588  10.901  15.575 -0.2116  0.2426  0.0188
 2133POPC   GL225852  28.517  10.672  15.690  0.1501 -0.1580 -0.1711
 2133POPC   C1A25853  28.962  10.889  15.812 -0.1686 -0.2989  0.1905
 2133POPC   D2A25854  29.125  10.740  16.239 -0.0977  0.0127 -0.2476
 2133POPC   C3A25855  28.939  10.954  16.634 -0.1057  0.0559  0.0832
 2133POPC   C4A25856  29.016  11.001  17.040 -0.3241  0.1446 -0.2663
 2133POPC   C1B25857  28.426  10.604  16.161 -0.0956 -0.1257  0.0008
 2133POPC   C2B25858  28.780  10.494  16.451 -0.0685 -0.3625  0.1303
 2133POPC   C3B25859  28.975  10.481  16.819  0.0306 -0.4506  0.2589
 2133POPC   C4B25860  29.042  10.533  17.317 -0.0282 -0.2598 -0.2152
 2134POPC   NC325861   8.869  16.534  15.227  0.1454 -0.0110  0.1681
 2134POPC   PO425862   9.054  16.857  15.364  0.1017  0.2745 -0.0770
 2134POPC   GL125863   8.725  16.758  15.584  0.2137 -0.1580  0.0156
 2134POPC   GL225864   8.849  16.511  15.714 -0.0725 -0.5314  0.2181
 2134POPC   C1A25865   8.576  16.910  15.998 -0.0801 -0.2770  0.1921
 2134POPC   D2A25866   8.602  17.238  16.350  0.1112  0.0696 -0.0295
 2134POPC   C3A25867   8.275  17.393  16.657  0.2435  0.3703 -0.1957
 2134POPC   C4A25868   8.265  17.647  17.043  0.3094 -0.0199  0.1555
 2134POPC   C1B25869   9.098  16.678  16.024 -0.0555  0.1545 -0.2190
 2134POPC   C2B25870   9.077  16.703  16.457  0.1680 -0.0990  0.0926
 2134POPC   C3B25871   9.194  16.612  16.887  0.1935  0.3663 -0.3593
 2134POPC   C4B25872   9.006  16.877  17.179  0.0527  0.1014 -0.0601
 2135POPC   NC325873   2.808  27.046  15.409  0.0722  0.1092 -0.0522
 2135POPC   PO425874   2.488  26.829  15.427  0.1346  0.1165 -0.1683
 2135POPC   GL125875   2.433  26.762  15.823 -0.2040  0.3942  0.3482
 2135POPC   GL225876   2.100  26.803  15.883  0.0525 -0.0060  0.2891
 2135POPC   C1A25877   2.484  27.161  16.058  0.0736  0.1878  0.1696
 2135POPC   D2A25878   2.551  27.632  16.118 -0.1900  0.6775  0.0337
 2135POPC   C3A25879   2.556  27.737  16.544 -0.0172  0.0335  0.3073
 2135POPC   C4A25880   2.474  27.563  16.901 -0.1260 -0.0192 -0.0849
 2135POPC   C1B25881   2.316  26.757  16.304  0.0207  0.1169  0.2764
 2135POPC   C2B25882   2.370  26.671  16.730 -0.1767 -0.0896 -0.0538
 2135POPC   C3B25883   2.400  27.010  17.025  0.1105 -0.0112 -0.1513
 2135POPC   C4B25884   2.707  27.286  17.265 -0.2231  0.1727  0.2426
 2136POPC   NC325885  13.028  13.467  15.565 -0.1251  0.0087  0.1253
 2136POPC   PO425886  12.626  13.502  15.491  0.0317 -0.1410  0.1740
 2136POPC   GL125887  12.691  13.574  15.837  0.0381 -0.1105  0.0844
 2136POPC   GL225888  12.437  13.353  15.936 -0.0228 -0.2164 -0.0002
 2136POPC   C1A25889  12.997  13.399  16.124  0.0991  0.1002 -0.1641
 2136POPC   D2A25890  13.051  13.323  16.543 -0.2389 -0.1962  0.0177
 2136POPC   C3A25891  12.754  13.154  16.787  0.0162 -0.3403 -0.0453
 2136POPC   C4A25892  12.578  13.012  17.168 -0.0989 -0.1291  0.0945
 2136POPC   C1B25893  12.589  13.432  16.347  0.4441 -0.1993 -0.1402
 2136POPC   C2B25894  12.617  13.626  16.764 -0.2208 -0.1505 -0.0824
 2136POPC   C3B25895  12.572  13.703  17.210 -0.0335 -0.1832  0.1021
 2136POPC   C4B25896  12.797  13.512  17.562  0.2345  0.0307 -0.2157
 2137POPC   NC325897   0.919   5.166  14.936  0.3000 -0.0572  0.0827
 2137POPC   PO425898   0.842   4.822  15.132 -0.1783  0.0047 -0.1781
 2137POPC   GL125899   1.063   4.556  15.522  0.0926  0.3284  0.2789
 2137POPC   GL225900   1.328   4.462  15.562 -0.0249  0.1097 -0.0444
 2137POPC   C1A25901   1.078   4.481  15.984  0.1553  0.0957  0.0699
 2137POPC   D2A25902   0.930   4.641  16.386 -0.4061 -0.1621 -0.2313
 2137POPC   C3A25903   0.895   4.374  16.764 -0.1216  0.1882 -0.0166
 2137POPC   C4A25904   0.857   4.238  17.223  0.0655  0.1267 -0.3193
 2137POPC   C1B25905   1.521   4.214  15.977 -0.1042  0.1654 -0.1303
 2137POPC   C2B25906   1.481   4.423  16.368  0.1285  0.0781 -0.3230
 2137POPC   C3B25907   1.415   4.509  16.831  0.0942  0.0530  0.1829
 2137POPC   C4B25908   1.182   4.598  17.265 -0.0958 -0.1597  0.0174
 2138POPC   NC325909   4.581  25.855  14.979  0.3754 -0.0517 -0.2401
 2138POPC   PO425910   4.376  25.760  15.280 -0.1254 -0.0872 -0.3395
 2138POPC   GL125911   4.309  25.647  15.679 -0.1044 -0.0318  0.1406
 2138POPC   GL225912   4.058  25.682  15.809  0.0316  0.0538 -0.0944
 2138POPC   C1A25913   4.491  25.884  16.016  0.1174 -0.1862 -0.1436
 2138POPC   D2A25914   4.449  25.931  16.477  0.0081 -0.1556  0.0797
 2138POPC   C3A25915   4.625  26.312  16.695  0.0282 -0.2831 -0.2462
 2138POPC   C4A25916   4.913  26.378  17.039 -0.0152 -0.0730  0.0110
 2138POPC   C1B25917   4.034  25.921  16.226  0.0401  0.2983  0.0506
 2138POPC   C2B25918   3.959  26.017  16.660 -0.0743 -0.1326  0.0349
 2138POPC   C3B25919   3.900  26.072  17.162  0.2198 -0.1858 -0.0104
 2138POPC   C4B25920   3.929  26.481  17.413  0.1633 -0.0656 -0.1096
 2139POPC   NC325921  27.409  17.304  15.103 -0.1954 -0.1854 -0.0930
 2139POPC   PO425922  27.318  16.967  15.236 -0.0931  0.1188 -0.0747
 2139POPC   GL125923  27.132  16.875  15.636  0.1708  0.1690  0.0745
 2139POPC   GL225924  27.296  16.693  15.840 -0.0295  0.1537  0.4233
 2139POPC   C1A25925  26.786  17.034  15.919  0.0139 -0.3105  0.0076
 2139POPC   D2A25926  26.352  17.145  15.866  0.0355  0.4594 -0.1211
 2139POPC   C3A25927  26.151  17.242  16.207  0.0106  0.1191 -0.1532
 2139POPC   C4A25928  26.051  17.245  16.705 -0.1820  0.1321  0.0671
 2139POPC   C1B25929  27.311  16.411  16.232 -0.1465 -0.0514 -0.0375
 2139POPC   C2B25930  27.564  16.278  16.633  0.0392  0.0311 -0.3987
 2139POPC   C3B25931  27.831  16.157  16.962 -0.0514 -0.1737  0.4659
 2139POPC   C4B25932  28.240  16.224  17.147 -0.1278 -0.0140  0.0535
 2140POPC   NC325933   7.635  28.901  15.035  0.2627 -0.3265  0.3679
 2140POPC   PO425934   7.293  28.777  15.048  0.0669 -0.2620 -0.1502
 2140POPC   GL125935   7.331  28.498  15.293 -0.1125  0.3383  0.0772
 2140POPC   GL225936   7.118  28.468  15.464 -0.0365 -0.0345 -0.2398
 2140POPC   C1A25937   7.604  28.208  15.532  0.0920 -0.2420 -0.0840
 2140POPC   D2A25938   7.532  28.073  15.992 -0.2127  0.1988 -0.0140
 2140POPC   C3A25939   7.396  28.016  16.388  0.1756  0.1443  0.1565
 2140POPC   C4A25940   7.059  27.926  16.678 -0.0578 -0.2859  0.0214
 2140POPC   C1B25941   7.073  28.297  15.931  0.5610 -0.3991 -0.0446
 2140POPC   C2B25942   7.282  28.465  16.319 -0.1466 -0.0718  0.0512
 2140POPC   C3B25943   7.079  28.528  16.732 -0.0675 -0.4194 -0.0530
 2140POPC   C4B25944   6.648  28.403  16.796 -0.1560 -0.0837 -0.1940
 2141POPC   NC325945  28.969  24.885  14.493 -0.1818  0.1184 -0.1384
 2141POPC   PO425946  28.807  25.228  14.670  0.0014  0.1342  0.0539
 2141POPC   GL125947  28.613  25.376  15.076  0.0433 -0.0214 -0.1021
 2141POPC   GL225948  28.810  25.394  15.355  0.2498  0.1484  0.2602
 2141POPC   C1A25949  28.312  25.519  15.406  0.1373 -0.2624 -0.1378
 2141POPC   D2A25950  28.022  25.591  15.738 -0.0956 -0.2207 -0.1743
 2141POPC   C3A25951  28.045  25.685  16.213 -0.0677 -0.0407 -0.4496
 2141POPC   C4A25952  28.287  25.462  16.599  0.0451 -0.0408  0.0180
 2141POPC   C1B25953  29.076  25.080  15.534  0.0098 -0.0526 -0.1960
 2141POPC   C2B25954  29.194  24.837  15.896 -0.1902 -0.0735 -0.2456
 2141POPC   C3B25955  29.471  24.537  16.245 -0.1234  0.0105  0.3348
 2141POPC   C4B25956  29.712  24.453  16.612  0.1689 -0.1258 -0.2544
 2142POPC   NC325957  14.510  28.524  15.793  0.1887  0.2818 -0.2857
 2142POPC   PO425958  14.514  28.168  15.784  0.0423 -0.5019 -0.2726
 2142POPC   GL125959  14.443  28.209  16.114 -0.4306  0.0214  0.0880
 2142POPC   GL225960  14.103  28.311  16.070 -0.0161  0.0576  0.3672
 2142POPC   C1A25961  14.615  28.542  16.460  0.1109  0.0232 -0.0496
 2142POPC   D2A25962  14.876  28.804  16.619 -0.1402  0.3366 -0.1034
 2142POPC   C3A25963  14.798  29.009  16.971 -0.1803 -0.0254 -0.3088
 2142POPC   C4A25964  14.471  29.067  17.298  0.0139  0.1085 -0.3941
 2142POPC   C1B25965  14.086  28.194  16.526 -0.1343 -0.2692 -0.2046
 2142POPC   C2B25966  13.982  28.249  16.938  0.1019  0.0175 -0.2095
 2142POPC   C3B25967  13.880  28.638  17.094 -0.1926  0.0354 -0.1508
 2142POPC   C4B25968  13.600  28.921  17.281 -0.3694 -0.0455 -0.3520
 2143POPC   NC325969  24.915  28.161  15.256  0.0799 -0.0469 -0.1681
 2143POPC   PO425970  24.565  28.336  15.356  0.0416 -0.1820 -0.0880
 2143POPC   GL125971  24.611  28.091  15.641  0.2694  0.0845  0.0408
 2143POPC   GL225972  24.630  27.787  15.538 -0.0139  0.1710  0.0270
 2143POPC   C1A25973  24.865  27.867  15.956 -0.3777  0.0530  0.2729
 2143POPC   D2A25974  25.011  28.186  16.197 -0.3329 -0.1760  0.0216
 2143POPC   C3A25975  25.291  28.238  16.583 -0.0417 -0.2714  0.2172
 2143POPC   C4A25976  25.586  28.480  16.781 -0.3422 -0.2280 -0.2763
 2143POPC   C1B25977  24.307  27.690  15.882  0.0128 -0.0702 -0.2847
 2143POPC   C2B25978  24.002  27.469  16.135 -0.4222 -0.1390  0.0697
 2143POPC   C3B25979  23.972  27.321  16.548 -0.1790 -0.1180  0.0046
 2143POPC   C4B25980  23.606  27.180  16.766  0.1185 -0.2144 -0.0451
 2144POPC   NC325981   3.520   5.927  15.144  0.0341 -0.0716 -0.2121
 2144POPC   PO425982   3.499   6.224  15.453 -0.0297  0.2358 -0.2936
 2144POPC   GL125983   3.623   6.129  15.794  0.3516  0.1471  0.1811
 2144POPC   GL225984   3.841   6.223  15.879  0.0416 -0.2299  0.2261
 2144POPC   C1A25985   3.463   5.983  16.220  0.0291  0.2614 -0.2258
 2144POPC   D2A25986   3.602   5.600  16.429  0.0230  0.1064  0.2991
 2144POPC   C3A25987   3.541   5.578  16.894 -0.0026  0.0942 -0.0539
 2144POPC   C4A25988   3.183   5.599  17.221 -0.3364 -0.0343  0.1053
 2144POPC   C1B25989   3.927   6.178  16.344  0.1896  0.2177  0.0591
 2144POPC   C2B25990   3.716   6.059  16.812 -0.0745 -0.3335 -0.1913
 2144POPC   C3B25991   3.491   6.011  17.187 -0.0938 -0.0917 -0.2144
 2144POPC   C4B25992   3.445   5.873  17.616 -0.5994 -0.0291 -0.0408
 2145POPC   NC325993   9.365  15.239  14.926  0.0125  0.0983  0.0452
 2145POPC   PO425994   9.035  15.261  15.163  0.1666  0.1752  0.0049
 2145POPC   GL125995   9.097  15.235  15.657 -0.0139 -0.0479  0.1359
 2145POPC   GL225996   9.340  15.096  15.688  0.0340  0.2154  0.0387
 2145POPC   C1A25997   9.165  15.402  16.081 -0.0801  0.0032 -0.0020
 2145POPC   D2A25998   9.331  15.639  16.452 -0.0179 -0.3112 -0.2975
 2145POPC   C3A25999   9.374  15.355  16.820 -0.2946  0.0594  0.1919
 2145POPC   C4A26000   9.487  15.039  17.171 -0.0994  0.0121  0.3302
 2145POPC   C1B26001   9.514  14.892  16.035  0.4328 -0.0736 -0.2495
 2145POPC   C2B26002   9.558  15.054  16.475  0.0493  0.0794  0.1091
 2145POPC   C3B26003   9.849  15.061  16.806  0.1915  0.2115 -0.0621
 2145POPC   C4B26004  10.038  15.218  17.249 -0.1705 -0.2790  0.0656
 2146POPC   NC326005   0.534  10.015  14.757 -0.5118 -0.1862 -0.0238
 2146POPC   PO426006   0.538   9.927  15.127 -0.1337  0.1002 -0.3218
 2146POPC   GL126007   0.342   9.834  15.547 -0.2208 -0.1024 -0.0602
 2146POPC   GL226008   0.340   9.569  15.666 -0.0026 -0.0826 -0.1206
 2146POPC   C1A26009   0.007   9.939  15.844 -0.0468  0.1471 -0.0181
 2146POPC   D2A26010  -0.185   9.767  16.241 -0.0702 -0.0097  0.0488
 2146POPC   C3A26011  -0.085   9.627  16.671 -0.0377  0.0262 -0.0323
 2146POPC   C4A26012  -0.052   9.486  17.112  0.0924  0.0556  0.1587
 2146POPC   C1B26013   0.211   9.439  16.117  0.0915 -0.2007 -0.2086
 2146POPC   C2B26014   0.233   9.299  16.536  0.0432  0.2083  0.2227
 2146POPC   C3B26015   0.444   9.380  17.004  0.0360  0.1768 -0.0456
 2146POPC   C4B26016   0.381   9.086  17.326  0.1238  0.0682  0.2091
 2147POPC   NC326017  17.528  12.621  15.505  0.0862  0.1187  0.2885
 2147POPC   PO426018  17.887  12.502  15.407  0.2727  0.0212  0.0932
 2147POPC   GL126019  18.005  12.420  15.788 -0.2109 -0.3154  0.1692
 2147POPC   GL226020  17.869  12.156  15.827 -0.2656  0.2436  0.1079
 2147POPC   C1A26021  18.269  12.509  16.195 -0.1067 -0.1056  0.0040
 2147POPC   D2A26022  18.184  12.375  16.595 -0.2538 -0.0298  0.2157
 2147POPC   C3A26023  17.962  12.012  16.756  0.0145 -0.0270 -0.0024
 2147POPC   C4A26024  17.756  11.802  17.096 -0.1953  0.0748  0.3518
 2147POPC   C1B26025  17.480  12.315  16.001 -0.1897  0.1497  0.2084
 2147POPC   C2B26026  17.201  12.512  16.352 -0.2763  0.1473  0.1316
 2147POPC   C3B26027  17.080  12.581  16.795 -0.0446 -0.0115 -0.0695
 2147POPC   C4B26028  17.172  12.256  17.112  0.0894  0.0930  0.1767
 2148POPC   NC326029   6.962  27.338  14.841 -0.2299  0.0057 -0.0743
 2148POPC   PO426030   6.688  27.053  15.034 -0.2383 -0.1590 -0.1761
 2148POPC   GL126031   6.780  26.783  15.350 -0.3260 -0.3690 -0.0537
 2148POPC   GL226032   6.488  26.603  15.447  0.2454  0.1747 -0.1413
 2148POPC   C1A26033   7.102  26.696  15.732  0.0663  0.0667  0.5172
 2148POPC   D2A26034   7.127  26.540  16.171  0.1057 -0.3436  0.0166
 2148POPC   C3A26035   7.410  26.240  16.366  0.0233  0.0931 -0.1712
 2148POPC   C4A26036   7.907  26.186  16.300  0.0781  0.1951  0.1145
 2148POPC   C1B26037   6.721  26.435  15.822 -0.2502  0.3376  0.1753
 2148POPC   C2B26038   6.534  26.188  16.186 -0.3803  0.0744  0.0791
 2148POPC   C3B26039   6.588  25.947  16.568 -0.0926 -0.3802 -0.0043
 2148POPC   C4B26040   6.765  25.827  16.978 -0.0344  0.0770  0.2922
 2149POPC   NC326041   0.333  31.348  15.181  0.1240  0.2472  0.1568
 2149POPC   PO426042   0.437  31.651  15.390 -0.1613 -0.1291  0.0057
 2149POPC   GL126043   0.518  31.693  15.854 -0.1688  0.0492 -0.0333
 2149POPC   GL226044   0.818  31.766  15.853 -0.1694 -0.3789 -0.0323
 2149POPC   C1A26045   0.388  31.931  16.220 -0.2205  0.1413  0.1224
 2149POPC   D2A26046   0.616  31.980  16.611  0.4005 -0.2414 -0.2538
 2149POPC   C3A26047   0.404  31.696  16.890 -0.4956 -0.4259  0.1537
 2149POPC   C4A26048   0.284  31.539  17.332  0.4237  0.0336  0.2003
 2149POPC   C1B26049   1.082  31.836  16.192 -0.1330 -0.1914  0.0396
 2149POPC   C2B26050   1.414  31.785  16.529  0.1103 -0.3153  0.2295
 2149POPC   C3B26051   1.469  32.002  16.921 -0.1537  0.1925  0.1135
 2149POPC   C4B26052   1.482  32.430  17.155 -0.0872 -0.2549  0.0155
 2150POPC   NC326053  19.662  30.336  15.467 -0.0132  0.1211  0.1654
 2150POPC   PO426054  19.871  30.680  15.403 -0.1179 -0.1366  0.2020
 2150POPC   GL126055  20.232  30.725  15.614  0.0180  0.1748  0.0788
 2150POPC   GL226056  20.366  31.002  15.581  0.0856  0.0078  0.1120
 2150POPC   C1A26057  20.240  30.725  16.067 -0.1208 -0.5148 -0.0746
 2150POPC   D2A26058  20.098  30.967  16.463 -0.2358  0.1634 -0.0412
 2150POPC   C3A26059  19.985  30.705  16.865 -0.0387 -0.1319  0.2194
 2150POPC   C4A26060  20.151  30.364  17.113 -0.3139  0.2710  0.0496
 2150POPC   C1B26061  20.648  31.199  15.923 -0.1166 -0.0463  0.0782
 2150POPC   C2B26062  20.953  31.223  16.308  0.1210  0.0492  0.1600
 2150POPC   C3B26063  20.933  31.476  16.692 -0.1010  0.1552 -0.1127
 2150POPC   C4B26064  20.843  31.766  16.950 -0.3062  0.1333  0.0422
 2151POPC   NC326065  26.042  23.732  15.536 -0.1695  0.0064  0.1390
 2151POPC   PO426066  25.881  23.488  15.258  0.2422 -0.0989  0.2962
 2151POPC   GL126067  25.596  23.484  15.527  0.1924  0.0641  0.0938
 2151POPC   GL226068  25.766  23.285  15.695  0.1178 -0.0948  0.4087
 2151POPC   C1A26069  25.378  23.762  15.798  0.1428  0.2245  0.2248
 2151POPC   D2A26070  25.141  23.887  16.169  0.0649 -0.0878  0.0185
 2151POPC   C3A26071  25.166  24.183  16.559  0.3930 -0.0453  0.0032
 2151POPC   C4A26072  24.991  24.253  16.961  0.0581  0.0022  0.0355
 2151POPC   C1B26073  25.661  23.313  16.179 -0.2109 -0.1428 -0.0284
 2151POPC   C2B26074  25.429  23.528  16.461  0.1600  0.0512 -0.1220
 2151POPC   C3B26075  25.072  23.689  16.638 -0.1477  0.1784  0.1188
 2151POPC   C4B26076  24.695  23.729  16.911 -0.2052  0.0945 -0.1405
 2152POPC   NC326077   1.469  27.462  15.814  0.1553 -0.1432 -0.0816
 2152POPC   PO426078   1.754  27.202  15.704 -0.0381  0.0988 -0.1211
 2152POPC   GL126079   1.688  27.061  16.034  0.0535 -0.2225 -0.1800
 2152POPC   GL226080   1.905  27.105  16.237  0.0609  0.2329 -0.0743
 2152POPC   C1A26081   1.552  26.929  16.481  0.0808 -0.0399  0.1161
 2152POPC   D2A26082   1.427  27.031  16.946  0.0599 -0.0333 -0.0858
 2152POPC   C3A26083   1.540  26.846  17.350  0.0139  0.0860  0.0462
 2152POPC   C4A26084   1.479  26.778  17.711  0.0953  0.0323 -0.2088
 2152POPC   C1B26085   2.027  27.013  16.680 -0.3422 -0.0706 -0.2027
 2152POPC   C2B26086   1.916  27.062  17.095 -0.1224 -0.2656 -0.0055
 2152POPC   C3B26087   2.087  27.223  17.496  0.0451 -0.2089  0.0321
 2152POPC   C4B26088   2.280  27.469  17.766 -0.2203  0.3974 -0.4021
 2153POPC   NC326089   2.593  12.634  14.849  0.1644 -0.0540 -0.0700
 2153POPC   PO426090   2.989  12.527  14.887 -0.1305  0.1907 -0.1559
 2153POPC   GL126091   2.716  12.482  15.364  0.0756  0.2637 -0.2726
 2153POPC   GL226092   2.890  12.541  15.526 -0.1366  0.2364  0.0054
 2153POPC   C1A26093   2.700  12.033  15.522 -0.1478  0.2510 -0.2775
 2153POPC   D2A26094   2.851  11.611  15.593  0.0088  0.0257  0.1874
 2153POPC   C3A26095   2.772  11.308  15.947 -0.0052 -0.1691 -0.0035
 2153POPC   C4A26096   2.625  11.029  16.259 -0.0024 -0.2832 -0.4693
 2153POPC   C1B26097   2.774  12.353  15.911  0.1705  0.2079 -0.0313
 2153POPC   C2B26098   2.798  12.483  16.359  0.1164 -0.3426  0.3276
 2153POPC   C3B26099   2.764  12.757  16.740  0.1095 -0.0724  0.0373
 2153POPC   C4B26100   2.582  12.944  17.091  0.2029 -0.1252 -0.0481
 2154POPC   NC326101  26.934  22.709  15.559  0.1238 -0.2302  0.0029
 2154POPC   PO426102  26.575  22.615  15.522 -0.0349 -0.1962 -0.0467
 2154POPC   GL126103  26.489  22.479  15.716 -0.0866  0.1445  0.1184
 2154POPC   GL226104  26.237  22.587  15.908 -0.1475 -0.1592 -0.1245
 2154POPC   C1A26105  26.451  22.140  15.987  0.2572  0.2926  0.0906
 2154POPC   D2A26106  26.286  21.957  16.370 -0.0827 -0.1313 -0.1000
 2154POPC   C3A26107  26.512  21.810  16.779 -0.3099 -0.2532 -0.0667
 2154POPC   C4A26108  26.793  21.473  16.898  0.2269  0.0321  0.0180
 2154POPC   C1B26109  26.406  22.556  16.293  0.2098 -0.2467 -0.0661
 2154POPC   C2B26110  26.301  22.590  16.667 -0.1283  0.0134 -0.0751
 2154POPC   C3B26111  25.937  22.294  16.802 -0.1634 -0.2210  0.2840
 2154POPC   C4B26112  25.585  22.129  16.598  0.1752 -0.4483 -0.1729
 2155POPC   NC326113  19.133  22.005  15.065 -0.2580 -0.0923 -0.0482
 2155POPC   PO426114  19.286  21.699  15.246 -0.0644  0.0630 -0.0429
 2155POPC   GL126115  19.345  21.680  15.591 -0.1960 -0.5330  0.0420
 2155POPC   GL226116  19.565  21.767  15.780  0.0851 -0.1744  0.1370
 2155POPC   C1A26117  19.124  21.496  15.939  0.0070 -0.1812  0.1017
 2155POPC   D2A26118  19.010  21.362  16.335 -0.1607 -0.1949  0.1576
 2155POPC   C3A26119  19.290  21.363  16.691  0.2161  0.0054 -0.2058
 2155POPC   C4A26120  19.400  21.690  16.982  0.1677  0.1747 -0.3103
 2155POPC   C1B26121  19.914  21.849  16.080 -0.1393 -0.1876 -0.1806
 2155POPC   C2B26122  20.197  21.940  16.408  0.2191  0.2457 -0.1059
 2155POPC   C3B26123  20.449  21.890  16.786 -0.1145 -0.0916 -0.1216
 2155POPC   C4B26124  20.894  21.856  16.918 -0.0303 -0.1350  0.0083
 2156POPC   NC326125   6.426  21.383  15.230  0.0662 -0.0008 -0.2106
 2156POPC   PO426126   6.204  21.187  15.489 -0.1852  0.0025  0.1004
 2156POPC   GL126127   5.911  21.311  15.706 -0.0603  0.1724  0.1082
 2156POPC   GL226128   6.007  21.550  15.861 -0.1542 -0.0494 -0.0659
 2156POPC   C1A26129   5.628  21.160  16.083 -0.0733  0.0923  0.1217
 2156POPC   D2A26130   5.340  20.907  16.283  0.0012  0.1722  0.5043
 2156POPC   C3A26131   5.162  21.085  16.723 -0.2502  0.0968  0.1788
 2156POPC   C4A26132   5.341  21.371  17.004 -0.2147 -0.2521  0.2231
 2156POPC   C1B26133   6.332  21.474  16.160 -0.0581 -0.0975  0.0475
 2156POPC   C2B26134   6.350  21.613  16.510 -0.0800  0.0692  0.0113
 2156POPC   C3B26135   6.308  21.761  16.925  0.1264 -0.1038  0.0545
 2156POPC   C4B26136   6.285  21.793  17.382  0.1291 -0.0519  0.2116
 2157POPC   NC326137   2.541   1.342  14.906  0.0458 -0.1591  0.1495
 2157POPC   PO426138   2.237   1.612  14.893  0.2427 -0.5228  0.1302
 2157POPC   GL126139   2.409   1.567  15.297 -0.1609 -0.1709 -0.2066
 2157POPC   GL226140   2.342   1.286  15.489  0.2826  0.0406  0.0671
 2157POPC   C1A26141   2.186   1.733  15.673  0.0397  0.5188  0.1001
 2157POPC   D2A26142   2.097   2.004  16.104  0.1282 -0.0256 -0.0075
 2157POPC   C3A26143   2.282   1.853  16.499 -0.2492  0.1873  0.0538
 2157POPC   C4A26144   2.235   1.717  16.895 -0.1834  0.2210 -0.2338
 2157POPC   C1B26145   2.582   1.106  15.814  0.1890  0.0107 -0.0010
 2157POPC   C2B26146   2.649   1.138  16.292  0.2816  0.0544 -0.1086
 2157POPC   C3B26147   2.877   1.066  16.657 -0.2450  0.0626 -0.0732
 2157POPC   C4B26148   2.846   1.115  17.140 -0.4784 -0.2261 -0.0490
 2158POPC   NC326149  30.631  14.825  15.025  0.0082 -0.4461  0.0041
 2158POPC   PO426150  30.840  15.119  15.216  0.0913  0.3490  0.0645
 2158POPC   GL126151  30.983  15.235  15.514 -0.4290  0.2572 -0.0895
 2158POPC   GL226152  31.170  15.121  15.699  0.0604 -0.5917 -0.1303
 2158POPC   C1A26153  30.860  15.584  15.760  0.2328  0.1076  0.0706
 2158POPC   D2A26154  30.778  15.508  16.204  0.0990 -0.1572  0.1139
 2158POPC   C3A26155  30.777  15.724  16.631 -0.1590  0.3386  0.0712
 2158POPC   C4A26156  30.585  15.853  17.024  0.2066 -0.5606 -0.1170
 2158POPC   C1B26157  31.209  15.171  16.218 -0.0008 -0.0630 -0.1182
 2158POPC   C2B26158  30.956  15.268  16.612 -0.2226  0.1667 -0.1909
 2158POPC   C3B26159  30.705  15.313  16.983  0.2278  0.2285  0.0880
 2158POPC   C4B26160  30.744  15.460  17.392  0.2575 -0.0431  0.0131
 2159POPC   NC326161  21.093   7.121  15.184 -0.2331  0.0115 -0.0490
 2159POPC   PO426162  20.899   6.823  15.366  0.1218 -0.1400 -0.0936
 2159POPC   GL126163  20.766   6.662  15.782 -0.1286 -0.2972  0.0048
 2159POPC   GL226164  20.780   6.408  15.715 -0.0879 -0.4028  0.3357
 2159POPC   C1A26165  20.682   6.752  16.245 -0.1706 -0.1782  0.1618
 2159POPC   D2A26166  20.805   6.819  16.725  0.0816 -0.0440 -0.3163
 2159POPC   C3A26167  20.610   6.565  17.031 -0.0596  0.3388 -0.0499
 2159POPC   C4A26168  20.465   6.485  17.463 -0.0892 -0.1191  0.1038
 2159POPC   C1B26169  20.741   6.220  16.150  0.2345 -0.2772 -0.0924
 2159POPC   C2B26170  20.612   6.299  16.589 -0.0475 -0.1299 -0.2565
 2159POPC   C3B26171  20.642   6.064  17.034  0.2838  0.3308 -0.0901
 2159POPC   C4B26172  20.436   6.019  17.430  0.0863 -0.0491 -0.1659
 2160POPC   NC326173  28.768   9.524  14.904  0.1695  0.0407  0.0238
 2160POPC   PO426174  29.065   9.433  15.164 -0.2456  0.1636 -0.0426
 2160POPC   GL126175  29.038   9.445  15.604  0.1227  0.1005  0.1093
 2160POPC   GL226176  29.000   9.169  15.586  0.2996 -0.2625  0.0912
 2160POPC   C1A26177  28.685   9.597  15.842 -0.0450  0.1788  0.0837
 2160POPC   D2A26178  28.435   9.615  16.243 -0.0574 -0.2103  0.1795
 2160POPC   C3A26179  28.587   9.399  16.606 -0.3142 -0.0029  0.0835
 2160POPC   C4A26180  28.856   9.064  16.790  0.2047 -0.2879 -0.0715
 2160POPC   C1B26181  29.325   8.823  15.594 -0.0323 -0.3520  0.0615
 2160POPC   C2B26182  29.548   8.450  15.773 -0.0817 -0.2868  0.0343
 2160POPC   C3B26183  29.738   8.195  16.098  0.1065 -0.1320 -0.0261
 2160POPC   C4B26184  29.736   8.125  16.563 -0.3764  0.1581 -0.3545
 2161POPC   NC326185  13.431  10.142  15.400 -0.1259 -0.0741 -0.1573
 2161POPC   PO426186  13.079  10.319  15.444 -0.0592  0.0091 -0.2768
 2161POPC   GL126187  13.123  10.557  15.721  0.0703  0.0142  0.2674
 2161POPC   GL226188  13.172  10.825  15.809  0.2304  0.0979  0.1245
 2161POPC   C1A26189  13.275  10.547  16.195  0.1753 -0.0690  0.0184
 2161POPC   D2A26190  13.382  10.823  16.547  0.2285 -0.1489  0.1447
 2161POPC   C3A26191  13.705  10.765  16.849 -0.1501  0.0141 -0.0491
 2161POPC   C4A26192  13.972  10.831  17.182 -0.0435  0.0396  0.2404
 2161POPC   C1B26193  13.576  10.901  16.066 -0.1611  0.1551 -0.1189
 2161POPC   C2B26194  13.976  10.849  16.318 -0.1252  0.0866  0.0396
 2161POPC   C3B26195  14.165  10.694  16.739 -0.1191 -0.1086  0.1723
 2161POPC   C4B26196  14.622  10.606  16.857 -0.0907  0.0481  0.2078
 2162POPC   NC326197   9.776  25.969  15.138  0.0353 -0.0563 -0.0290
 2162POPC   PO426198   9.611  26.263  15.330  0.1478 -0.0254 -0.0027
 2162POPC   GL126199   9.484  26.549  15.547 -0.2261  0.0059  0.3367
 2162POPC   GL226200   9.655  26.576  15.753 -0.2420  0.0683 -0.1456
 2162POPC   C1A26201   9.231  26.644  15.907 -0.2769 -0.0733 -0.2195
 2162POPC   D2A26202   9.186  26.472  16.351  0.1360 -0.1148  0.0076
 2162POPC   C3A26203   8.835  26.317  16.598 -0.3718 -0.0009 -0.1614
 2162POPC   C4A26204   8.501  26.386  16.882  0.2406 -0.2617 -0.2185
 2162POPC   C1B26205   9.658  26.382  16.171 -0.3168  0.1576 -0.1757
 2162POPC   C2B26206   9.536  26.168  16.577 -0.1018 -0.5270 -0.0412
 2162POPC   C3B26207   9.226  26.028  16.878  0.1184  0.0559 -0.1298
 2162POPC   C4B26208   8.802  26.082  17.039 -0.0217 -0.2098 -0.1028
 2163POPC   NC326209  30.398   0.874  15.525 -0.0271 -0.0340 -0.0710
 2163POPC   PO426210  30.780   0.972  15.656 -0.2313  0.2457 -0.1495
 2163POPC   GL126211  30.955   0.802  15.910 -0.1975 -0.2847  0.0488
 2163POPC   GL226212  31.012   0.511  15.889 -0.1866  0.0759 -0.0258
 2163POPC   C1A26213  30.987   0.706  16.390  0.1538 -0.1646  0.0994
 2163POPC   D2A26214  30.928   0.623  16.858  0.0727  0.3254 -0.2317
 2163POPC   C3A26215  31.273   0.829  17.142  0.0033  0.0055 -0.1373
 2163POPC   C4A26216  31.537   1.116  17.317  0.2220 -0.2336  0.1903
 2163POPC   C1B26217  31.046   0.223  16.224 -0.1847  0.0144  0.0706
 2163POPC   C2B26218  30.730   0.313  16.482 -0.1399  0.0469 -0.0380
 2163POPC   C3B26219  30.529   0.375  16.904 -0.1417 -0.0209  0.0540
 2163POPC   C4B26220  30.401   0.250  17.341  0.2682 -0.0727 -0.1835
 2164POPC   NC326221  26.662  20.475  15.082  0.1956  0.2311 -0.0991
 2164POPC   PO426222  27.006  20.349  14.977  0.2481 -0.1324  0.0574
 2164POPC   GL126223  27.033  20.152  15.344  0.3405  0.4594  0.1339
 2164POPC   GL226224  27.188  19.927  15.237 -0.0182 -0.4197 -0.0087
 2164POPC   C1A26225  27.267  20.084  15.706  0.0091  0.0488 -0.1872
 2164POPC   D2A26226  27.261  19.901  16.154 -0.1871  0.0441 -0.1698
 2164POPC   C3A26227  27.257  20.136  16.551  0.2740  0.0767 -0.0789
 2164POPC   C4A26228  27.149  20.066  16.980 -0.2029 -0.0388  0.1210
 2164POPC   C1B26229  27.617  20.123  15.378  0.3918 -0.0060 -0.0332
 2164POPC   C2B26230  27.992  20.392  15.337 -0.1343  0.2589  0.0733
 2164POPC   C3B26231  28.281  20.705  15.485 -0.0592 -0.2433 -0.2666
 2164POPC   C4B26232  28.472  20.699  15.941 -0.0020 -0.3276 -0.3329
 2165POPC   NC326233   2.749   5.722  15.691 -0.2312  0.1958  0.2844
 2165POPC   PO426234   2.567   6.029  15.509 -0.1317  0.0117 -0.1796
 2165POPC   GL126235   2.420   6.060  15.923  0.0780 -0.3720 -0.0318
 2165POPC   GL226236   2.169   6.101  16.040 -0.3561 -0.0734  0.1310
 2165POPC   C1A26237   2.661   6.013  16.360  0.4033  0.0993  0.1134
 2165POPC   D2A26238   2.566   5.863  16.802  0.0267 -0.1769 -0.0882
 2165POPC   C3A26239   2.584   5.799  17.281 -0.0557 -0.0246  0.0764
 2165POPC   C4A26240   2.377   5.831  17.698 -0.2561 -0.1218  0.0351
 2165POPC   C1B26241   2.170   6.149  16.527  0.1410  0.0744 -0.2740
 2165POPC   C2B26242   2.077   6.287  16.984  0.3153  0.1987  0.1937
 2165POPC   C3B26243   2.245   6.292  17.434 -0.2933 -0.1358 -0.5402
 2165POPC   C4B26244   2.498   6.643  17.618  0.0523  0.1173  0.3505
 2166POPC   NC326245  13.720  19.628  14.992 -0.0030 -0.3128  0.0490
 2166POPC   PO426246  14.018  19.522  15.175  0.0500 -0.1153  0.0138
 2166POPC   GL126247  13.837  19.247  15.374  0.2778 -0.1445 -0.0089
 2166POPC   GL226248  13.785  18.981  15.464  0.2786 -0.0593 -0.0792
 2166POPC   C1A26249  14.106  19.054  15.757  0.2186  0.0681  0.1048
 2166POPC   D2A26250  14.161  19.037  16.196 -0.0189  0.2351 -0.0844
 2166POPC   C3A26251  13.913  18.799  16.507 -0.0364  0.0797  0.2783
 2166POPC   C4A26252  13.696  18.449  16.698 -0.0524 -0.0105  0.2488
 2166POPC   C1B26253  13.495  18.921  15.817 -0.0657  0.4541  0.2053
 2166POPC   C2B26254  13.029  18.889  15.827  0.3133  0.1350  0.2695
 2166POPC   C3B26255  12.586  18.801  15.776  0.1485 -0.2795 -0.0041
 2166POPC   C4B26256  12.186  18.569  15.683 -0.2713 -0.0787 -0.0556
 2167POPC   NC326257  25.067   0.819  15.274  0.1054  0.2584  0.0185
 2167POPC   PO426258  25.214   1.173  15.449 -0.0415 -0.1441  0.1355
 2167POPC   GL126259  25.090   1.047  15.702  0.2019 -0.1164  0.1853
 2167POPC   GL226260  25.079   0.756  15.790 -0.0793  0.0583  0.0032
 2167POPC   C1A26261  25.408   1.009  16.060 -0.3273  0.0028 -0.2985
 2167POPC   D2A26262  25.537   0.917  16.543 -0.0782 -0.2646 -0.2356
 2167POPC   C3A26263  25.405   0.627  16.845  0.1225  0.1309  0.1419
 2167POPC   C4A26264  25.241   0.247  17.080 -0.1702  0.3035 -0.1031
 2167POPC   C1B26265  24.809   0.634  16.162 -0.3624  0.1884  0.0086
 2167POPC   C2B26266  24.473   0.328  16.140 -0.0810 -0.0103  0.2098
 2167POPC   C3B26267  24.178   0.170  16.395 -0.0454 -0.1326  0.1127
 2167POPC   C4B26268  24.006  -0.008  16.815 -0.3281 -0.0120  0.0396
 2168POPC   NC326269  21.639  29.291  15.390 -0.1103  0.4431  0.2114
 2168POPC   PO426270  21.952  29.472  15.508 -0.1235  0.0673  0.0922
 2168POPC   GL126271  21.936  29.566  15.863 -0.0071 -0.6741 -0.0770
 2168POPC   GL226272  21.787  29.850  15.827 -0.0568 -0.1487 -0.1394
 2168POPC   C1A26273  22.087  29.684  16.295  0.2613 -0.0315  0.1478
 2168POPC   D2A26274  21.883  29.733  16.697  0.1221  0.0802 -0.2194
 2168POPC   C3A26275  21.954  29.765  17.161  0.3591 -0.0204  0.0398
 2168POPC   C4A26276  21.867  30.018  17.570 -0.1880 -0.0464  0.1034
 2168POPC   C1B26277  21.672  29.963  16.243  0.0299 -0.0198 -0.0108
 2168POPC   C2B26278  21.645  30.133  16.686  0.3300  0.0098 -0.1305
 2168POPC   C3B26279  21.637  30.188  17.186 -0.1452  0.0985 -0.1073
 2168POPC   C4B26280  21.287  30.210  17.493 -0.0576  0.0897  0.0416
 2169POPC   NC326281  18.104   2.660  15.250 -0.1374 -0.1862 -0.2869
 2169POPC   PO426282  18.191   3.025  15.473  0.4815 -0.1753  0.2177
 2169POPC   GL126283  18.045   2.814  15.761 -0.2073 -0.4765 -0.3976
 2169POPC   GL226284  18.084   3.019  15.968  0.0421 -0.1709  0.1687
 2169POPC   C1A26285  17.813   2.499  16.025  0.0880 -0.1212  0.0093
 2169POPC   D2A26286  17.433   2.561  16.274  0.1583  0.0808  0.3547
 2169POPC   C3A26287  17.172   2.359  16.628  0.1229 -0.0565 -0.1070
 2169POPC   C4A26288  16.931   2.034  16.845 -0.1146  0.0181 -0.0056
 2169POPC   C1B26289  18.230   2.943  16.394  0.0126  0.1970  0.0898
 2169POPC   C2B26290  18.050   2.943  16.827  0.1102 -0.1515  0.2966
 2169POPC   C3B26291  17.843   2.783  17.174  0.2561 -0.1566  0.1610
 2169POPC   C4B26292  17.468   2.598  17.331 -0.1375 -0.0240 -0.0510
 2170POPC   NC326293  31.150  16.837  14.941  0.2735 -0.0819 -0.1091
 2170POPC   PO426294  30.919  16.837  15.264 -0.2055 -0.1597 -0.1194
 2170POPC   GL126295  30.739  16.766  15.673 -0.0596 -0.2795  0.0032
 2170POPC   GL226296  30.597  17.089  15.724  0.2095  0.2175  0.2379
 2170POPC   C1A26297  30.440  16.596  15.972 -0.0648  0.0092  0.2946
 2170POPC   D2A26298  30.197  16.530  16.318 -0.2337 -0.0063  0.0433
 2170POPC   C3A26299  29.754  16.642  16.251 -0.2460 -0.3196  0.0797
 2170POPC   C4A26300  29.476  16.731  16.631  0.3232  0.2089 -0.1182
 2170POPC   C1B26301  30.630  17.005  16.217  0.0659 -0.0557  0.2088
 2170POPC   C2B26302  30.637  17.011  16.679 -0.0099 -0.0998  0.0374
 2170POPC   C3B26303  30.688  17.349  17.007  0.1510  0.4191  0.0030
 2170POPC   C4B26304  30.960  17.348  17.336  0.0348 -0.1795 -0.1295
 2171POPC   NC326305  15.794  26.640  15.544  0.3514  0.0050  0.3503
 2171POPC   PO426306  15.606  26.486  15.288  0.4779  0.1465 -0.1730
 2171POPC   GL126307  15.565  26.243  15.557  0.1244 -0.1493 -0.3120
 2171POPC   GL226308  15.316  26.449  15.739 -0.0581  0.1361  0.0295
 2171POPC   C1A26309  15.313  26.021  15.909 -0.2763 -0.2019  0.0286
 2171POPC   D2A26310  15.332  25.938  16.385  0.1049 -0.1399  0.3523
 2171POPC   C3A26311  15.358  25.611  16.623 -0.1026 -0.0250 -0.2575
 2171POPC   C4A26312  15.259  25.340  16.971  0.1025 -0.1370  0.3318
 2171POPC   C1B26313  15.287  26.515  16.204 -0.0339  0.1358 -0.2646
 2171POPC   C2B26314  15.190  26.498  16.644  0.0513  0.1068  0.1192
 2171POPC   C3B26315  15.185  26.557  17.082  0.0104 -0.2870  0.1373
 2171POPC   C4B26316  15.097  26.958  17.358 -0.2312  0.0133  0.2088
 2172POPC   NC326317   2.753  23.654  15.155 -0.2437  0.2142 -0.1849
 2172POPC   PO426318   2.479  23.830  15.350 -0.0363  0.1042 -0.0958
 2172POPC   GL126319   2.502  23.800  15.678 -0.2425  0.0988  0.4078
 2172POPC   GL226320   2.191  23.957  15.711  0.1129 -0.2100  0.0308
 2172POPC   C1A26321   2.744  23.924  16.090 -0.1513 -0.0031  0.1385
 2172POPC   D2A26322   2.823  23.787  16.490 -0.0840  0.0156 -0.1329
 2172POPC   C3A26323   2.916  24.140  16.790 -0.1302  0.1127  0.1537
 2172POPC   C4A26324   2.912  24.407  17.119 -0.0882  0.0807  0.1313
 2172POPC   C1B26325   2.217  23.689  16.070 -0.3119  0.1213  0.2201
 2172POPC   C2B26326   2.312  23.555  16.549 -0.0771 -0.0386  0.0554
 2172POPC   C3B26327   2.477  23.854  16.893  0.0085 -0.1498 -0.1242
 2172POPC   C4B26328   2.723  23.826  17.274  0.0255  0.3131 -0.0288
 2173POPC   NC326329  12.311  25.070  15.096  0.0987  0.0715  0.0961
 2173POPC   PO426330  12.341  25.450  15.108  0.0246  0.1230  0.5407
 2173POPC   GL126331  12.301  25.520  15.486  0.0380 -0.0138  0.0376
 2173POPC   GL226332  12.356  25.249  15.652 -0.1287 -0.3388  0.1655
 2173POPC   C1A26333  12.312  25.827  15.879 -0.2554 -0.0954  0.2120
 2173POPC   D2A26334  12.144  25.859  16.293  0.0094  0.0293 -0.2473
 2173POPC   C3A26335  12.322  25.627  16.670  0.2841  0.0436 -0.3265
 2173POPC   C4A26336  12.167  25.319  17.018  0.0763  0.0123  0.0818
 2173POPC   C1B26337  12.558  25.434  16.006  0.0764  0.1420 -0.0520
 2173POPC   C2B26338  12.668  25.388  16.431 -0.0826  0.0967  0.0494
 2173POPC   C3B26339  13.075  25.426  16.639  0.2803  0.3409 -0.1546
 2173POPC   C4B26340  13.286  25.770  16.841 -0.0582  0.0690  0.1019
 2174POPC   NC326341   4.828  24.326  15.299 -0.1112 -0.0273 -0.3272
 2174POPC   PO426342   4.620  24.604  15.332  0.2005  0.0842 -0.2562
 2174POPC   GL126343   4.783  24.449  15.724 -0.0942  0.0036  0.1214
 2174POPC   GL226344   4.777  24.091  15.759 -0.5284  0.2170  0.0868
 2174POPC   C1A26345   4.707  24.492  16.162  0.3234 -0.0892 -0.3036
 2174POPC   D2A26346   4.813  24.547  16.613  0.0037 -0.1054 -0.0097
 2174POPC   C3A26347   5.188  24.521  16.832  0.1931  0.0526 -0.1761
 2174POPC   C4A26348   5.498  24.422  17.193  0.3832  0.0558 -0.2222
 2174POPC   C1B26349   4.836  23.965  16.212  0.2997 -0.0008  0.0920
 2174POPC   C2B26350   4.941  24.065  16.673  0.2084 -0.3388  0.2544
 2174POPC   C3B26351   4.572  24.208  16.873 -0.0001 -0.2427 -0.0216
 2174POPC   C4B26352   4.466  24.632  17.034 -0.1939  0.0557 -0.0684
 2175POPC   NC326353  26.536  24.317  15.281 -0.2352  0.2842  0.1156
 2175POPC   PO426354  26.530  23.966  15.440  0.3635 -0.1255 -0.0488
 2175POPC   GL126355  26.501  23.630  15.754  0.3169  0.0677 -0.2122
 2175POPC   GL226356  26.625  23.897  15.943  0.2129 -0.0320  0.1536
 2175POPC   C1A26357  26.283  23.458  16.117  0.0301  0.4240 -0.1429
 2175POPC   D2A26358  26.382  23.430  16.610 -0.0499  0.1236  0.4670
 2175POPC   C3A26359  26.594  23.654  17.060 -0.1534 -0.2655 -0.0824
 2175POPC   C4A26360  26.543  23.913  17.467 -0.1272 -0.1992  0.2664
 2175POPC   C1B26361  26.244  24.107  16.097  0.1091  0.0169  0.3259
 2175POPC   C2B26362  26.093  24.156  16.588  0.1665 -0.1078  0.2350
 2175POPC   C3B26363  25.864  24.276  16.952  0.0875  0.1596  0.2744
 2175POPC   C4B26364  25.420  24.231  17.153 -0.1361 -0.0868  0.0112
 2176POPC   NC326365  22.602  17.714  15.804  0.1754  0.1949  0.0904
 2176POPC   PO426366  22.904  17.579  15.607  0.1243  0.2035  0.2616
 2176POPC   GL126367  22.973  17.479  16.034  0.1740  0.3455  0.2879
 2176POPC   GL226368  23.191  17.535  16.256  0.1921 -0.0623  0.2139
 2176POPC   C1A26369  22.766  17.411  16.459  0.2561  0.4597  0.0807
 2176POPC   D2A26370  22.397  17.183  16.781 -0.1839  0.1345 -0.1540
 2176POPC   C3A26371  22.389  17.098  17.289 -0.2586  0.0806 -0.4045
 2176POPC   C4A26372  22.527  17.332  17.689 -0.4715  0.3317 -0.3032
 2176POPC   C1B26373  23.323  17.416  16.668 -0.1249  0.2486 -0.0108
 2176POPC   C2B26374  23.269  17.434  17.113  0.0737 -0.1100 -0.5230
 2176POPC   C3B26375  23.245  17.236  17.539  0.0470 -0.0990 -0.3287
 2176POPC   C4B26376  23.056  17.473  17.945  0.2054  0.0742 -0.0457
 2177POPC   NC326377  25.738  14.237  14.761 -0.3119  0.1822 -0.1974
 2177POPC   PO426378  25.852  14.525  14.996 -0.2065 -0.1372  0.0311
 2177POPC   GL126379  25.924  14.831  15.196 -0.1677  0.0077  0.2827
 2177POPC   GL226380  25.844  15.101  15.241 -0.0658  0.0869 -0.1558
 2177POPC   C1A26381  25.998  14.815  15.639  0.2714 -0.0205  0.1932
 2177POPC   D2A26382  26.198  14.744  16.053  0.1568 -0.1077  0.0204
 2177POPC   C3A26383  26.311  15.132  16.307 -0.0449 -0.2041  0.1278
 2177POPC   C4A26384  26.441  15.223  16.781 -0.1400 -0.1588 -0.0194
 2177POPC   C1B26385  25.742  15.336  15.650  0.4669 -0.0322 -0.0015
 2177POPC   C2B26386  25.510  15.421  15.987 -0.0476  0.0288  0.0470
 2177POPC   C3B26387  25.605  15.362  16.423  0.0400  0.1577  0.2104
 2177POPC   C4B26388  25.896  15.290  16.775  0.0077  0.0607 -0.2125
 2178POPC   NC326389   5.549   1.839  15.059  0.0361  0.0298 -0.0152
 2178POPC   PO426390   5.749   1.523  15.044 -0.0037  0.2078  0.0060
 2178POPC   GL126391   5.811   1.599  15.391 -0.1157 -0.1036  0.0245
 2178POPC   GL226392   6.080   1.440  15.472 -0.1076 -0.1113  0.2506
 2178POPC   C1A26393   5.840   1.803  15.798 -0.0073 -0.0506  0.1032
 2178POPC   D2A26394   5.574   1.874  16.179  0.0421  0.1428 -0.0878
 2178POPC   C3A26395   5.630   1.737  16.611 -0.1500  0.0731 -0.0826
 2178POPC   C4A26396   5.710   1.720  17.096  0.1308  0.0869  0.5299
 2178POPC   C1B26397   5.901   1.302  15.874  0.0923  0.0830 -0.0486
 2178POPC   C2B26398   5.607   1.348  16.237  0.1045  0.1617  0.0527
 2178POPC   C3B26399   5.303   1.238  16.558  0.0004  0.0724  0.1039
 2178POPC   C4B26400   5.072   0.871  16.830 -0.4204  0.2354 -0.1047
 2179POPC   NC326401  18.614  10.703  15.698 -0.0192  0.1878 -0.1513
 2179POPC   PO426402  18.293  10.535  15.534  0.2803  0.2327 -0.0372
 2179POPC   GL126403  18.341  10.333  15.845  0.1348 -0.0350 -0.3309
 2179POPC   GL226404  18.011  10.265  15.859 -0.1034  0.2398  0.1346
 2179POPC   C1A26405  18.279  10.633  16.218 -0.2433  0.1360  0.0050
 2179POPC   D2A26406  18.140  10.683  16.579 -0.1998 -0.3088 -0.1369
 2179POPC   C3A26407  17.991  10.270  16.588 -0.0696 -0.2339 -0.2265
 2179POPC   C4A26408  17.616  10.119  16.330  0.2286 -0.0575  0.0723
 2179POPC   C1B26409  17.824  10.588  16.100  0.5158 -0.0315  0.0229
 2179POPC   C2B26410  17.635  10.629  16.549 -0.0007 -0.1041  0.3017
 2179POPC   C3B26411  17.477  10.775  16.995 -0.3065 -0.1028  0.1776
 2179POPC   C4B26412  17.688  11.074  17.274  0.0575  0.0097  0.2314
 2180POPC   NC326413   9.578  11.658  15.217 -0.0859 -0.0552 -0.2055
 2180POPC   PO426414   9.254  11.719  14.949 -0.2985  0.2834 -0.1171
 2180POPC   GL126415   9.151  11.602  15.364 -0.0704 -0.0648 -0.0835
 2180POPC   GL226416   9.042  11.820  15.392  0.2214 -0.3721 -0.0971
 2180POPC   C1A26417   9.480  11.797  15.680  0.2424  0.3023 -0.2177
 2180POPC   D2A26418   9.500  12.176  15.940 -0.1146  0.1008 -0.0490
 2180POPC   C3A26419   9.456  12.201  16.403  0.2406  0.0373 -0.2532
 2180POPC   C4A26420   9.291  12.440  16.806 -0.2227  0.1234  0.1032
 2180POPC   C1B26421   8.656  11.676  15.672 -0.0374  0.0536  0.0916
 2180POPC   C2B26422   8.259  11.751  15.960 -0.5372  0.5200  0.0257
 2180POPC   C3B26423   7.848  11.600  16.181 -0.0974  0.1213 -0.2364
 2180POPC   C4B26424   7.551  11.301  16.377 -0.1838  0.3194  0.0786
 2181POPC   NC326425  25.316   4.075  14.713 -0.2902  0.1887 -0.1068
 2181POPC   PO426426  25.591   4.115  15.030 -0.0003 -0.1050 -0.1499
 2181POPC   GL126427  25.514   4.331  15.375 -0.1520  0.4649  0.2703
 2181POPC   GL226428  25.690   4.309  15.614 -0.3766  0.1041  0.2063
 2181POPC   C1A26429  25.149   4.270  15.681 -0.3298 -0.2186 -0.0113
 2181POPC   D2A26430  24.751   4.098  15.607 -0.0493 -0.2759  0.2423
 2181POPC   C3A26431  24.473   4.350  15.865  0.4960 -0.0210  0.1422
 2181POPC   C4A26432  24.513   4.599  16.285  0.0208  0.2421 -0.0734
 2181POPC   C1B26433  25.719   4.375  16.039  0.0905  0.1852 -0.2567
 2181POPC   C2B26434  25.517   4.537  16.428 -0.1713  0.1993  0.0776
 2181POPC   C3B26435  25.172   4.779  16.653  0.3307 -0.2594  0.2482
 2181POPC   C4B26436  25.109   5.021  17.099 -0.2611 -0.2535  0.0208
 2182POPC   NC326437  16.361   7.167  15.438 -0.0551  0.0302 -0.0837
 2182POPC   PO426438  15.950   7.129  15.356 -0.2195  0.1280  0.1293
 2182POPC   GL126439  16.014   7.034  15.706  0.0546 -0.3317  0.5203
 2182POPC   GL226440  16.065   6.737  15.684 -0.0525  0.1337 -0.0589
 2182POPC   C1A26441  16.312   7.043  16.065 -0.1569  0.0899 -0.1662
 2182POPC   D2A26442  16.608   6.940  16.352 -0.1211  0.1313 -0.2604
 2182POPC   C3A26443  16.497   6.717  16.744  0.0012 -0.1046  0.2491
 2182POPC   C4A26444  16.392   6.636  17.184 -0.2479 -0.0934 -0.2565
 2182POPC   C1B26445  16.344   6.559  15.984  0.2387  0.2250 -0.1504
 2182POPC   C2B26446  16.668   6.454  16.387  0.0852 -0.0233 -0.2725
 2182POPC   C3B26447  16.925   6.364  16.706 -0.1054 -0.0524 -0.1124
 2182POPC   C4B26448  17.094   6.075  17.057  0.2682 -0.0944 -0.0161
 2183POPC   NC326449  22.060  17.493  15.088  0.0563 -0.0812  0.1360
 2183POPC   PO426450  21.991  17.797  15.338  0.3193 -0.2331  0.0042
 2183POPC   GL126451  22.031  17.428  15.526  0.0481  0.1198  0.3843
 2183POPC   GL226452  22.267  17.342  15.696 -0.1106 -0.3362 -0.0571
 2183POPC   C1A26453  21.811  17.350  15.925 -0.2894  0.0566 -0.1537
 2183POPC   D2A26454  21.438  17.275  16.261  0.0687 -0.1053  0.0440
 2183POPC   C3A26455  21.065  17.165  16.592  0.2518  0.0077 -0.0394
 2183POPC   C4A26456  20.931  17.481  16.898 -0.0457 -0.0766  0.0482
 2183POPC   C1B26457  22.288  17.339  16.194  0.3394 -0.1524  0.2178
 2183POPC   C2B26458  21.942  17.326  16.441  0.1740 -0.0239  0.1122
 2183POPC   C3B26459  21.706  17.181  16.812  0.1802  0.3740  0.5830
 2183POPC   C4B26460  21.291  17.126  17.012  0.0462 -0.0829 -0.2008
 2184POPC   NC326461  10.864  22.314  15.019 -0.1733  0.1813 -0.3697
 2184POPC   PO426462  10.911  21.934  14.974  0.2007 -0.1006 -0.3271
 2184POPC   GL126463  11.142  22.008  15.356  0.0491  0.0191 -0.0546
 2184POPC   GL226464  11.105  22.260  15.555 -0.1224 -0.2154  0.2521
 2184POPC   C1A26465  11.252  21.852  15.781 -0.0465  0.4173 -0.0809
 2184POPC   D2A26466  11.230  21.879  16.198 -0.0813  0.1519  0.0459
 2184POPC   C3A26467  11.357  21.894  16.690 -0.2178  0.1121 -0.0324
 2184POPC   C4A26468  11.363  21.826  17.164 -0.0454  0.0107 -0.0330
 2184POPC   C1B26469  11.384  22.281  15.930 -0.2835  0.0848 -0.0695
 2184POPC   C2B26470  11.627  22.190  16.287  0.0125  0.0350 -0.0419
 2184POPC   C3B26471  11.884  22.277  16.714 -0.0074  0.2851  0.0034
 2184POPC   C4B26472  12.262  22.271  16.941  0.0117  0.0877 -0.0085
 2185POPC   NC326473   9.539  22.108  15.250 -0.1478  0.1667 -0.0261
 2185POPC   PO426474   9.766  22.483  15.203 -0.0252  0.3498  0.0329
 2185POPC   GL126475   9.775  22.320  15.609 -0.0986  0.2483  0.0789
 2185POPC   GL226476   9.539  22.389  15.634 -0.0644 -0.2720 -0.0321
 2185POPC   C1A26477  10.050  22.181  15.968  0.1664  0.0012  0.1432
 2185POPC   D2A26478  10.442  22.169  16.183 -0.2369  0.1341 -0.0945
 2185POPC   C3A26479  10.483  22.057  16.641  0.0490  0.3435 -0.0616
 2185POPC   C4A26480  10.703  22.043  17.026 -0.1037 -0.4676  0.1310
 2185POPC   C1B26481   9.657  22.599  16.052  0.2891  0.3148  0.2202
 2185POPC   C2B26482   9.762  22.837  16.375 -0.1875 -0.0578  0.0204
 2185POPC   C3B26483   9.989  23.151  16.643 -0.0517  0.0682  0.0084
 2185POPC   C4B26484  10.229  23.190  17.015 -0.2537  0.0528 -0.0089
 2186POPC   NC326485  22.838  27.361  15.802 -0.1076 -0.0357  0.1931
 2186POPC   PO426486  22.580  27.213  15.522 -0.1091 -0.0722  0.0581
 2186POPC   GL126487  22.423  26.995  15.805  0.1826  0.1301  0.2289
 2186POPC   GL226488  22.157  27.116  15.898  0.2722 -0.0138 -0.1083
 2186POPC   C1A26489  22.484  26.986  16.248  0.0661  0.0892 -0.1335
 2186POPC   D2A26490  22.535  27.230  16.651  0.1489  0.1709  0.1480
 2186POPC   C3A26491  22.141  27.175  16.835  0.2133 -0.1139 -0.1504
 2186POPC   C4A26492  21.955  26.763  16.927 -0.0414  0.1031  0.1986
 2186POPC   C1B26493  22.048  27.197  16.327  0.0807  0.2029 -0.0666
 2186POPC   C2B26494  21.732  27.090  16.593  0.2730  0.2378 -0.0090
 2186POPC   C3B26495  21.581  27.143  17.049 -0.4529  0.2524  0.1320
 2186POPC   C4B26496  21.623  27.009  17.476 -0.1943  0.1356  0.1081
 2187POPC   NC326497  25.076  12.455  15.191 -0.0107  0.1681  0.0909
 2187POPC   PO426498  25.278  12.791  15.243 -0.0419 -0.1185 -0.0973
 2187POPC   GL126499  25.334  12.611  15.547 -0.0809  0.1329  0.2270
 2187POPC   GL226500  25.383  12.898  15.695  0.1086 -0.0058 -0.0930
 2187POPC   C1A26501  25.605  12.325  15.760  0.0431  0.0086  0.0625
 2187POPC   D2A26502  25.816  11.919  15.822 -0.0945  0.1132 -0.1181
 2187POPC   C3A26503  25.992  11.820  16.246  0.0730 -0.1429 -0.0284
 2187POPC   C4A26504  26.132  11.836  16.651 -0.0041 -0.1485 -0.0307
 2187POPC   C1B26505  25.430  12.764  16.114 -0.0912 -0.0393 -0.0037
 2187POPC   C2B26506  25.587  12.543  16.512 -0.0241 -0.1040  0.1357
 2187POPC   C3B26507  25.462  12.180  16.700  0.1938 -0.0735 -0.1447
 2187POPC   C4B26508  25.658  11.762  16.909 -0.1416  0.5781 -0.0687
 2188POPC   NC326509  17.643  14.708  15.508  0.0350 -0.1072 -0.1364
 2188POPC   PO426510  17.926  14.881  15.283  0.2498  0.1035 -0.3217
 2188POPC   GL126511  18.099  14.744  15.684 -0.2841  0.1846  0.1357
 2188POPC   GL226512  18.105  14.451  15.616  0.0447  0.1579  0.1090
 2188POPC   C1A26513  18.290  14.761  16.107  0.1853 -0.0412 -0.1393
 2188POPC   D2A26514  18.266  14.872  16.568 -0.0222  0.0228  0.2526
 2188POPC   C3A26515  18.617  15.039  16.738 -0.1650  0.1007  0.1035
 2188POPC   C4A26516  19.056  14.935  16.968  0.1500 -0.1385 -0.1271
 2188POPC   C1B26517  18.375  14.279  15.907  0.0101  0.0276 -0.0206
 2188POPC   C2B26518  18.527  14.409  16.311 -0.1821 -0.1292 -0.3063
 2188POPC   C3B26519  18.728  14.566  16.675 -0.0610 -0.1274 -0.0242
 2188POPC   C4B26520  18.705  14.602  17.160 -0.5665 -0.0464 -0.1904
 2189POPC   NC326521   1.304  22.977  14.787 -0.0256 -0.2430 -0.0840
 2189POPC   PO426522   1.126  23.314  14.611 -0.0882 -0.0475  0.1759
 2189POPC   GL126523   1.058  23.469  14.958  0.0806  0.0660 -0.0617
 2189POPC   GL226524   1.184  23.254  15.170  0.1355 -0.0647 -0.2130
 2189POPC   C1A26525   0.684  23.403  15.213 -0.2366 -0.1188  0.0095
 2189POPC   D2A26526   0.393  23.111  15.442 -0.0519  0.0634  0.2258
 2189POPC   C3A26527   0.433  23.091  15.895 -0.1124 -0.0981 -0.2358
 2189POPC   C4A26528   0.636  23.021  16.337  0.0105 -0.0046  0.2512
 2189POPC   C1B26529   0.945  23.052  15.542  0.2358  0.2617  0.0637
 2189POPC   C2B26530   1.038  23.044  15.962  0.2253  0.1719  0.2147
 2189POPC   C3B26531   1.304  23.221  16.297  0.1592 -0.0441  0.0026
 2189POPC   C4B26532   1.270  23.600  16.566  0.0053 -0.0789 -0.2890
 2190POPC   NC326533  21.240   9.587  15.393 -0.0359 -0.0505 -0.1511
 2190POPC   PO426534  20.880   9.654  15.365  0.0820 -0.1198  0.0512
 2190POPC   GL126535  21.017   9.727  15.751  0.1137  0.2928  0.3326
 2190POPC   GL226536  20.906   9.579  15.915  0.5201 -0.1943 -0.0997
 2190POPC   C1A26537  21.149   9.973  16.136  0.0403  0.0645  0.2558
 2190POPC   D2A26538  21.015  10.007  16.590 -0.1606  0.1248  0.1450
 2190POPC   C3A26539  21.067   9.766  17.010  0.2091  0.2144 -0.1228
 2190POPC   C4A26540  21.403   9.523  17.260 -0.1390 -0.1862 -0.1531
 2190POPC   C1B26541  21.086   9.193  16.155 -0.1824 -0.3306 -0.0288
 2190POPC   C2B26542  20.894   8.974  16.489  0.1724 -0.1909  0.0161
 2190POPC   C3B26543  20.853   8.730  16.874 -0.2878 -0.0210 -0.1505
 2190POPC   C4B26544  20.522   8.765  17.187  0.0125 -0.0099  0.0372
 2191POPC   NC326545   2.613   2.950  14.815 -0.0787 -0.0693 -0.1037
 2191POPC   PO426546   2.398   3.258  14.958 -0.1596 -0.1541 -0.4404
 2191POPC   GL126547   2.308   3.025  15.269  0.2051  0.1144 -0.0338
 2191POPC   GL226548   2.609   2.928  15.380  0.0138  0.1134 -0.1704
 2191POPC   C1A26549   2.249   2.724  15.621  0.1437  0.3705 -0.0844
 2191POPC   D2A26550   2.332   2.436  15.984 -0.1958 -0.1149 -0.0737
 2191POPC   C3A26551   2.020   2.538  16.345 -0.0294 -0.1301 -0.2506
 2191POPC   C4A26552   1.640   2.780  16.484  0.0375  0.1001  0.1142
 2191POPC   C1B26553   2.537   3.135  15.794 -0.1612 -0.1522  0.2303
 2191POPC   C2B26554   2.408   3.161  16.207 -0.0723 -0.3165 -0.0145
 2191POPC   C3B26555   2.148   2.996  16.544  0.1267 -0.1817  0.0740
 2191POPC   C4B26556   1.898   2.783  16.899  0.0403 -0.2768 -0.1207
 2192POPC   NC326557  17.316  25.592  15.099 -0.0628 -0.1670 -0.2336
 2192POPC   PO426558  17.384  25.563  15.523  0.1560 -0.0739  0.0287
 2192POPC   GL126559  17.744  25.351  15.618  0.0673 -0.4478 -0.0729
 2192POPC   GL226560  17.826  25.517  15.787  0.2230  0.0370 -0.3109
 2192POPC   C1A26561  17.720  25.059  16.016  0.2051 -0.3343  0.0708
 2192POPC   D2A26562  17.709  24.818  16.450  0.0735 -0.1971 -0.0561
 2192POPC   C3A26563  18.011  24.693  16.770  0.1408 -0.1480 -0.0509
 2192POPC   C4A26564  18.244  24.773  17.195  0.1022  0.0680 -0.0461
 2192POPC   C1B26565  17.653  25.514  16.231  0.0407  0.2015 -0.1246
 2192POPC   C2B26566  17.655  25.414  16.631 -0.1405 -0.0816 -0.1911
 2192POPC   C3B26567  17.543  25.439  17.079 -0.0198 -0.0536 -0.0853
 2192POPC   C4B26568  17.530  25.125  17.430 -0.1553  0.0194  0.3182
 2193POPC   NC326569   4.416   5.673  15.391 -0.0766 -0.0682 -0.1144
 2193POPC   PO426570   4.568   5.350  15.488 -0.1550  0.0138  0.0372
 2193POPC   GL126571   4.883   5.403  15.667  0.0187  0.3503  0.0502
 2193POPC   GL226572   5.079   5.203  15.474 -0.1827 -0.2367 -0.0098
 2193POPC   C1A26573   5.007   5.579  16.092 -0.3085 -0.3119  0.1420
 2193POPC   D2A26574   5.019   5.705  16.578 -0.0883  0.1361 -0.0587
 2193POPC   C3A26575   5.144   6.028  16.843  0.2594  0.5033  0.0147
 2193POPC   C4A26576   5.251   6.407  17.120 -0.1053 -0.3328 -0.1850
 2193POPC   C1B26577   5.348   5.290  15.827 -0.1632 -0.1566 -0.2974
 2193POPC   C2B26578   5.407   5.243  16.275  0.1679 -0.2540 -0.1841
 2193POPC   C3B26579   5.265   5.304  16.699 -0.1341 -0.1816  0.0030
 2193POPC   C4B26580   5.361   5.181  17.199  0.1080  0.1320  0.0466
 2194POPC   NC326581  27.395   3.808  14.984  0.1382 -0.0605  0.1199
 2194POPC   PO426582  27.382   3.568  15.268 -0.1414 -0.1839  0.2140
 2194POPC   GL126583  27.704   3.612  15.461  0.4393  0.2492  0.0572
 2194POPC   GL226584  27.912   3.475  15.331 -0.1611  0.1460  0.0266
 2194POPC   C1A26585  27.619   3.837  15.869 -0.0919  0.0379 -0.0613
 2194POPC   D2A26586  27.302   3.972  16.186  0.0749  0.1712 -0.0158
 2194POPC   C3A26587  27.327   3.914  16.613  0.0467 -0.0795 -0.0009
 2194POPC   C4A26588  27.339   3.866  17.063  0.2146  0.0180 -0.1079
 2194POPC   C1B26589  27.970   3.419  15.782  0.1906 -0.2122 -0.1574
 2194POPC   C2B26590  28.181   3.473  16.149  0.2172  0.2145  0.0221
 2194POPC   C3B26591  28.269   3.155  16.496  0.0070 -0.1431  0.2876
 2194POPC   C4B26592  28.044   2.820  16.716 -0.2499  0.0039 -0.0463
 2195POPC   NC326593   7.605   7.160  14.884 -0.0189 -0.0069 -0.0803
 2195POPC   PO426594   7.642   6.892  15.178 -0.0271  0.3896 -0.1465
 2195POPC   GL126595   7.492   7.059  15.600  0.2121  0.0650  0.1474
 2195POPC   GL226596   7.475   6.773  15.720 -0.2145  0.0292 -0.2410
 2195POPC   C1A26597   7.058   7.059  15.865 -0.0302  0.4388 -0.1704
 2195POPC   D2A26598   6.591   7.165  16.039 -0.2870 -0.2442  0.0233
 2195POPC   C3A26599   6.868   7.266  16.419  0.2943 -0.0174  0.0150
 2195POPC   C4A26600   6.801   7.234  16.858 -0.0225 -0.2689  0.4495
 2195POPC   C1B26601   7.532   7.039  16.109  0.0284  0.1644 -0.0325
 2195POPC   C2B26602   7.769   7.216  16.493  0.0505 -0.2088 -0.1255
 2195POPC   C3B26603   7.932   7.124  16.912 -0.1332  0.1321  0.1545
 2195POPC   C4B26604   8.016   7.231  17.371  0.2013  0.1173 -0.1557
 2196POPC   NC326605  12.261  21.509  15.208  0.3342 -0.1524  0.0339
 2196POPC   PO426606  12.187  21.151  15.103  0.1561  0.1408  0.0500
 2196POPC   GL126607  12.300  21.082  15.467 -0.4242  0.1854 -0.0290
 2196POPC   GL226608  12.098  21.215  15.576  0.2248  0.1637 -0.2706
 2196POPC   C1A26609  12.635  20.824  15.700 -0.0475  0.1762  0.1267
 2196POPC   D2A26610  13.002  20.589  15.894 -0.2371  0.3019 -0.0934
 2196POPC   C3A26611  13.015  20.636  16.361  0.1236  0.0307 -0.2545
 2196POPC   C4A26612  13.154  20.410  16.736  0.2737  0.3175 -0.0053
 2196POPC   C1B26613  12.074  21.479  15.987 -0.3867 -0.2294 -0.0267
 2196POPC   C2B26614  12.127  21.347  16.411 -0.1380  0.1110 -0.1305
 2196POPC   C3B26615  12.027  21.159  16.871 -0.3165  0.0547 -0.3068
 2196POPC   C4B26616  12.173  20.919  17.160 -0.2087  0.2495  0.3995
 2197POPC   NC326617   8.350  19.458  15.230  0.3872  0.0434  0.0104
 2197POPC   PO426618   8.133  19.767  15.315  0.0419 -0.2220 -0.3164
 2197POPC   GL126619   8.229  19.782  15.725  0.2286  0.3044 -0.0155
 2197POPC   GL226620   8.253  19.993  15.895 -0.0075 -0.0114  0.0814
 2197POPC   C1A26621   8.451  19.601  16.136 -0.2416  0.0653  0.1119
 2197POPC   D2A26622   8.704  19.810  16.445 -0.0372 -0.0806 -0.0041
 2197POPC   C3A26623   8.493  20.124  16.700 -0.3933  0.3346  0.0131
 2197POPC   C4A26624   8.633  20.457  17.027 -0.0989  0.2615 -0.1997
 2197POPC   C1B26625   8.456  20.198  16.221  0.0098 -0.0889 -0.2845
 2197POPC   C2B26626   8.842  20.437  16.349 -0.0647  0.0480  0.1177
 2197POPC   C3B26627   9.131  20.624  16.667  0.2604 -0.2941  0.0027
 2197POPC   C4B26628   9.200  20.793  17.107 -0.0894 -0.3257 -0.0431
 2198POPC   NC326629  10.107  28.789  14.960  0.1093  0.3075 -0.0006
 2198POPC   PO426630  10.095  28.896  15.331 -0.0353  0.0915 -0.0422
 2198POPC   GL126631  10.023  28.786  15.684  0.2719 -0.0377 -0.0410
 2198POPC   GL226632   9.702  28.773  15.697  0.0792 -0.0731 -0.5109
 2198POPC   C1A26633  10.083  28.973  16.123  0.1294 -0.1295 -0.0031
 2198POPC   D2A26634   9.887  28.982  16.537 -0.0283  0.0085 -0.2668
 2198POPC   C3A26635   9.936  29.347  16.798 -0.1626 -0.2986 -0.2245
 2198POPC   C4A26636  10.350  29.547  16.758  0.1374  0.0891 -0.1076
 2198POPC   C1B26637   9.734  28.624  16.138  0.4176  0.0076 -0.0487
 2198POPC   C2B26638   9.847  28.270  16.406 -0.2955  0.0036  0.4669
 2198POPC   C3B26639   9.679  28.095  16.816  0.0587 -0.0733  0.0415
 2198POPC   C4B26640   9.353  27.999  17.135 -0.0099  0.0044  0.0701
 2199POPC   NC326641  13.121  23.667  15.378 -0.1812 -0.1469  0.1021
 2199POPC   PO426642  13.378  23.339  15.300  0.0006  0.0054  0.0860
 2199POPC   GL126643  13.369  23.195  15.614 -0.0665  0.1079  0.2572
 2199POPC   GL226644  13.703  23.210  15.642  0.3840  0.0624 -0.0766
 2199POPC   C1A26645  13.324  23.283  16.065  0.1066 -0.1176 -0.0943
 2199POPC   D2A26646  13.250  23.567  16.424 -0.2113  0.0704 -0.0687
 2199POPC   C3A26647  13.544  23.646  16.775 -0.0704 -0.3754  0.2175
 2199POPC   C4A26648  13.764  23.393  17.134  0.4368  0.0605  0.0294
 2199POPC   C1B26649  13.855  23.132  16.096 -0.4666 -0.1234 -0.0506
 2199POPC   C2B26650  13.567  23.183  16.479 -0.1594 -0.3455  0.3217
 2199POPC   C3B26651  13.203  23.136  16.811  0.0894  0.0443 -0.0350
 2199POPC   C4B26652  12.741  22.973  16.753  0.0816  0.0314 -0.1424
 2200POPC   NC326653  29.916  23.994  14.499  0.1980  0.2562 -0.0849
 2200POPC   PO426654  29.558  24.161  14.489 -0.1388 -0.0471  0.2842
 2200POPC   GL126655  29.680  24.331  14.893 -0.4653 -0.0988  0.0411
 2200POPC   GL226656  30.021  24.254  14.929 -0.0969 -0.0904  0.0330
 2200POPC   C1A26657  29.829  24.620  15.216  0.2464 -0.2761  0.0390
 2200POPC   D2A26658  30.049  24.864  15.505  0.0838  0.3020 -0.3584
 2200POPC   C3A26659  30.504  24.861  15.389 -0.1708 -0.3478  0.1797
 2200POPC   C4A26660  31.025  24.957  15.385  0.0949 -0.1419  0.0788
 2200POPC   C1B26661  30.282  24.448  15.277  0.2389 -0.2122 -0.3235
 2200POPC   C2B26662  30.391  24.586  15.738  0.1172 -0.2207  0.1567
 2200POPC   C3B26663  30.547  24.672  16.152  0.0658 -0.3367 -0.1367
 2200POPC   C4B26664  30.655  24.381  16.462  0.0511 -0.0980 -0.0648
 2201POPC   NC326665  30.848   9.438  15.115 -0.0704  0.2481 -0.0177
 2201POPC   PO426666  30.498   9.619  15.109  0.0246  0.0735 -0.0636
 2201POPC   GL126667  30.538   9.542  15.502  0.3027 -0.0601 -0.2112
 2201POPC   GL226668  30.326   9.285  15.463  0.1520  0.1220 -0.0037
 2201POPC   C1A26669  30.161   9.657  15.748  0.1110  0.2779 -0.2156
 2201POPC   D2A26670  29.920   9.525  16.132  0.0805  0.1281  0.0077
 2201POPC   C3A26671  29.599   9.370  16.376  0.0379  0.2504  0.0456
 2201POPC   C4A26672  29.612   9.168  16.814 -0.0227 -0.2648 -0.2538
 2201POPC   C1B26673  30.358   9.246  15.917 -0.1254 -0.1574 -0.0920
 2201POPC   C2B26674  30.208   9.027  16.345 -0.3335  0.0095  0.1153
 2201POPC   C3B26675  30.144   8.999  16.778  0.2030 -0.2121 -0.0081
 2201POPC   C4B26676  30.017   8.891  17.236  0.2344  0.1508  0.0742
 2202POPC   NC326677  23.538  14.700  14.941  0.1474  0.2186 -0.1209
 2202POPC   PO426678  23.380  15.000  15.136  0.2037 -0.1417  0.3247
 2202POPC   GL126679  23.361  15.203  15.485  0.0873  0.1341 -0.1331
 2202POPC   GL226680  23.170  15.068  15.648 -0.0417  0.0406  0.0222
 2202POPC   C1A26681  23.399  15.607  15.708 -0.1216  0.1086  0.1545
 2202POPC   D2A26682  23.068  15.897  15.564 -0.1883  0.0416 -0.1857
 2202POPC   C3A26683  22.959  16.070  15.987 -0.0466 -0.1452 -0.1951
 2202POPC   C4A26684  23.089  16.121  16.471 -0.0254 -0.1635 -0.1854
 2202POPC   C1B26685  23.045  15.122  16.047 -0.1057 -0.1409 -0.3237
 2202POPC   C2B26686  22.683  15.281  16.262 -0.0276  0.1888  0.3668
 2202POPC   C3B26687  22.529  15.344  16.693  0.0555  0.2537 -0.0026
 2202POPC   C4B26688  22.209  15.255  17.033  0.1094 -0.2830 -0.0037
 2203POPC   NC326689  27.140  21.728  15.357 -0.1323  0.0888 -0.1010
 2203POPC   PO426690  27.035  21.403  15.226  0.0850  0.1213  0.0029
 2203POPC   GL126691  27.113  21.137  15.544  0.1222 -0.2721 -0.2594
 2203POPC   GL226692  26.811  21.053  15.671  0.1532 -0.2407  0.1198
 2203POPC   C1A26693  27.307  20.924  15.898  0.1303 -0.0191 -0.0544
 2203POPC   D2A26694  27.625  20.662  16.150 -0.2318 -0.4025  0.0005
 2203POPC   C3A26695  27.567  20.875  16.578 -0.3306 -0.2271  0.0362
 2203POPC   C4A26696  27.646  20.683  17.033  0.1307 -0.1997  0.1314
 2203POPC   C1B26697  26.870  21.295  16.071 -0.1244 -0.0880 -0.0938
 2203POPC   C2B26698  27.104  21.121  16.436  0.0948 -0.2475  0.1588
 2203POPC   C3B26699  26.802  20.986  16.798  0.0434 -0.2029 -0.2184
 2203POPC   C4B26700  26.461  21.083  17.075 -0.0245  0.1817 -0.1961
 2204POPC   NC326701  18.173  12.851  14.833 -0.2053 -0.0451  0.0165
 2204POPC   PO426702  18.113  12.967  15.158 -0.3115 -0.1337 -0.0943
 2204POPC   GL126703  17.895  13.024  15.503  0.0191 -0.0477  0.2335
 2204POPC   GL226704  18.129  12.864  15.642  0.1317 -0.1758  0.0784
 2204POPC   C1A26705  18.010  13.391  15.782  0.0052  0.0528 -0.0947
 2204POPC   D2A26706  17.979  13.524  16.196  0.1128  0.2354 -0.0323
 2204POPC   C3A26707  18.053  13.321  16.599  0.2071 -0.0057  0.2944
 2204POPC   C4A26708  17.974  13.099  16.982 -0.0036 -0.1723 -0.3829
 2204POPC   C1B26709  18.215  12.997  16.050  0.3104  0.0167  0.1547
 2204POPC   C2B26710  18.318  12.930  16.477 -0.1034  0.0816 -0.0417
 2204POPC   C3B26711  18.336  12.813  16.889  0.0118  0.1787  0.0270
 2204POPC   C4B26712  18.167  12.739  17.267 -0.1422  0.3362  0.0441
 2205POPC   NC326713   8.098  16.296  15.277  0.4184 -0.0696 -0.2464
 2205POPC   PO426714   8.447  16.355  15.415 -0.0608 -0.3364  0.0487
 2205POPC   GL126715   8.440  16.359  15.835  0.1020  0.4730 -0.1924
 2205POPC   GL226716   8.104  16.313  15.811  0.3193  0.1638  0.4481
 2205POPC   C1A26717   8.651  16.463  16.240  0.0378  0.1451  0.0542
 2205POPC   D2A26718   8.685  16.563  16.716  0.4186 -0.1244  0.1314
 2205POPC   C3A26719   8.557  16.462  17.183  0.0450  0.0587 -0.2127
 2205POPC   C4A26720   8.150  16.381  17.302  0.0110  0.0654 -0.1843
 2205POPC   C1B26721   8.163  16.490  16.265  0.1099  0.0171  0.0219
 2205POPC   C2B26722   8.128  16.421  16.724  0.0371  0.1242 -0.0114
 2205POPC   C3B26723   7.843  16.665  17.056  0.2011 -0.1873 -0.2486
 2205POPC   C4B26724   7.551  16.763  17.330 -0.2583  0.0365 -0.2258
 2206POPC   NC326725   5.502  16.558  14.930 -0.1110  0.1102  0.1033
 2206POPC   PO426726   5.133  16.493  15.110  0.0731 -0.3660 -0.1198
 2206POPC   GL126727   4.949  16.422  15.489 -0.1787 -0.0257  0.1959
 2206POPC   GL226728   4.669  16.534  15.487  0.0581 -0.1429  0.0385
 2206POPC   C1A26729   5.092  16.324  15.915 -0.0350  0.0115 -0.2399
 2206POPC   D2A26730   4.992  16.175  16.331 -0.0210 -0.0675  0.0253
 2206POPC   C3A26731   4.726  15.818  16.563  0.0494 -0.1968  0.3366
 2206POPC   C4A26732   4.972  15.507  16.862  0.3355 -0.3290  0.1202
 2206POPC   C1B26733   4.311  16.735  15.556  0.0545  0.0928 -0.0471
 2206POPC   C2B26734   4.044  16.953  15.937 -0.5666 -0.0030 -0.0501
 2206POPC   C3B26735   3.766  17.022  16.285  0.1787  0.1091  0.1792
 2206POPC   C4B26736   3.714  16.889  16.700 -0.2037 -0.1205  0.2632
 2207POPC   NC326737  16.423   8.067  14.962 -0.0905 -0.1882  0.4626
 2207POPC   PO426738  16.621   8.043  15.272 -0.2340  0.1002 -0.0418
 2207POPC   GL126739  16.350   8.041  15.586  0.3128  0.3317  0.0441
 2207POPC   GL226740  16.055   7.967  15.456  0.0394  0.0620  0.0543
 2207POPC   C1A26741  16.103   8.212  15.870  0.0079  0.0428  0.0162
 2207POPC   D2A26742  16.130   8.190  16.305  0.0859  0.0456 -0.2609
 2207POPC   C3A26743  16.354   8.054  16.697 -0.3687 -0.0938  0.0114
 2207POPC   C4A26744  16.693   7.996  17.034 -0.0321 -0.2186  0.0461
 2207POPC   C1B26745  16.008   7.620  15.756  0.2025  0.0374 -0.0152
 2207POPC   C2B26746  15.974   7.704  16.222  0.0726 -0.1673  0.2464
 2207POPC   C3B26747  15.809   7.927  16.620 -0.1020 -0.1440  0.0231
 2207POPC   C4B26748  15.911   7.865  17.048  0.0875  0.0721 -0.0007
 2208POPC   NC326749   3.165   7.268  15.257 -0.1095 -0.1304 -0.0173
 2208POPC   PO426750   3.381   7.120  15.578  0.0708 -0.1456  0.1735
 2208POPC   GL126751   3.233   7.081  15.927  0.0078 -0.1003 -0.4269
 2208POPC   GL226752   2.931   6.984  16.027  0.1630  0.0782  0.3170
 2208POPC   C1A26753   3.405   7.278  16.301 -0.1496 -0.2241  0.0363
 2208POPC   D2A26754   3.511   7.603  16.602 -0.2964 -0.2830  0.0630
 2208POPC   C3A26755   3.347   7.901  16.906 -0.0332 -0.0677  0.0641
 2208POPC   C4A26756   3.425   8.285  17.190  0.2363  0.1096 -0.0771
 2208POPC   C1B26757   2.912   7.252  16.394  0.1698  0.0907 -0.0173
 2208POPC   C2B26758   2.834   7.364  16.841  0.0350  0.0511 -0.0565
 2208POPC   C3B26759   2.429   7.460  17.089  0.1083  0.1602 -0.2504
 2208POPC   C4B26760   2.132   7.203  17.291  0.3176 -0.0519 -0.1859
 2209POPC   NC326761   6.395   0.335  15.261  0.2416  0.0354 -0.3711
 2209POPC   PO426762   6.081   0.068  15.324  0.0900 -0.1242  0.2886
 2209POPC   GL126763   6.041   0.114  15.695  0.1438 -0.2812  0.0905
 2209POPC   GL226764   6.103   0.382  15.670  0.0845  0.2380 -0.0108
 2209POPC   C1A26765   6.211   0.073  16.111  0.0352 -0.1064 -0.2029
 2209POPC   D2A26766   6.292  -0.241  16.469  0.4371  0.1388  0.2017
 2209POPC   C3A26767   6.498  -0.244  16.898 -0.0054  0.1852 -0.0361
 2209POPC   C4A26768   6.666  -0.622  17.128  0.1681  0.0386  0.0086
 2209POPC   C1B26769   5.881   0.394  16.099 -0.2150  0.1915 -0.1583
 2209POPC   C2B26770   5.830   0.353  16.579  0.0106 -0.1170 -0.2411
 2209POPC   C3B26771   5.916   0.416  17.043 -0.1939  0.3207  0.3316
 2209POPC   C4B26772   5.919   0.363  17.491 -0.1329 -0.0525 -0.0574
 2210POPC   NC326773  21.912   4.489  15.372 -0.1286 -0.1112 -0.0811
 2210POPC   PO426774  22.010   4.467  14.992 -0.0648  0.0814 -0.1080
 2210POPC   GL126775  22.337   4.371  15.210  0.0388 -0.4758 -0.6017
 2210POPC   GL226776  22.300   4.092  15.328  0.1792  0.1618 -0.1889
 2210POPC   C1A26777  22.521   4.402  15.688 -0.0503 -0.2363  0.1840
 2210POPC   D2A26778  22.646   4.362  16.130 -0.1647 -0.0380  0.4878
 2210POPC   C3A26779  22.550   4.406  16.568 -0.2172 -0.0193  0.0240
 2210POPC   C4A26780  22.855   4.558  16.805  0.2939  0.0701  0.1288
 2210POPC   C1B26781  22.086   4.042  15.748 -0.2610  0.1704  0.2347
 2210POPC   C2B26782  22.195   3.870  16.156  0.1183 -0.0037 -0.3156
 2210POPC   C3B26783  22.250   3.872  16.639  0.1815 -0.3453  0.0004
 2210POPC   C4B26784  21.969   3.714  16.983  0.3533 -0.2585  0.2291
 2211POPC   NC326785  21.590  19.717  15.057  0.4322  0.0343 -0.0366
 2211POPC   PO426786  21.808  19.745  15.370 -0.0881  0.1501 -0.2626
 2211POPC   GL126787  21.819  19.811  15.761 -0.1144  0.3244  0.1440
 2211POPC   GL226788  21.995  20.052  15.751  0.0635  0.0644  0.2751
 2211POPC   C1A26789  21.668  19.675  16.151 -0.1435  0.0812 -0.1360
 2211POPC   D2A26790  21.657  19.655  16.641 -0.0930 -0.1383 -0.2398
 2211POPC   C3A26791  21.549  19.679  17.081  0.1589  0.1222  0.1598
 2211POPC   C4A26792  21.862  19.457  17.399 -0.2231 -0.0049 -0.1136
 2211POPC   C1B26793  22.108  19.838  16.119  0.4706 -0.0165  0.0153
 2211POPC   C2B26794  22.118  19.866  16.541  0.1276  0.0992 -0.1388
 2211POPC   C3B26795  21.991  19.894  16.976  0.2165 -0.1763  0.0293
 2211POPC   C4B26796  22.070  19.936  17.447 -0.1070  0.2128 -0.1196
 2212POPC   NC326797  11.223  31.005  15.234 -0.2129  0.1290 -0.0774
 2212POPC   PO426798  11.034  30.730  15.034  0.0032 -0.0486 -0.4657
 2212POPC   GL126799  10.944  30.647  15.438  0.1626  0.0248  0.0176
 2212POPC   GL226800  10.711  30.806  15.409 -0.2894 -0.1078 -0.1473
 2212POPC   C1A26801  10.917  30.722  15.909 -0.2836  0.0236  0.0887
 2212POPC   D2A26802  11.043  30.693  16.302 -0.0402  0.3045  0.1121
 2212POPC   C3A26803  11.472  30.586  16.287  0.1081  0.1214  0.1571
 2212POPC   C4A26804  11.868  30.521  16.494  0.1278  0.0005 -0.3104
 2212POPC   C1B26805  10.889  31.129  15.619  0.1226  0.1196  0.0610
 2212POPC   C2B26806  11.139  31.401  15.794  0.0384  0.5340 -0.1502
 2212POPC   C3B26807  11.182  31.712  16.074  0.3798 -0.1048 -0.0892
 2212POPC   C4B26808  11.305  32.037  16.302 -0.0569  0.2801 -0.0677
 2213POPC   NC326809   0.698   0.654  15.018 -0.0863  0.1427 -0.3628
 2213POPC   PO426810   1.123   0.624  14.961 -0.0054 -0.1919  0.1281
 2213POPC   GL126811   1.292   0.596  15.350  0.3777  0.1218  0.0851
 2213POPC   GL226812   1.438   0.693  15.400 -0.0766  0.1593 -0.0807
 2213POPC   C1A26813   1.073   0.537  15.722 -0.1003 -0.0536  0.2021
 2213POPC   D2A26814   0.847   0.536  16.083  0.2162  0.0347  0.0374
 2213POPC   C3A26815   1.032   0.515  16.494 -0.3281  0.0713  0.2555
 2213POPC   C4A26816   1.066   0.557  16.923  0.3519 -0.0950 -0.4094
 2213POPC   C1B26817   1.571   0.821  15.844 -0.2819  0.1894 -0.1277
 2213POPC   C2B26818   1.797   0.903  16.237  0.0502 -0.0482 -0.0039
 2213POPC   C3B26819   2.037   0.967  16.630  0.2457 -0.1101  0.1460
 2213POPC   C4B26820   1.994   0.765  17.030 -0.0412  0.0288  0.2220
 2214POPC   NC326821  15.807  15.062  14.958  0.0697  0.0906  0.0169
 2214POPC   PO426822  15.919  15.416  15.130 -0.0431 -0.2431 -0.1126
 2214POPC   GL126823  15.804  15.647  15.450  0.3392  0.1901 -0.0187
 2214POPC   GL226824  15.998  15.539  15.641 -0.1618  0.1563  0.1689
 2214POPC   C1A26825  15.653  15.860  15.825  0.1933  0.3052  0.0362
 2214POPC   D2A26826  15.704  15.976  16.244  0.3712  0.2394  0.0672
 2214POPC   C3A26827  15.922  16.080  16.610  0.3051  0.1221  0.1833
 2214POPC   C4A26828  16.006  16.135  17.054 -0.0927  0.0489 -0.0332
 2214POPC   C1B26829  15.992  15.612  16.082  0.2834  0.1622 -0.1442
 2214POPC   C2B26830  15.886  15.565  16.523 -0.0576 -0.0945  0.1852
 2214POPC   C3B26831  15.848  15.658  16.961 -0.1399 -0.1460  0.3202
 2214POPC   C4B26832  16.043  15.710  17.412 -0.1476 -0.2524  0.0351
 2215POPC   NC326833  27.356  29.080  14.874  0.0413 -0.1710 -0.4553
 2215POPC   PO426834  27.679  29.310  14.816  0.2096  0.1369 -0.2280
 2215POPC   GL126835  27.549  29.614  14.738 -0.0500 -0.2277  0.2186
 2215POPC   GL226836  27.228  29.675  14.881  0.0041 -0.0590  0.2935
 2215POPC   C1A26837  27.702  30.003  14.589  0.1402  0.0441  0.2543
 2215POPC   D2A26838  27.792  30.421  14.699  0.3642 -0.1156  0.2954
 2215POPC   C3A26839  27.610  30.860  14.666 -0.0576 -0.0737 -0.1037
 2215POPC   C4A26840  27.258  31.097  14.849 -0.1746  0.0724  0.3308
 2215POPC   C1B26841  27.116  29.828  15.271 -0.2314 -0.4592 -0.0726
 2215POPC   C2B26842  27.059  30.291  15.390  0.3472  0.0912 -0.1137
 2215POPC   C3B26843  27.234  30.601  15.674 -0.1611 -0.0944  0.0112
 2215POPC   C4B26844  27.298  30.965  15.859 -0.2103  0.0344 -0.0580
 2216POPC   NC326845   9.033   7.386  14.811  0.0276 -0.1259  0.2421
 2216POPC   PO426846   9.089   7.059  15.041 -0.2073 -0.2081 -0.2506
 2216POPC   GL126847   8.845   7.139  15.383  0.0991  0.3564  0.1003
 2216POPC   GL226848   8.670   6.827  15.360 -0.2495 -0.0129 -0.0048
 2216POPC   C1A26849   8.589   7.218  15.712 -0.1258  0.0233 -0.1969
 2216POPC   D2A26850   8.414   7.334  16.127 -0.2705  0.0375 -0.3559
 2216POPC   C3A26851   8.445   7.372  16.640  0.0040  0.0219 -0.2105
 2216POPC   C4A26852   8.336   7.365  17.084 -0.1248 -0.1209  0.1110
 2216POPC   C1B26853   8.967   6.863  15.785  0.0346  0.4521 -0.0383
 2216POPC   C2B26854   9.260   6.764  16.139  0.1200 -0.2318 -0.2292
 2216POPC   C3B26855   9.478   6.995  16.439 -0.0865 -0.1141  0.0031
 2216POPC   C4B26856   9.396   6.953  16.862  0.3885 -0.3738  0.1127
 2217POPC   NC326857   4.248  18.742  14.591  0.1398  0.0609  0.0033
 2217POPC   PO426858   3.921  18.715  14.847  0.3248  0.1857 -0.0702
 2217POPC   GL126859   3.710  18.993  15.165  0.2088  0.0867  0.0199
 2217POPC   GL226860   3.535  19.189  15.121 -0.3158  0.1094  0.0988
 2217POPC   C1A26861   3.466  18.816  15.530 -0.4600 -0.1167 -0.1223
 2217POPC   D2A26862   3.064  18.604  15.730  0.1610  0.0027  0.0229
 2217POPC   C3A26863   3.113  18.566  16.219  0.0448  0.0383 -0.0257
 2217POPC   C4A26864   3.214  18.251  16.568  0.0000  0.1943 -0.0929
 2217POPC   C1B26865   3.591  19.346  15.514 -0.0945 -0.4529 -0.0911
 2217POPC   C2B26866   3.453  19.702  15.713 -0.1504  0.3859 -0.2394
 2217POPC   C3B26867   3.281  19.942  15.983  0.0652 -0.1591 -0.0549
 2217POPC   C4B26868   3.279  20.336  16.318 -0.2813 -0.1880 -0.0330
 2218POPC   NC326869   6.775  16.451  15.557  0.1999  0.2095 -0.0144
 2218POPC   PO426870   6.708  16.090  15.368 -0.2216  0.1944  0.0753
 2218POPC   GL126871   6.512  16.116  15.759 -0.2558  0.0719  0.0422
 2218POPC   GL226872   6.438  15.814  15.720 -0.1760  0.1156 -0.2337
 2218POPC   C1A26873   6.527  16.090  16.223  0.0922 -0.2857 -0.0172
 2218POPC   D2A26874   6.503  16.224  16.680  0.1263 -0.0439 -0.0361
 2218POPC   C3A26875   6.978  16.197  16.717  0.1255 -0.3080 -0.1358
 2218POPC   C4A26876   7.252  16.514  16.910  0.0783 -0.3154 -0.0216
 2218POPC   C1B26877   6.161  15.842  16.096 -0.0628 -0.1089 -0.2814
 2218POPC   C2B26878   6.180  15.832  16.552 -0.0699 -0.1454  0.1340
 2218POPC   C3B26879   6.251  15.899  16.993  0.0806 -0.0103  0.0037
 2218POPC   C4B26880   6.440  15.805  17.363  0.1539 -0.0996  0.1594
 2219POPC   NC326881  31.247   3.192  14.821  0.2363  0.0147  0.0442
 2219POPC   PO426882  31.568   3.241  15.077 -0.1867 -0.0378  0.2341
 2219POPC   GL126883  31.648   3.295  15.443 -0.2518  0.0932 -0.2596
 2219POPC   GL226884  31.515   3.455  15.639  0.0839 -0.2728 -0.0946
 2219POPC   C1A26885  31.795   2.992  15.809 -0.0085 -0.1966  0.0891
 2219POPC   D2A26886  31.531   2.713  16.092 -0.2544 -0.3486  0.0917
 2219POPC   C3A26887  31.273   2.661  16.479  0.2972  0.3213 -0.1857
 2219POPC   C4A26888  31.336   2.407  16.927 -0.1574  0.3857 -0.2678
 2219POPC   C1B26889  31.436   3.220  16.089 -0.0320  0.0192 -0.3130
 2219POPC   C2B26890  31.670   3.253  16.471 -0.2238  0.2071  0.0460
 2219POPC   C3B26891  31.500   2.952  16.866  0.2734  0.0903 -0.1842
 2219POPC   C4B26892  31.117   2.933  17.105  0.2647  0.2234  0.3179
 2220POPC   NC326893   1.658   9.951  15.246  0.4996 -0.2248  0.3889
 2220POPC   PO426894   1.371   9.749  15.429  0.0849 -0.0081 -0.0552
 2220POPC   GL126895   1.093   9.881  15.755  0.1326 -0.0035  0.0169
 2220POPC   GL226896   0.878  10.078  15.654 -0.0021 -0.0902  0.0315
 2220POPC   C1A26897   1.129   9.863  16.220 -0.2957 -0.1974  0.3886
 2220POPC   D2A26898   1.249   9.937  16.627  0.0697 -0.1491  0.1522
 2220POPC   C3A26899   1.725   9.900  16.757  0.2715 -0.1064 -0.1538
 2220POPC   C4A26900   2.073   9.945  16.997 -0.2820 -0.2635  0.0714
 2220POPC   C1B26901   0.700   9.751  15.936 -0.3773  0.0095  0.0483
 2220POPC   C2B26902   0.641   9.561  16.350 -0.0013 -0.0137 -0.1391
 2220POPC   C3B26903   0.871   9.478  16.717 -0.0856  0.1149 -0.1189
 2220POPC   C4B26904   0.993   9.289  17.075  0.2040  0.5257  0.1422
 2221POPC   NC326905  13.953  15.829  15.670 -0.0225  0.1026  0.1086
 2221POPC   PO426906  14.146  15.527  15.500 -0.3217  0.1159  0.0462
 2221POPC   GL126907  14.110  15.307  15.799  0.3175 -0.2575  0.2802
 2221POPC   GL226908  13.825  15.129  15.811  0.0170 -0.2155 -0.2662
 2221POPC   C1A26909  13.982  15.488  16.221 -0.1182 -0.1983  0.0926
 2221POPC   D2A26910  13.843  15.542  16.651  0.1411 -0.4994  0.0968
 2221POPC   C3A26911  13.464  15.752  16.848  0.1089  0.0605  0.1021
 2221POPC   C4A26912  13.046  15.691  16.720 -0.4412  0.3337 -0.2935
 2221POPC   C1B26913  13.603  15.143  16.197  0.0192 -0.4790 -0.0389
 2221POPC   C2B26914  13.387  15.271  16.602 -0.2414 -0.3022 -0.0405
 2221POPC   C3B26915  13.163  15.249  16.971 -0.2750 -0.1259 -0.1635
 2221POPC   C4B26916  12.953  15.546  17.225  0.2331 -0.1808 -0.1311
 2222POPC   NC326917  26.287   3.748  15.780  0.3260 -0.0810  0.1014
 2222POPC   PO426918  26.277   4.137  15.568  0.0354 -0.1461  0.0301
 2222POPC   GL126919  26.138   4.184  15.934  0.3893  0.2190 -0.2272
 2222POPC   GL226920  26.233   4.403  16.069  0.1080  0.0736  0.1251
 2222POPC   C1A26921  26.189   4.097  16.437 -0.2781 -0.0902 -0.0331
 2222POPC   D2A26922  26.363   4.270  16.800 -0.2476  0.1859 -0.1711
 2222POPC   C3A26923  26.664   4.596  16.950 -0.2647 -0.0272  0.2599
 2222POPC   C4A26924  26.732   5.024  16.949  0.0512 -0.1321 -0.1274
 2222POPC   C1B26925  26.589   4.429  16.354 -0.2137 -0.0483  0.0053
 2222POPC   C2B26926  26.799   4.800  16.435  0.2980  0.0389  0.0473
 2222POPC   C3B26927  27.084   5.030  16.650  0.0638  0.0803  0.5048
 2222POPC   C4B26928  27.132   5.436  16.831  0.2156 -0.3605  0.0159
 2223POPC   NC326929  20.936  12.098  15.226  0.5262 -0.1416 -0.0497
 2223POPC   PO426930  20.730  12.387  15.083 -0.1025 -0.1761  0.0888
 2223POPC   GL126931  20.419  12.406  15.442 -0.2445  0.3567  0.2050
 2223POPC   GL226932  20.323  12.683  15.452 -0.0335  0.0101  0.1301
 2223POPC   C1A26933  20.448  12.504  15.886  0.2013  0.1315  0.1121
 2223POPC   D2A26934  20.297  12.660  16.324 -0.0388 -0.0126  0.0247
 2223POPC   C3A26935  20.480  12.852  16.703 -0.3237 -0.1318  0.1870
 2223POPC   C4A26936  20.773  12.674  16.993 -0.4743  0.1459 -0.4070
 2223POPC   C1B26937  20.455  12.991  15.778  0.0316  0.1435 -0.2281
 2223POPC   C2B26938  20.700  12.924  16.190  0.0164 -0.0851 -0.3667
 2223POPC   C3B26939  21.061  12.829  16.469 -0.0766  0.2307  0.0005
 2223POPC   C4B26940  21.325  12.587  16.818  0.2053 -0.0970 -0.0903
 2224POPC   NC326941  14.329  17.143  15.141 -0.0269  0.3900  0.0776
 2224POPC   PO426942  14.617  17.348  15.210 -0.1300 -0.1086  0.2095
 2224POPC   GL126943  14.681  17.330  15.627 -0.0025 -0.0618  0.0929
 2224POPC   GL226944  14.505  17.081  15.608  0.1665  0.4415  0.0106
 2224POPC   C1A26945  14.951  17.285  15.980  0.1497  0.0592  0.0148
 2224POPC   D2A26946  15.346  17.475  16.086  0.2203  0.0611 -0.0243
 2224POPC   C3A26947  15.555  17.301  16.464 -0.3046 -0.1901  0.2275
 2224POPC   C4A26948  15.697  17.567  16.799  0.1008  0.2888 -0.1166
 2224POPC   C1B26949  14.339  17.071  16.078 -0.0791  0.0168 -0.1460
 2224POPC   C2B26950  14.003  17.146  16.445  0.3605  0.4533  0.1995
 2224POPC   C3B26951  13.885  17.074  16.911  0.0502  0.0794 -0.0586
 2224POPC   C4B26952  13.526  16.866  17.170 -0.2064 -0.2619  0.1244
 2225POPC   NC326953  10.204  15.381  15.228  0.3420  0.0505  0.0042
 2225POPC   PO426954  10.199  15.068  15.427  0.2171 -0.1432  0.0751
 2225POPC   GL126955  10.389  15.058  15.722  0.1282  0.2197 -0.2001
 2225POPC   GL226956  10.583  15.282  15.873 -0.2815  0.2101 -0.3560
 2225POPC   C1A26957  10.409  14.769  16.166 -0.3525 -0.0165  0.1764
 2225POPC   D2A26958  10.369  14.695  16.582  0.0104  0.1519 -0.2887
 2225POPC   C3A26959  10.684  14.644  16.918 -0.0919  0.1926  0.0333
 2225POPC   C4A26960  10.829  14.522  17.304  0.0358 -0.0539 -0.0342
 2225POPC   C1B26961  10.689  15.278  16.373  0.0578  0.3529 -0.1531
 2225POPC   C2B26962  10.919  15.070  16.695 -0.2817 -0.0865 -0.0954
 2225POPC   C3B26963  11.073  15.067  17.158 -0.1033 -0.2094  0.3665
 2225POPC   C4B26964  11.448  15.030  17.465 -0.2047  0.0058  0.0675
 2226POPC   NC326965   1.652   9.216  15.664 -0.3028  0.0510  0.0420
 2226POPC   PO426966   1.811   9.530  15.495  0.2794 -0.2275  0.0077
 2226POPC   GL126967   1.566   9.647  15.855 -0.3406 -0.1036  0.0042
 2226POPC   GL226968   1.281   9.474  15.895 -0.0728 -0.1597  0.2437
 2226POPC   C1A26969   1.621   9.593  16.332 -0.0570  0.2176 -0.2778
 2226POPC   D2A26970   1.419   9.426  16.709 -0.0015 -0.0983 -0.2076
 2226POPC   C3A26971   1.519   9.039  16.965  0.4099 -0.1796  0.1839
 2226POPC   C4A26972   1.620   8.997  17.374  0.0440 -0.0891 -0.1088
 2226POPC   C1B26973   1.101   9.335  16.305  0.1241 -0.2305  0.0044
 2226POPC   C2B26974   1.137   9.031  16.659 -0.0580  0.3523  0.2415
 2226POPC   C3B26975   1.068   8.709  17.010 -0.0879 -0.1505  0.0381
 2226POPC   C4B26976   1.030   8.296  17.185 -0.2605  0.0882  0.1552
 2227POPC   NC326977   8.373  14.483  15.486 -0.1727 -0.2235 -0.2216
 2227POPC   PO426978   8.127  14.279  15.298  0.0562 -0.2367 -0.1332
 2227POPC   GL126979   7.867  14.143  15.550 -0.0442  0.0990  0.1494
 2227POPC   GL226980   7.640  14.301  15.556 -0.1999  0.0021 -0.0587
 2227POPC   C1A26981   7.921  14.005  16.019  0.0096  0.1918 -0.0753
 2227POPC   D2A26982   7.951  13.665  16.295 -0.0741 -0.0425  0.1017
 2227POPC   C3A26983   7.867  13.777  16.714  0.0223 -0.2459  0.0161
 2227POPC   C4A26984   7.791  13.695  17.101 -0.0059 -0.0423 -0.0031
 2227POPC   C1B26985   7.463  14.247  15.960  0.0613 -0.1507  0.1074
 2227POPC   C2B26986   7.542  13.997  16.359  0.0261 -0.2105 -0.1565
 2227POPC   C3B26987   7.401  13.762  16.792 -0.1578 -0.3650 -0.2354
 2227POPC   C4B26988   7.020  13.736  17.058 -0.0551  0.0021  0.0739
 2228POPC   NC326989  25.110  30.735  15.329 -0.1307  0.0856  0.2053
 2228POPC   PO426990  25.389  30.995  15.294  0.2101  0.1473  0.0212
 2228POPC   GL126991  25.569  31.079  15.632  0.1066  0.0111 -0.0156
 2228POPC   GL226992  25.574  31.355  15.744  0.1704 -0.0935 -0.0089
 2228POPC   C1A26993  25.883  30.993  15.918 -0.0813 -0.0272  0.3595
 2228POPC   D2A26994  26.017  30.939  16.349 -0.3888 -0.2424  0.1765
 2228POPC   C3A26995  26.312  31.019  16.686 -0.2357 -0.1984  0.0829
 2228POPC   C4A26996  26.674  31.258  16.841  0.1595  0.1285 -0.0676
 2228POPC   C1B26997  25.741  31.404  16.122  0.2098 -0.2664  0.0295
 2228POPC   C2B26998  25.958  31.468  16.495 -0.0426 -0.3126 -0.0041
 2228POPC   C3B26999  26.151  31.507  16.907 -0.0137 -0.3419  0.0803
 2228POPC   C4B27000  26.032  31.532  17.390  0.0511 -0.2036  0.3672
 2229POPC   NC327001  22.923   9.432  15.519  0.1855 -0.4500  0.2657
 2229POPC   PO427002  22.977   9.087  15.645  0.0586  0.4674  0.0064
 2229POPC   GL127003  22.733   9.163  15.993 -0.0842  0.1451 -0.0426
 2229POPC   GL227004  22.604   9.422  15.900  0.1795  0.0657 -0.0890
 2229POPC   C1A27005  23.006   9.108  16.349  0.1363  0.2372  0.1143
 2229POPC   D2A27006  22.783   9.153  16.709  0.1079 -0.1245  0.0404
 2229POPC   C3A27007  22.941   9.346  17.089  0.0604 -0.1738  0.3369
 2229POPC   C4A27008  22.866   9.634  17.417  0.2225  0.1350  0.2060
 2229POPC   C1B27009  22.469   9.345  16.303 -0.4304 -0.1251  0.0990
 2229POPC   C2B27010  22.303   9.337  16.766 -0.2917 -0.1343 -0.0487
 2229POPC   C3B27011  22.438   9.357  17.218 -0.2696 -0.0850  0.0696
 2229POPC   C4B27012  22.281   9.575  17.658  0.0113  0.0071  0.0407
 2230POPC   NC327013  29.531   8.237  14.278 -0.2831  0.3148 -0.0604
 2230POPC   PO427014  29.908   8.143  14.368 -0.0645 -0.1402 -0.0649
 2230POPC   GL127015  29.613   7.977  14.667  0.0058 -0.2528 -0.0185
 2230POPC   GL227016  29.733   8.016  14.917  0.1723 -0.2385 -0.0833
 2230POPC   C1A27017  29.594   7.543  14.751 -0.0604 -0.1002 -0.3514
 2230POPC   D2A27018  29.825   7.385  15.108  0.0739  0.1744 -0.1939
 2230POPC   C3A27019  29.635   7.177  15.460  0.4197 -0.0978  0.2212
 2230POPC   C4A27020  29.209   7.076  15.534  0.0854 -0.2523 -0.1204
 2230POPC   C1B27021  29.583   8.160  15.339 -0.2608 -0.1177  0.0660
 2230POPC   C2B27022  29.155   8.290  15.416 -0.1475  0.0170 -0.1082
 2230POPC   C3B27023  28.771   8.317  15.148  0.0464  0.0102  0.0890
 2230POPC   C4B27024  28.411   8.090  15.069 -0.1708  0.0111 -0.0427
 2231POPC   NC327025   5.834  20.553  15.238  0.2976  0.3230  0.3083
 2231POPC   PO427026   5.786  20.889  15.437  0.1416 -0.2752  0.1130
 2231POPC   GL127027   5.995  20.875  15.824 -0.1569 -0.2542 -0.3795
 2231POPC   GL227028   6.143  21.067  15.997 -0.1814  0.1127 -0.0249
 2231POPC   C1A27029   5.896  20.752  16.292  0.0130 -0.0290 -0.0574
 2231POPC   D2A27030   5.659  20.990  16.641 -0.1684  0.2134 -0.1975
 2231POPC   C3A27031   5.571  21.383  16.521 -0.2145  0.1439  0.2046
 2231POPC   C4A27032   5.367  21.745  16.691 -0.0589 -0.0376  0.2384
 2231POPC   C1B27033   6.099  21.202  16.471  0.0466 -0.2147 -0.0983
 2231POPC   C2B27034   5.979  21.357  16.903  0.2444  0.0251 -0.0715
 2231POPC   C3B27035   5.767  21.711  17.087  0.1855  0.1590 -0.0493
 2231POPC   C4B27036   5.839  22.095  17.345 -0.1078  0.0381  0.0730
 2232POPC   NC327037  25.335  27.794  15.123  0.0679 -0.1076 -0.2768
 2232POPC   PO427038  24.997  27.678  15.277  0.0227  0.0415 -0.0097
 2232POPC   GL127039  24.915  27.400  15.566  0.1149  0.1316 -0.1302
 2232POPC   GL227040  24.612  27.247  15.613  0.0781 -0.1661 -0.0266
 2232POPC   C1A27041  24.838  27.360  16.051  0.0157  0.0539  0.1260
 2232POPC   D2A27042  24.633  27.661  16.319 -0.1000 -0.0108  0.0557
 2232POPC   C3A27043  24.346  27.710  16.710  0.1419 -0.1087  0.0842
 2232POPC   C4A27044  24.330  27.878  17.088 -0.2766 -0.2332  0.1156
 2232POPC   C1B27045  24.325  27.166  15.986 -0.3292 -0.2225 -0.0416
 2232POPC   C2B27046  24.416  27.094  16.418 -0.2424 -0.1397 -0.0616
 2232POPC   C3B27047  24.324  27.167  16.879  0.0264 -0.1230 -0.4422
 2232POPC   C4B27048  24.448  27.379  17.235 -0.2026 -0.2033  0.0129
 2233POPC   NC327049  17.147  18.021  15.547 -0.1012 -0.2873 -0.1821
 2233POPC   PO427050  16.945  17.673  15.441  0.1054 -0.3343  0.2069
 2233POPC   GL127051  17.193  17.506  15.666 -0.2507  0.3540 -0.4554
 2233POPC   GL227052  17.436  17.664  15.669  0.1754  0.0044  0.0923
 2233POPC   C1A27053  17.470  17.265  15.993  0.0216 -0.0709 -0.1249
 2233POPC   D2A27054  17.692  17.246  16.383 -0.0523 -0.1241  0.0767
 2233POPC   C3A27055  17.786  17.396  16.790  0.1111 -0.1289 -0.2977
 2233POPC   C4A27056  17.854  17.778  17.052 -0.1280 -0.0360 -0.0521
 2233POPC   C1B27057  17.739  17.692  16.034  0.0906  0.1047 -0.0282
 2233POPC   C2B27058  17.840  17.816  16.491 -0.0180  0.2714 -0.1642
 2233POPC   C3B27059  17.975  18.226  16.792 -0.2634  0.0168  0.0128
 2233POPC   C4B27060  18.171  18.580  17.011  0.0211 -0.1463 -0.1459
 2234POPC   NC327061  29.683  26.602  14.692 -0.0819  0.0170 -0.1696
 2234POPC   PO427062  29.393  26.745  14.934 -0.0090 -0.0123  0.1266
 2234POPC   GL127063  29.676  26.695  15.174  0.0481  0.1222 -0.1865
 2234POPC   GL227064  29.940  26.704  15.106 -0.0677 -0.0149 -0.1699
 2234POPC   C1A27065  29.686  26.378  15.485  0.1199 -0.0705 -0.0451
 2234POPC   D2A27066  29.520  25.962  15.418  0.5492  0.0603 -0.3284
 2234POPC   C3A27067  29.502  25.857  15.886  0.0056 -0.2363 -0.0675
 2234POPC   C4A27068  29.461  25.680  16.312  0.0030  0.1418  0.0721
 2234POPC   C1B27069  29.993  26.699  15.569  0.1739 -0.1849  0.1586
 2234POPC   C2B27070  29.906  26.498  15.939 -0.1967 -0.0723  0.0325
 2234POPC   C3B27071  29.743  26.563  16.394 -0.0466 -0.0078 -0.3764
 2234POPC   C4B27072  29.642  26.773  16.797 -0.3580 -0.1160 -0.3883
 2235POPC   NC327073  12.272  20.395  15.381 -0.1289  0.3123  0.2955
 2235POPC   PO427074  12.054  20.698  15.364  0.2433 -0.1194  0.1028
 2235POPC   GL127075  11.987  20.760  15.796 -0.2432 -0.1443 -0.1585
 2235POPC   GL227076  12.176  20.541  15.873  0.1585 -0.3801  0.0656
 2235POPC   C1A27077  11.822  21.062  16.089  0.0320 -0.2900  0.1169
 2235POPC   D2A27078  11.643  21.122  16.494 -0.1980 -0.0984  0.0982
 2235POPC   C3A27079  11.705  20.799  16.838  0.0392  0.2050 -0.0149
 2235POPC   C4A27080  11.823  20.366  16.768  0.0289  0.0553 -0.1006
 2235POPC   C1B27081  12.214  20.154  16.181  0.0077  0.1345 -0.3464
 2235POPC   C2B27082  12.300  20.100  16.648  0.0098 -0.0949  0.1007
 2235POPC   C3B27083  12.277  20.299  17.072 -0.2281 -0.0210  0.0896
 2235POPC   C4B27084  12.332  20.571  17.506  0.1435  0.0586  0.1929
 2236POPC   NC327085  31.634  27.963  14.872 -0.2267 -0.0047  0.0534
 2236POPC   PO427086  31.478  28.135  15.183  0.1937 -0.2205 -0.1744
 2236POPC   GL127087  31.474  28.505  15.399  0.0200  0.1312  0.1191
 2236POPC   GL227088  31.208  28.676  15.496 -0.2001  0.0122 -0.0775
 2236POPC   C1A27089  31.557  28.458  15.836 -0.0964 -0.0849 -0.2453
 2236POPC   D2A27090  31.737  28.560  16.232 -0.1142  0.2339 -0.1742
 2236POPC   C3A27091  31.582  28.592  16.680  0.1594  0.2397 -0.3709
 2236POPC   C4A27092  31.523  28.590  17.120 -0.0572 -0.0163 -0.1431
 2236POPC   C1B27093  31.363  28.981  15.811  0.1168  0.0226 -0.5872
 2236POPC   C2B27094  31.315  28.949  16.294 -0.5977  0.2878  0.3047
 2236POPC   C3B27095  31.397  29.052  16.779 -0.1279 -0.1337  0.0988
 2236POPC   C4B27096  31.772  29.157  17.004  0.0610  0.3765  0.0403
 2237POPC   NC327097  17.212  26.128  15.210 -0.2436 -0.0428  0.1392
 2237POPC   PO427098  17.618  26.025  15.260 -0.3370 -0.1402  0.3118
 2237POPC   GL127099  17.751  25.883  15.567 -0.2586  0.0394  0.3723
 2237POPC   GL227100  18.079  25.951  15.516  0.0102 -0.2418 -0.0762
 2237POPC   C1A27101  17.767  25.988  16.009 -0.0673 -0.3499  0.0337
 2237POPC   D2A27102  17.644  26.047  16.503 -0.1108 -0.1728  0.2002
 2237POPC   C3A27103  17.792  25.812  16.873 -0.0220 -0.2924  0.2932
 2237POPC   C4A27104  17.945  25.630  17.228 -0.2169  0.0167 -0.1816
 2237POPC   C1B27105  18.197  25.815  15.954 -0.0357 -0.0988  0.0988
 2237POPC   C2B27106  18.073  25.768  16.410 -0.2038  0.1656 -0.0386
 2237POPC   C3B27107  18.356  25.587  16.712  0.1736 -0.0922  0.0202
 2237POPC   C4B27108  18.752  25.622  16.584 -0.2079  0.0751  0.1098
 2238POPC   NC327109   1.515  26.030  15.674  0.1595 -0.1612 -0.3317
 2238POPC   PO427110   1.576  26.308  15.373  0.1579 -0.0459 -0.0738
 2238POPC   GL127111   1.484  26.505  15.782  0.1774 -0.0897  0.3224
 2238POPC   GL227112   1.369  26.776  15.912 -0.0543 -0.3017  0.2248
 2238POPC   C1A27113   1.512  26.468  16.242 -0.0899  0.1034  0.0668
 2238POPC   D2A27114   1.838  26.443  16.625 -0.0812 -0.0103  0.1009
 2238POPC   C3A27115   1.867  26.538  17.067 -0.0629 -0.1424  0.0647
 2238POPC   C4A27116   2.017  26.703  17.457 -0.1703 -0.0649 -0.0165
 2238POPC   C1B27117   1.061  26.678  16.260  0.0825 -0.2702  0.1507
 2238POPC   C2B27118   0.996  26.795  16.719 -0.1922 -0.1093  0.1330
 2238POPC   C3B27119   0.868  26.543  17.093  0.0496  0.2792  0.2198
 2238POPC   C4B27120   0.618  26.604  17.466  0.0088 -0.0098  0.2237
 2239POPC   NC327121  28.943  19.826  14.903 -0.0414  0.2519 -0.0012
 2239POPC   PO427122  29.313  19.877  14.830  0.2125 -0.4155 -0.0886
 2239POPC   GL127123  29.170  19.983  15.276 -0.2852 -0.0137 -0.2154
 2239POPC   GL227124  29.031  20.219  15.321  0.1209 -0.3277  0.0515
 2239POPC   C1A27125  29.325  19.846  15.712 -0.1981 -0.1314  0.0632
 2239POPC   D2A27126  29.382  19.760  16.148  0.1167  0.1336 -0.1525
 2239POPC   C3A27127  29.023  19.638  16.413 -0.1874  0.0914  0.1806
 2239POPC   C4A27128  28.635  19.786  16.646  0.1622  0.3015  0.1527
 2239POPC   C1B27129  28.793  19.826  15.384  0.1643 -0.1234  0.0294
 2239POPC   C2B27130  28.774  19.387  15.360  0.2540  0.0076 -0.0501
 2239POPC   C3B27131  28.987  18.975  15.529  0.1264 -0.2578  0.3549
 2239POPC   C4B27132  28.870  18.634  15.777  0.1643 -0.2205  0.0453
 2240POPC   NC327133  24.814   8.401  15.013  0.5539 -0.1286  0.3890
 2240POPC   PO427134  24.976   8.452  15.360 -0.0381 -0.0645  0.0831
 2240POPC   GL127135  24.815   8.713  15.636 -0.0290  0.1084 -0.1881
 2240POPC   GL227136  24.559   8.572  15.828  0.2108 -0.3170 -0.0931
 2240POPC   C1A27137  24.774   8.928  16.095  0.0554  0.3083 -0.2321
 2240POPC   D2A27138  24.805   8.891  16.595  0.0589 -0.0930 -0.0300
 2240POPC   C3A27139  25.131   8.893  16.878 -0.2789  0.0225  0.2367
 2240POPC   C4A27140  25.265   8.716  17.297 -0.2763 -0.0459  0.1367
 2240POPC   C1B27141  24.621   8.474  16.273  0.0961  0.0917  0.2144
 2240POPC   C2B27142  24.437   8.254  16.602 -0.3545  0.1044  0.0042
 2240POPC   C3B27143  24.035   8.199  16.901 -0.1557  0.0076  0.2570
 2240POPC   C4B27144  23.735   8.431  17.202  0.2576 -0.1180 -0.0412
 2241POPC   NC327145  24.219  21.271  14.825  0.0994 -0.2011 -0.1315
 2241POPC   PO427146  24.214  20.887  14.976 -0.1153 -0.0306  0.0302
 2241POPC   GL127147  24.178  20.997  15.387 -0.2863 -0.0456  0.1341
 2241POPC   GL227148  24.453  21.040  15.509 -0.0299 -0.1412  0.0016
 2241POPC   C1A27149  23.871  21.098  15.715 -0.2264  0.1061  0.0213
 2241POPC   D2A27150  23.451  21.027  15.939 -0.0370 -0.3992  0.0599
 2241POPC   C3A27151  23.373  20.766  16.267 -0.0887 -0.3681 -0.0528
 2241POPC   C4A27152  23.408  20.707  16.740 -0.1167  0.0998 -0.1165
 2241POPC   C1B27153  24.296  20.819  15.903 -0.0863 -0.2642 -0.0319
 2241POPC   C2B27154  24.263  20.660  16.330  0.2418  0.0412  0.0817
 2241POPC   C3B27155  24.347  20.384  16.689  0.0817 -0.1147 -0.0974
 2241POPC   C4B27156  24.273  20.091  17.041  0.1213 -0.0616 -0.0790
 2242POPC   NC327157  30.257   9.188  14.991 -0.1051  0.4541  0.2071
 2242POPC   PO427158  29.904   9.239  15.114 -0.2917  0.0331  0.2767
 2242POPC   GL127159  29.874   9.303  15.525  0.0907  0.0742  0.0487
 2242POPC   GL227160  29.850   9.012  15.576 -0.0818  0.2508 -0.1738
 2242POPC   C1A27161  29.499   9.375  15.812  0.0677 -0.2815 -0.0358
 2242POPC   D2A27162  29.131   9.284  16.073  0.0001 -0.0771  0.0803
 2242POPC   C3A27163  29.264   8.932  16.406  0.2624 -0.1083  0.6258
 2242POPC   C4A27164  29.236   8.776  16.822  0.1642  0.1976  0.0052
 2242POPC   C1B27165  29.742   8.930  16.019 -0.1988 -0.0817 -0.0418
 2242POPC   C2B27166  29.754   8.838  16.443  0.0271 -0.4162 -0.3046
 2242POPC   C3B27167  29.725   8.615  16.846  0.1386  0.0871  0.0576
 2242POPC   C4B27168  29.731   8.250  17.069 -0.0926 -0.1052  0.0524
 2243POPC   NC327169  19.759  19.525  15.624 -0.0103 -0.1882 -0.1852
 2243POPC   PO427170  19.692  19.266  15.335  0.2140 -0.2871  0.1679
 2243POPC   GL127171  19.825  19.106  15.707  0.0925  0.2062  0.2436
 2243POPC   GL227172  20.107  19.071  15.631 -0.1262  0.1846 -0.0141
 2243POPC   C1A27173  19.757  19.055  16.179  0.1508 -0.2543 -0.1544
 2243POPC   D2A27174  19.933  19.109  16.596 -0.4534  0.2312  0.0205
 2243POPC   C3A27175  20.294  19.400  16.437 -0.2664  0.0151  0.2642
 2243POPC   C4A27176  20.693  19.585  16.518  0.2341  0.1659  0.1112
 2243POPC   C1B27177  20.085  18.665  15.946 -0.1394 -0.2510 -0.0599
 2243POPC   C2B27178  19.987  18.624  16.402 -0.2252 -0.0450 -0.2680
 2243POPC   C3B27179  20.056  18.535  16.868 -0.0636  0.0070 -0.0882
 2243POPC   C4B27180  20.165  18.407  17.275 -0.0017 -0.0934  0.1782
 2244POPC   NC327181  26.507  18.080  15.191  0.0824 -0.0725  0.0410
 2244POPC   PO427182  26.547  18.488  15.115  0.0977  0.1113  0.1924
 2244POPC   GL127183  26.590  18.714  15.476  0.3886 -0.3006  0.0031
 2244POPC   GL227184  26.470  18.884  15.760 -0.1257 -0.2314  0.1549
 2244POPC   C1A27185  26.897  18.615  15.820 -0.0056 -0.1570 -0.0753
 2244POPC   D2A27186  27.072  18.432  16.174 -0.2986  0.2007 -0.2788
 2244POPC   C3A27187  27.155  18.327  16.561  0.0290 -0.0379 -0.0158
 2244POPC   C4A27188  27.234  18.302  17.030 -0.0085  0.0506 -0.1459
 2244POPC   C1B27189  26.584  18.745  16.154 -0.2453 -0.1629  0.0115
 2244POPC   C2B27190  26.643  18.512  16.586  0.0165  0.3465  0.0251
 2244POPC   C3B27191  26.662  18.382  17.025 -0.0389  0.1353  0.0828
 2244POPC   C4B27192  26.823  18.387  17.444  0.3615  0.0190  0.0043
 2245POPC   NC327193  29.873  14.334  15.010 -0.0152 -0.1306 -0.1481
 2245POPC   PO427194  29.613  14.645  15.093  0.0484  0.0694 -0.0843
 2245POPC   GL127195  29.508  14.621  15.477  0.3054 -0.0265 -0.0316
 2245POPC   GL227196  29.236  14.620  15.544  0.0036 -0.0073 -0.0483
 2245POPC   C1A27197  29.557  14.579  15.951  0.1545 -0.1391  0.0562
 2245POPC   D2A27198  29.584  14.174  16.205 -0.1141  0.1429  0.1015
 2245POPC   C3A27199  29.331  14.268  16.571 -0.1084 -0.1245 -0.0412
 2245POPC   C4A27200  29.253  14.136  17.003 -0.3317  0.1066  0.2674
 2245POPC   C1B27201  28.895  14.822  15.822 -0.2611  0.0586 -0.1284
 2245POPC   C2B27202  28.686  14.781  16.206  0.0919  0.0536  0.0540
 2245POPC   C3B27203  28.497  14.887  16.647 -0.3790  0.2575  0.3290
 2245POPC   C4B27204  28.190  15.050  16.878 -0.1110 -0.1538 -0.3544
 2246POPC   NC327205  15.212  20.253  15.535  0.1455  0.1072  0.0091
 2246POPC   PO427206  15.543  20.143  15.405 -0.0330  0.0433 -0.4496
 2246POPC   GL127207  15.687  20.176  15.841 -0.0057  0.1783  0.0215
 2246POPC   GL227208  15.389  20.000  15.955  0.0074 -0.1496 -0.0991
 2246POPC   C1A27209  15.611  20.258  16.304  0.3212  0.0969  0.0719
 2246POPC   D2A27210  15.564  20.443  16.721 -0.1684  0.3074 -0.0385
 2246POPC   C3A27211  15.109  20.395  16.904  0.4236  0.0763 -0.1638
 2246POPC   C4A27212  14.793  20.717  16.890  0.2133  0.0195 -0.0121
 2246POPC   C1B27213  15.295  19.802  16.341 -0.4773  0.2332 -0.0431
 2246POPC   C2B27214  15.305  19.816  16.815 -0.0738 -0.1765  0.1183
 2246POPC   C3B27215  15.272  19.813  17.270 -0.0846 -0.2214 -0.4431
 2246POPC   C4B27216  15.430  19.713  17.690  0.3357  0.1084  0.2228
 2247POPC   NC327217  14.668   7.764  15.672 -0.3359  0.0232  0.0205
 2247POPC   PO427218  14.684   8.022  15.399 -0.0870 -0.1917  0.4134
 2247POPC   GL127219  14.665   8.394  15.513  0.0741  0.1070  0.1193
 2247POPC   GL227220  14.936   8.497  15.509 -0.1821  0.1434 -0.0238
 2247POPC   C1A27221  14.760   8.413  15.984  0.1227  0.1028  0.2876
 2247POPC   D2A27222  14.779   8.598  16.410 -0.4126 -0.1091 -0.0257
 2247POPC   C3A27223  15.084   8.959  16.566 -0.1194 -0.3048  0.3075
 2247POPC   C4A27224  15.464   9.179  16.780  0.1043 -0.1670 -0.2002
 2247POPC   C1B27225  14.968   8.808  15.876 -0.1724  0.1326 -0.1768
 2247POPC   C2B27226  14.922   9.213  16.081  0.0505  0.1015 -0.1944
 2247POPC   C3B27227  15.082   9.553  16.369  0.1680  0.1089  0.3633
 2247POPC   C4B27228  15.165   9.989  16.527  0.1748 -0.3120 -0.1086
 2248POPC   NC327229  28.349   3.266  15.438 -0.0979 -0.1349 -0.0513
 2248POPC   PO427230  28.684   3.112  15.538  0.0297  0.1131  0.0311
 2248POPC   GL127231  28.859   2.999  15.879  0.2122 -0.4461 -0.0206
 2248POPC   GL227232  28.906   3.300  15.949  0.2727 -0.1292 -0.4296
 2248POPC   C1A27233  28.784   3.024  16.314 -0.0630  0.2141 -0.1328
 2248POPC   D2A27234  28.748   3.246  16.714  0.1959  0.2581 -0.3484
 2248POPC   C3A27235  29.019   3.638  16.899 -0.1227  0.0162  0.2006
 2248POPC   C4A27236  29.297   3.960  17.099 -0.1163  0.2132  0.1454
 2248POPC   C1B27237  29.105   3.408  16.295  0.1961 -0.0150 -0.1617
 2248POPC   C2B27238  29.227   3.203  16.684 -0.0383  0.0492  0.2749
 2248POPC   C3B27239  29.139   2.758  16.824 -0.2011  0.0526 -0.2111
 2248POPC   C4B27240  29.232   2.376  17.095  0.2314 -0.0539  0.0176
 2249POPC   NC327241   4.134  19.655  14.936 -0.0366 -0.1103  0.0646
 2249POPC   PO427242   4.034  19.291  14.790 -0.1610  0.0619  0.0557
 2249POPC   GL127243   3.999  19.271  15.223 -0.2015 -0.1842 -0.0576
 2249POPC   GL227244   4.031  19.478  15.415  0.1467 -0.0114  0.2319
 2249POPC   C1A27245   3.966  18.899  15.519 -0.2435  0.2277  0.0051
 2249POPC   D2A27246   3.826  18.515  15.780  0.1031  0.0006 -0.1026
 2249POPC   C3A27247   3.501  18.240  15.660  0.0529  0.3201  0.0864
 2249POPC   C4A27248   3.248  17.894  15.657 -0.1802  0.2353 -0.0672
 2249POPC   C1B27249   4.164  19.729  15.802 -0.4327  0.1450  0.0400
 2249POPC   C2B27250   4.388  19.550  16.218 -0.2710  0.3134  0.1774
 2249POPC   C3B27251   4.416  19.446  16.640 -0.3048 -0.0069 -0.3115
 2249POPC   C4B27252   4.080  19.445  16.952  0.0513  0.1436 -0.1177
 2250POPC   NC327253   7.793  21.091  15.008  0.3227 -0.1923  0.1624
 2250POPC   PO427254   7.909  21.091  15.385 -0.3197 -0.0076  0.0235
 2250POPC   GL127255   7.787  21.280  15.663 -0.4946  0.1575  0.1377
 2250POPC   GL227256   8.075  21.267  15.863 -0.0470 -0.0253 -0.0036
 2250POPC   C1A27257   7.697  21.362  16.140  0.2083 -0.2157  0.1622
 2250POPC   D2A27258   7.825  21.380  16.573  0.1257  0.3964 -0.0646
 2250POPC   C3A27259   7.875  21.617  16.950 -0.3360 -0.0490  0.0697
 2250POPC   C4A27260   7.947  21.619  17.374 -0.1731  0.2121  0.1823
 2250POPC   C1B27261   8.326  21.244  16.289 -0.3950 -0.1503 -0.0057
 2250POPC   C2B27262   8.226  21.080  16.715  0.2044 -0.0828  0.1930
 2250POPC   C3B27263   7.936  21.087  17.089 -0.2173  0.1751 -0.2144
 2250POPC   C4B27264   7.905  20.767  17.474 -0.1142  0.0802 -0.1682
 2251POPC   NC327265  25.230  24.776  15.508 -0.3342 -0.0842 -0.1412
 2251POPC   PO427266  25.388  24.679  15.162  0.2611 -0.0578  0.1295
 2251POPC   GL127267  25.108  24.376  15.324  0.2335 -0.2139  0.1246
 2251POPC   GL227268  25.345  24.277  15.500  0.2845  0.3061  0.1878
 2251POPC   C1A27269  24.951  24.238  15.707  0.3395  0.0694 -0.0909
 2251POPC   D2A27270  24.792  24.255  16.158 -0.2870  0.0090  0.1092
 2251POPC   C3A27271  24.829  24.616  16.398  0.1007 -0.1174  0.1986
 2251POPC   C4A27272  24.824  24.744  16.843 -0.0256 -0.0048  0.1386
 2251POPC   C1B27273  25.370  24.348  15.962  0.0894  0.1677 -0.2223
 2251POPC   C2B27274  25.667  24.201  16.297  0.1387  0.1942  0.1126
 2251POPC   C3B27275  25.585  23.955  16.723 -0.0384  0.3004 -0.0837
 2251POPC   C4B27276  25.394  23.600  16.988 -0.1208 -0.1120  0.1897
 2252POPC   NC327277   8.750   8.540  15.740  0.0527  0.0107 -0.1839
 2252POPC   PO427278   8.619   8.397  15.367 -0.0725  0.0553 -0.0301
 2252POPC   GL127279   8.439   8.130  15.451  0.0692 -0.1396 -0.2810
 2252POPC   GL227280   8.463   7.908  15.592 -0.0098  0.2302  0.0063
 2252POPC   C1A27281   8.146   8.204  15.837 -0.2882 -0.0507 -0.1501
 2252POPC   D2A27282   7.941   8.091  16.259 -0.0295 -0.0430  0.1415
 2252POPC   C3A27283   7.860   8.129  16.711  0.0341 -0.3141  0.1710
 2252POPC   C4A27284   7.516   7.954  16.960 -0.1223  0.1139 -0.1388
 2252POPC   C1B27285   8.568   8.032  16.023  0.2735 -0.0639  0.1593
 2252POPC   C2B27286   8.949   8.279  16.179  0.2591  0.3181  0.0254
 2252POPC   C3B27287   9.142   8.331  16.584 -0.0387  0.0081 -0.1706
 2252POPC   C4B27288   9.223   8.636  16.956  0.0189 -0.0742 -0.0053
 2253POPC   NC327289   0.873   2.812  15.034  0.1718  0.1346 -0.0570
 2253POPC   PO427290   0.613   2.489  15.031  0.0624 -0.2691 -0.2721
 2253POPC   GL127291   0.592   2.578  15.447 -0.1658  0.0850  0.4738
 2253POPC   GL227292   0.487   2.809  15.507  0.3364 -0.0911 -0.0197
 2253POPC   C1A27293   0.626   2.300  15.813 -0.2290 -0.3208  0.0652
 2253POPC   D2A27294   1.073   2.139  15.916  0.1020  0.1141  0.3683
 2253POPC   C3A27295   1.205   1.780  16.088 -0.0024 -0.0073 -0.1563
 2253POPC   C4A27296   1.418   1.418  16.242  0.2499  0.3429 -0.3151
 2253POPC   C1B27297   0.451   2.746  15.942 -0.0782 -0.0677 -0.1147
 2253POPC   C2B27298   0.675   2.537  16.282 -0.0162 -0.1723  0.0147
 2253POPC   C3B27299   0.744   2.520  16.722 -0.0283  0.0129  0.0878
 2253POPC   C4B27300   0.965   2.479  17.123 -0.0456 -0.0111  0.0040
 2254POPC   NC327301  19.387   4.691  14.872 -0.0182 -0.1592 -0.0824
 2254POPC   PO427302  19.633   4.871  15.113 -0.1984  0.0279  0.4149
 2254POPC   GL127303  19.543   5.128  15.320  0.3032  0.0655 -0.0059
 2254POPC   GL227304  19.816   5.123  15.540 -0.1196  0.3642 -0.0031
 2254POPC   C1A27305  19.311   5.109  15.717  0.0798  0.0238  0.0529
 2254POPC   D2A27306  19.323   5.208  16.170  0.0905  0.0192  0.2910
 2254POPC   C3A27307  19.634   5.310  16.476  0.2957 -0.2988 -0.1003
 2254POPC   C4A27308  19.975   5.340  16.798 -0.4088  0.3063  0.0098
 2254POPC   C1B27309  19.840   5.264  15.992 -0.2465 -0.0898  0.0572
 2254POPC   C2B27310  20.139   5.436  16.273 -0.0163  0.1043 -0.2420
 2254POPC   C3B27311  20.443   5.338  16.613  0.0804 -0.0862  0.0368
 2254POPC   C4B27312  20.666   5.126  16.935  0.2659  0.1945  0.1831
 2255POPC   NC327313  26.906   8.743  15.667 -0.0975  0.2243  0.3805
 2255POPC   PO427314  26.606   9.024  15.667 -0.1028 -0.0531 -0.1043
 2255POPC   GL127315  26.774   9.331  15.950 -0.3987 -0.0905  0.3353
 2255POPC   GL227316  26.782   9.180  16.095 -0.3173 -0.0965  0.2989
 2255POPC   C1A27317  26.977   9.586  16.279  0.3020 -0.0079 -0.0483
 2255POPC   D2A27318  26.954   9.529  16.747  0.1782 -0.1134 -0.1343
 2255POPC   C3A27319  27.307   9.231  16.896  0.3074  0.1972  0.2389
 2255POPC   C4A27320  27.536   9.312  17.315 -0.2261 -0.0088  0.0744
 2255POPC   C1B27321  27.005   9.131  16.487  0.0757 -0.0352  0.0996
 2255POPC   C2B27322  26.911   8.859  16.859  0.0117  0.2221 -0.0245
 2255POPC   C3B27323  26.753   8.498  17.125 -0.0437 -0.0410  0.0685
 2255POPC   C4B27324  26.848   8.101  17.225  0.0679  0.3410  0.1962
 2256POPC   NC327325  16.406  18.361  15.470  0.1739  0.0208  0.0029
 2256POPC   PO427326  16.673  18.108  15.381  0.0204  0.2172  0.0488
 2256POPC   GL127327  16.639  18.148  15.771 -0.0575  0.0003 -0.0667
 2256POPC   GL227328  16.778  17.942  15.840  0.2612 -0.1269 -0.4378
 2256POPC   C1A27329  16.458  18.459  16.017 -0.3028  0.0731 -0.1696
 2256POPC   D2A27330  16.578  18.709  16.370  0.1332 -0.1298  0.0380
 2256POPC   C3A27331  16.526  18.848  16.784  0.1293 -0.1641 -0.2791
 2256POPC   C4A27332  16.220  18.772  17.105 -0.3309  0.0719  0.0061
 2256POPC   C1B27333  16.783  18.123  16.238  0.2146 -0.1712  0.1370
 2256POPC   C2B27334  16.863  18.342  16.617  0.0086  0.0605  0.1481
 2256POPC   C3B27335  17.069  18.228  16.972 -0.0316 -0.1567  0.2008
 2256POPC   C4B27336  17.516  18.187  17.053  0.0103  0.0036  0.0290
 2257POPC   NC327337   1.382   5.706  15.679  0.0607 -0.1242 -0.0424
 2257POPC   PO427338   1.439   5.348  15.831 -0.0393  0.1400 -0.3386
 2257POPC   GL127339   1.383   5.258  16.240  0.5448  0.3219  0.3060
 2257POPC   GL227340   1.367   4.920  16.363  0.0472  0.1210  0.1128
 2257POPC   C1A27341   1.654   5.354  16.624 -0.1064  0.1474 -0.0500
 2257POPC   D2A27342   1.885   5.297  17.051  0.3248 -0.0590  0.1826
 2257POPC   C3A27343   1.522   5.052  17.313  0.4201  0.2172  0.2373
 2257POPC   C4A27344   1.377   4.986  17.754  0.2439  0.3499  0.1466
 2257POPC   C1B27345   1.363   5.038  16.795 -0.2048 -0.2857  0.1337
 2257POPC   C2B27346   1.234   5.385  17.041  0.0894  0.0038 -0.2731
 2257POPC   C3B27347   1.012   5.731  17.272 -0.3208  0.2816  0.2071
 2257POPC   C4B27348   0.803   6.057  17.579 -0.2334  0.1552  0.0545
 2258POPC   NC327349   1.870  12.067  14.878 -0.0664  0.1827 -0.1301
 2258POPC   PO427350   1.594  11.943  15.112  0.2033 -0.2730 -0.0995
 2258POPC   GL127351   1.570  11.813  15.413 -0.2786  0.0578  0.0571
 2258POPC   GL227352   1.334  11.848  15.586  0.1449  0.2157 -0.0028
 2258POPC   C1A27353   1.860  11.664  15.713 -0.0542 -0.2037 -0.0155
 2258POPC   D2A27354   1.896  11.728  16.158  0.1232 -0.0779 -0.1098
 2258POPC   C3A27355   1.976  12.024  16.552 -0.2279  0.3159 -0.0720
 2258POPC   C4A27356   2.137  12.112  16.963  0.0725  0.0628  0.2396
 2258POPC   C1B27357   1.374  11.730  16.068 -0.1654  0.2994  0.1119
 2258POPC   C2B27358   1.543  11.659  16.491 -0.0541  0.1094  0.0173
 2258POPC   C3B27359   1.676  11.668  16.965 -0.2039 -0.2512  0.3576
 2258POPC   C4B27360   1.652  11.519  17.353  0.1560 -0.0507 -0.1170
 2259POPC   NC327361  18.405  22.152  15.038 -0.0802 -0.1804 -0.1557
 2259POPC   PO427362  18.761  22.344  15.152  0.2242  0.0346 -0.0126
 2259POPC   GL127363  18.532  22.364  15.491 -0.0511 -0.4123 -0.3462
 2259POPC   GL227364  18.413  22.667  15.512 -0.1697 -0.0970 -0.0822
 2259POPC   C1A27365  18.564  22.220  15.909 -0.0527 -0.2562  0.0218
 2259POPC   D2A27366  18.206  22.078  16.172 -0.0512  0.1969 -0.0516
 2259POPC   C3A27367  18.221  21.615  16.028 -0.1539  0.0300 -0.0336
 2259POPC   C4A27368  18.402  21.358  15.717 -0.2355 -0.3158  0.2465
 2259POPC   C1B27369  18.133  22.487  15.794 -0.0303 -0.2080 -0.2930
 2259POPC   C2B27370  17.865  22.428  16.165  0.3121 -0.1666 -0.1384
 2259POPC   C3B27371  17.579  22.320  16.465  0.0127  0.0304  0.0458
 2259POPC   C4B27372  17.410  22.106  16.811 -0.2200  0.1152 -0.2144
 2260POPC   NC327373  31.559   2.712  15.413  0.1099 -0.1727 -0.4760
 2260POPC   PO427374  31.268   2.941  15.465 -0.0607 -0.0820  0.0895
 2260POPC   GL127375  31.047   2.675  15.610  0.2224  0.0534 -0.7403
 2260POPC   GL227376  31.081   2.731  15.899  0.1116 -0.0067  0.2359
 2260POPC   C1A27377  31.286   2.274  15.726 -0.0658 -0.3407 -0.1645
 2260POPC   D2A27378  31.541   2.067  15.990 -0.1218 -0.0911 -0.3821
 2260POPC   C3A27379  31.567   2.122  16.430 -0.1504 -0.1851  0.2453
 2260POPC   C4A27380  31.697   2.542  16.647 -0.1212  0.1362 -0.1262
 2260POPC   C1B27381  31.048   2.348  16.149 -0.0095 -0.2879 -0.1505
 2260POPC   C2B27382  31.086   2.189  16.549 -0.0750 -0.1692 -0.0858
 2260POPC   C3B27383  30.690   2.156  16.822  0.2378 -0.1761 -0.0903
 2260POPC   C4B27384  30.601   2.242  17.286  0.0997 -0.3227 -0.1115
 2261POPC   NC327385  29.287  11.613  15.155 -0.1221 -0.1382 -0.0681
 2261POPC   PO427386  29.260  11.399  15.493 -0.1404 -0.0309 -0.3555
 2261POPC   GL127387  29.286  11.571  15.867 -0.1654 -0.5456  0.4800
 2261POPC   GL227388  29.242  11.310  16.006 -0.0804  0.0009  0.2688
 2261POPC   C1A27389  28.952  11.746  16.101 -0.0792  0.1647  0.1528
 2261POPC   D2A27390  28.734  11.534  16.433 -0.1689  0.1945  0.2369
 2261POPC   C3A27391  28.605  11.428  16.841  0.3343  0.1944  0.2393
 2261POPC   C4A27392  28.261  11.513  17.087 -0.0936  0.2637  0.0043
 2261POPC   C1B27393  29.203  11.396  16.469  0.0403  0.3751  0.0516
 2261POPC   C2B27394  29.118  11.475  16.903 -0.0839 -0.3508 -0.0270
 2261POPC   C3B27395  29.151  11.682  17.322  0.0463  0.1713 -0.5583
 2261POPC   C4B27396  29.497  11.897  17.546 -0.1340 -0.2620 -0.0512
 2262POPC   NC327397  25.641  13.156  15.271 -0.5132 -0.0410  0.0549
 2262POPC   PO427398  25.895  13.328  15.003  0.0547  0.1669 -0.1661
 2262POPC   GL127399  25.894  13.555  15.366 -0.1564  0.2668 -0.0932
 2262POPC   GL227400  25.712  13.575  15.604 -0.0690 -0.0101  0.0584
 2262POPC   C1A27401  26.234  13.725  15.652  0.1896  0.0319  0.1265
 2262POPC   D2A27402  26.596  14.018  15.792  0.1738 -0.1758 -0.0334
 2262POPC   C3A27403  26.500  14.303  16.128  0.0642 -0.0302 -0.0279
 2262POPC   C4A27404  26.498  14.615  16.465 -0.3163  0.2670  0.1093
 2262POPC   C1B27405  25.579  13.277  15.973 -0.0876  0.0408  0.2262
 2262POPC   C2B27406  25.485  13.184  16.380 -0.0748 -0.3232 -0.0196
 2262POPC   C3B27407  25.505  13.049  16.809  0.4009  0.1112  0.1508
 2262POPC   C4B27408  25.222  13.117  17.187 -0.0717  0.1625 -0.0521
 2263POPC   NC327409  27.605   9.068  15.715  0.0542  0.4766  0.0207
 2263POPC   PO427410  27.735   8.869  15.364  0.1113  0.0143  0.2928
 2263POPC   GL127411  27.923   8.680  15.568 -0.1542  0.0080  0.0498
 2263POPC   GL227412  28.104   8.856  15.767  0.2025 -0.0385 -0.0268
 2263POPC   C1A27413  28.125   8.333  15.762  0.1782  0.2530 -0.0835
 2263POPC   D2A27414  28.340   7.966  15.782  0.1779 -0.1749  0.0639
 2263POPC   C3A27415  28.749   7.926  15.506  0.3894 -0.1696  0.0512
 2263POPC   C4A27416  29.004   7.538  15.468  0.1278 -0.4219  0.0480
 2263POPC   C1B27417  28.317   8.657  16.108 -0.0959 -0.0507 -0.5123
 2263POPC   C2B27418  28.427   8.228  16.213  0.0097  0.0549  0.1306
 2263POPC   C3B27419  28.802   8.131  16.470 -0.0385 -0.0804 -0.1127
 2263POPC   C4B27420  29.215   8.217  16.683 -0.1378 -0.0971  0.0430
 2264POPC   NC327421  14.601  30.831  14.471  0.0179  0.0141  0.0003
 2264POPC   PO427422  14.519  30.582  14.783 -0.2100 -0.2649  0.1698
 2264POPC   GL127423  14.561  30.872  15.065  0.0953  0.1552  0.1647
 2264POPC   GL227424  14.649  31.089  14.913 -0.2943 -0.1122  0.2585
 2264POPC   C1A27425  14.485  31.150  15.459 -0.1444  0.3356  0.2521
 2264POPC   D2A27426  14.295  31.325  15.842  0.1556 -0.0635 -0.1180
 2264POPC   C3A27427  14.508  31.625  16.161  0.0770  0.1707 -0.2657
 2264POPC   C4A27428  14.717  31.882  16.463  0.0888 -0.0855  0.0939
 2264POPC   C1B27429  14.526  31.516  15.037  0.0349  0.0851  0.0859
 2264POPC   C2B27430  14.199  31.753  14.955  0.3395 -0.0340 -0.0663
 2264POPC   C3B27431  13.860  32.089  15.104  0.1189 -0.0504  0.0845
 2264POPC   C4B27432  13.531  32.255  14.872 -0.0372 -0.0327 -0.0326
 2265POPC   NC327433   9.244  23.684  14.560 -0.0108  0.1283 -0.2906
 2265POPC   PO427434   9.080  23.505  14.839  0.0902 -0.0086 -0.2415
 2265POPC   GL127435   9.122  23.530  15.260  0.0668 -0.0058 -0.1288
 2265POPC   GL227436   9.100  23.243  15.362 -0.1917  0.0205 -0.2007
 2265POPC   C1A27437   9.320  23.806  15.537 -0.0106 -0.3107 -0.3152
 2265POPC   D2A27438   9.369  24.220  15.689 -0.0828  0.0072  0.0686
 2265POPC   C3A27439   9.211  24.413  16.035  0.0462 -0.1644 -0.1906
 2265POPC   C4A27440   8.879  24.296  16.328  0.0604  0.1780 -0.0862
 2265POPC   C1B27441   9.189  23.364  15.797 -0.0953 -0.1848 -0.0672
 2265POPC   C2B27442   9.052  23.334  16.243 -0.1331 -0.2912  0.2064
 2265POPC   C3B27443   8.875  23.512  16.596 -0.0652  0.1180 -0.0438
 2265POPC   C4B27444   8.810  23.545  17.074 -0.2893 -0.3120  0.2395
 2266POPC   NC327445  22.542  21.548  15.450  0.0944  0.0043  0.0408
 2266POPC   PO427446  22.498  21.863  15.227  0.1816  0.1905 -0.1196
 2266POPC   GL127447  22.608  22.057  15.560 -0.0421 -0.4255 -0.0480
 2266POPC   GL227448  22.867  22.198  15.324 -0.0128  0.0025 -0.0220
 2266POPC   C1A27449  22.461  22.154  16.029 -0.0757 -0.1729  0.1424
 2266POPC   D2A27450  22.470  22.217  16.480  0.0082 -0.0091 -0.1959
 2266POPC   C3A27451  22.490  21.906  16.795 -0.0742  0.2460  0.2993
 2266POPC   C4A27452  22.186  21.792  17.196  0.1051  0.0732 -0.1556
 2266POPC   C1B27453  22.896  22.290  15.807  0.0084 -0.1181  0.0377
 2266POPC   C2B27454  22.906  22.489  16.259 -0.1837 -0.2199  0.2971
 2266POPC   C3B27455  22.965  22.616  16.668  0.1231 -0.4062  0.0335
 2266POPC   C4B27456  23.286  22.606  17.000 -0.1171  0.0875 -0.2327
 2267POPC   NC327457  27.925   7.980  14.782  0.0185 -0.1100 -0.2487
 2267POPC   PO427458  27.624   7.712  14.768  0.3230  0.3538  0.2164
 2267POPC   GL127459  27.877   7.422  14.905  0.0901 -0.3205  0.2927
 2267POPC   GL227460  28.134   7.597  15.089 -0.0845  0.1574  0.1042
 2267POPC   C1A27461  28.230   7.137  15.075 -0.2864 -0.0641  0.1438
 2267POPC   D2A27462  28.645   6.913  14.887 -0.0892  0.2756  0.0372
 2267POPC   C3A27463  29.039   6.846  15.044  0.1372 -0.0151 -0.3756
 2267POPC   C4A27464  29.398   6.738  15.296  0.1406 -0.0174  0.0463
 2267POPC   C1B27465  28.392   7.577  15.454  0.0915  0.0513  0.1718
 2267POPC   C2B27466  28.591   7.466  15.846 -0.0911  0.0179 -0.2033
 2267POPC   C3B27467  29.011   7.472  16.075  0.2395  0.0062 -0.1651
 2267POPC   C4B27468  29.164   7.784  16.363 -0.0092 -0.1397  0.1532
 2268POPC   NC327469  23.193   6.457  14.853  0.0187  0.0504 -0.2545
 2268POPC   PO427470  23.427   6.749  14.900 -0.0373  0.3223 -0.0142
 2268POPC   GL127471  23.326   6.856  15.251 -0.0120  0.0285 -0.1327
 2268POPC   GL227472  23.069   6.832  15.246 -0.1304 -0.1377  0.3232
 2268POPC   C1A27473  23.486   7.057  15.663 -0.1086  0.0318  0.2303
 2268POPC   D2A27474  23.767   6.991  16.017 -0.4070 -0.3060  0.0461
 2268POPC   C3A27475  23.798   7.321  16.335  0.0603  0.2686 -0.1776
 2268POPC   C4A27476  23.850   7.727  16.544 -0.0314 -0.0091 -0.1739
 2268POPC   C1B27477  22.968   6.842  15.686  0.3339  0.1853  0.0931
 2268POPC   C2B27478  22.796   6.665  16.089 -0.1874 -0.2010  0.2439
 2268POPC   C3B27479  22.886   6.616  16.551 -0.0605  0.1824  0.0743
 2268POPC   C4B27480  23.102   6.793  16.917 -0.0494 -0.0183  0.1869
 2269POPC   NC327481   7.680   9.051  14.994 -0.1732 -0.4667 -0.0287
 2269POPC   PO427482   7.765   8.664  15.041  0.2925 -0.3553  0.1174
 2269POPC   GL127483   7.763   8.826  15.444 -0.3113 -0.0852 -0.2828
 2269POPC   GL227484   7.919   9.037  15.417 -0.1601 -0.0533 -0.1525
 2269POPC   C1A27485   7.313   8.731  15.578 -0.0058  0.1662  0.0260
 2269POPC   D2A27486   7.214   8.546  15.982 -0.0230 -0.1418 -0.0664
 2269POPC   C3A27487   6.952   8.547  16.337  0.1020  0.0371  0.2391
 2269POPC   C4A27488   6.897   8.680  16.802  0.1878 -0.1716 -0.0891
 2269POPC   C1B27489   7.978   9.125  15.809 -0.0636  0.2226 -0.3374
 2269POPC   C2B27490   8.127   9.176  16.256  0.2724  0.0363 -0.0309
 2269POPC   C3B27491   8.201   9.282  16.699  0.0995  0.0112  0.1396
 2269POPC   C4B27492   8.498   9.571  16.849 -0.1310  0.0255 -0.1894
 2270POPC   NC327493  21.546  23.074  15.067 -0.2679 -0.1619  0.0872
 2270POPC   PO427494  21.619  23.460  15.162  0.0690 -0.1856 -0.0991
 2270POPC   GL127495  21.431  23.411  15.540 -0.4910 -0.0366  0.0383
 2270POPC   GL227496  21.331  23.176  15.501  0.0896  0.1338  0.0760
 2270POPC   C1A27497  21.217  23.525  15.939 -0.0708  0.3030 -0.0276
 2270POPC   D2A27498  20.959  23.484  16.275  0.0562  0.0153 -0.1345
 2270POPC   C3A27499  20.798  23.217  16.609  0.0648 -0.1725 -0.2781
 2270POPC   C4A27500  20.633  22.833  16.805 -0.0203 -0.1170 -0.1778
 2270POPC   C1B27501  21.563  23.108  15.873  0.2139 -0.2850 -0.2113
 2270POPC   C2B27502  21.739  23.229  16.272 -0.1491 -0.0952  0.2774
 2270POPC   C3B27503  21.889  23.315  16.694  0.1347  0.1800 -0.5188
 2270POPC   C4B27504  22.094  23.458  17.131 -0.4680  0.0543  0.1598
 2271POPC   NC327505  28.544  15.181  15.141  0.1974  0.0820 -0.0672
 2271POPC   PO427506  28.221  15.293  14.869 -0.1070 -0.2653 -0.0800
 2271POPC   GL127507  28.058  15.498  15.249  0.1172 -0.0559 -0.2863
 2271POPC   GL227508  27.862  15.696  15.301  0.1118  0.4315 -0.1180
 2271POPC   C1A27509  27.987  15.352  15.691  0.0646 -0.1266  0.1993
 2271POPC   D2A27510  28.010  15.045  16.015  0.1192 -0.0697  0.1651
 2271POPC   C3A27511  28.157  15.220  16.449  0.0247  0.0975 -0.4896
 2271POPC   C4A27512  28.430  15.463  16.646  0.2124 -0.1391  0.0204
 2271POPC   C1B27513  27.778  15.791  15.748  0.1035 -0.2012 -0.1108
 2271POPC   C2B27514  27.410  15.919  16.108  0.1908 -0.2865  0.2574
 2271POPC   C3B27515  27.285  15.805  16.542  0.0144  0.0543  0.0718
 2271POPC   C4B27516  27.241  16.031  16.939  0.3755  0.2336  0.3251
 2272POPC   NC327517   3.701   2.002  15.048  0.0437  0.0533  0.1765
 2272POPC   PO427518   3.579   2.171  15.351 -0.0620  0.1314  0.2832
 2272POPC   GL127519   3.375   2.408  15.602  0.1972  0.0500 -0.2571
 2272POPC   GL227520   3.177   2.618  15.592  0.0897 -0.3724 -0.2983
 2272POPC   C1A27521   3.231   2.294  16.023  0.0769  0.0970  0.0811
 2272POPC   D2A27522   3.291   2.311  16.495  0.2471 -0.2030  0.0293
 2272POPC   C3A27523   3.572   2.569  16.716 -0.0112 -0.0072 -0.2052
 2272POPC   C4A27524   3.642   2.903  16.966  0.0844 -0.2707 -0.1608
 2272POPC   C1B27525   2.822   2.687  15.803  0.0760  0.0033  0.2196
 2272POPC   C2B27526   2.624   2.716  16.247  0.0952  0.1390  0.1501
 2272POPC   C3B27527   2.467   2.512  16.700 -0.1197 -0.2453  0.1302
 2272POPC   C4B27528   2.396   2.162  17.016  0.3118 -0.1834 -0.0075
 2273POPC   NC327529  17.514  15.577  15.110  0.1520 -0.1712 -0.0754
 2273POPC   PO427530  17.811  15.289  14.966  0.0156  0.0030 -0.0062
 2273POPC   GL127531  17.970  15.341  15.273 -0.3153  0.1895  0.1173
 2273POPC   GL227532  17.866  15.378  15.553 -0.3162  0.3471  0.1346
 2273POPC   C1A27533  18.306  15.560  15.491  0.2917 -0.3334 -0.1104
 2273POPC   D2A27534  18.593  15.828  15.796  0.0265  0.0491 -0.1226
 2273POPC   C3A27535  18.778  15.771  16.207 -0.1035  0.0931  0.0545
 2273POPC   C4A27536  19.083  15.549  16.500 -0.1091  0.1091  0.0171
 2273POPC   C1B27537  18.235  15.249  15.840  0.0588 -0.0798  0.2357
 2273POPC   C2B27538  18.665  15.222  15.737 -0.1151  0.0380  0.1995
 2273POPC   C3B27539  19.028  15.076  15.561  0.1479  0.1237  0.3513
 2273POPC   C4B27540  19.476  15.061  15.481  0.4129  0.0526 -0.0844
 2274POPC   NC327541   4.139  20.707  15.884 -0.0010  0.0586  0.0785
 2274POPC   PO427542   3.868  20.973  15.770  0.2499  0.0097 -0.1935
 2274POPC   GL127543   3.742  21.021  16.160 -0.0835 -0.1278 -0.4951
 2274POPC   GL227544   3.742  21.322  16.166  0.1736  0.0960 -0.0023
 2274POPC   C1A27545   3.517  20.887  16.538  0.0513  0.1936  0.0282
 2274POPC   D2A27546   3.446  20.466  16.753 -0.0075  0.0218 -0.1214
 2274POPC   C3A27547   2.980  20.288  16.864 -0.1421 -0.1971  0.0869
 2274POPC   C4A27548   2.775  19.927  17.065 -0.0968 -0.3063  0.0661
 2274POPC   C1B27549   3.734  21.357  16.636  0.2743  0.0330 -0.3353
 2274POPC   C2B27550   3.918  21.288  17.071  0.2171  0.0667  0.1582
 2274POPC   C3B27551   4.285  21.512  17.189  0.0636  0.1873 -0.1671
 2274POPC   C4B27552   4.595  21.863  17.154  0.1080 -0.0627  0.0094
 2275POPC   NC327553  28.249  20.998  15.009  0.2359  0.1304  0.1585
 2275POPC   PO427554  28.616  21.061  14.921  0.0435 -0.4019  0.2403
 2275POPC   GL127555  28.683  20.936  15.303  0.0421 -0.2732 -0.2550
 2275POPC   GL227556  28.524  21.154  15.438  0.4500 -0.1364  0.0671
 2275POPC   C1A27557  28.760  20.582  15.559  0.1806  0.1332  0.0060
 2275POPC   D2A27558  28.726  20.187  15.810 -0.2560 -0.1326  0.3989
 2275POPC   C3A27559  28.594  20.131  16.254 -0.2307  0.2302  0.1253
 2275POPC   C4A27560  28.188  20.085  16.520  0.1432  0.1386  0.3007
 2275POPC   C1B27561  28.834  21.132  15.749  0.2930  0.1293 -0.1570
 2275POPC   C2B27562  29.084  21.279  16.093 -0.0830  0.2534  0.0247
 2275POPC   C3B27563  29.196  21.618  16.410 -0.2992  0.1824 -0.0363
 2275POPC   C4B27564  29.015  21.804  16.803  0.1511 -0.0173 -0.0341
 2276POPC   NC327565  14.791  27.767  15.698  0.3883  0.0183  0.1955
 2276POPC   PO427566  15.059  27.545  15.513  0.3341  0.0187  0.3304
 2276POPC   GL127567  15.254  27.481  15.835  0.1924 -0.1807  0.0382
 2276POPC   GL227568  15.072  27.517  16.014 -0.0083 -0.1182  0.2248
 2276POPC   C1A27569  15.501  27.460  16.196 -0.0023 -0.1237  0.0327
 2276POPC   D2A27570  15.460  27.338  16.588  0.1656 -0.1078  0.1256
 2276POPC   C3A27571  15.335  27.558  17.002  0.0744  0.2067 -0.1711
 2276POPC   C4A27572  14.965  27.452  17.289 -0.1725  0.3828 -0.0909
 2276POPC   C1B27573  14.620  27.684  16.171 -0.2690 -0.1481  0.0579
 2276POPC   C2B27574  14.405  27.625  16.575 -0.1117 -0.0690  0.1618
 2276POPC   C3B27575  14.274  27.780  16.977  0.3694  0.1328  0.0496
 2276POPC   C4B27576  13.865  27.778  17.217  0.1738 -0.0711  0.3075
 2277POPC   NC327577   9.130   6.574  15.287 -0.2318  0.2475  0.3771
 2277POPC   PO427578   8.831   6.361  15.117 -0.1050  0.1586  0.4893
 2277POPC   GL127579   8.900   6.157  15.488 -0.0687  0.2965 -0.1120
 2277POPC   GL227580   8.843   5.863  15.630  0.2451  0.0489 -0.0635
 2277POPC   C1A27581   8.639   6.338  15.828  0.0681 -0.0465  0.1268
 2277POPC   D2A27582   8.276   6.500  16.120 -0.3366  0.2319 -0.0967
 2277POPC   C3A27583   8.104   6.359  16.588  0.0226 -0.0612  0.2476
 2277POPC   C4A27584   8.213   5.930  16.835  0.1629 -0.1317 -0.0151
 2277POPC   C1B27585   8.854   5.568  15.994 -0.1015 -0.2601 -0.1616
 2277POPC   C2B27586   9.003   5.396  16.428  0.2579 -0.1432  0.1799
 2277POPC   C3B27587   9.053   5.637  16.837 -0.2622 -0.1383  0.1404
 2277POPC   C4B27588   9.037   5.684  17.290 -0.0871 -0.0774 -0.3159
 2278POPC   NC327589  24.217  14.581  15.500  0.1717 -0.0251  0.0703
 2278POPC   PO427590  24.180  14.212  15.326  0.1344 -0.0643 -0.2215
 2278POPC   GL127591  23.974  14.138  15.627 -0.0416 -0.3246 -0.2094
 2278POPC   GL227592  23.899  13.864  15.682 -0.0824 -0.2940  0.3774
 2278POPC   C1A27593  24.229  14.182  16.045 -0.2597  0.3868  0.2404
 2278POPC   D2A27594  24.458  14.209  16.427  0.1304 -0.0789  0.1577
 2278POPC   C3A27595  24.419  14.110  16.847  0.2866 -0.1817 -0.2244
 2278POPC   C4A27596  24.621  14.070  17.257  0.1552  0.2410 -0.1854
 2278POPC   C1B27597  23.824  13.941  16.155 -0.1514  0.1877 -0.2306
 2278POPC   C2B27598  23.725  14.096  16.583 -0.0682  0.2488  0.0795
 2278POPC   C3B27599  23.545  14.004  16.989 -0.2818  0.1174  0.2349
 2278POPC   C4B27600  23.459  13.825  17.427  0.2245  0.1499 -0.1036
 2279POPC   NC327601  19.352   5.385  14.989 -0.0531 -0.0241 -0.1576
 2279POPC   PO427602  19.468   5.749  15.134 -0.1213 -0.0026  0.1678
 2279POPC   GL127603  19.685   5.851  15.441  0.1654 -0.2344  0.0314
 2279POPC   GL227604  19.657   6.039  15.704 -0.0353  0.1387 -0.4576
 2279POPC   C1A27605  19.945   5.628  15.677  0.2332 -0.3735 -0.0587
 2279POPC   D2A27606  20.380   5.634  15.853  0.6598  0.0961  0.2036
 2279POPC   C3A27607  20.625   5.646  16.207  0.0891 -0.1627  0.2369
 2279POPC   C4A27608  20.867   5.879  16.497  0.0072 -0.0233 -0.0725
 2279POPC   C1B27609  19.369   6.092  16.093 -0.0853  0.0472  0.2906
 2279POPC   C2B27610  19.334   5.965  16.495 -0.0359  0.2516 -0.0091
 2279POPC   C3B27611  19.376   5.815  16.921  0.5089 -0.0026  0.0396
 2279POPC   C4B27612  19.560   5.509  17.160 -0.2772 -0.0969  0.0512
 2280POPC   NC327613  15.536   4.024  15.232  0.0311  0.0585 -0.1478
 2280POPC   PO427614  15.307   3.697  15.292 -0.1499 -0.0626 -0.2669
 2280POPC   GL127615  15.339   3.707  15.715  0.1807  0.3475 -0.0907
 2280POPC   GL227616  15.092   3.874  15.755  0.1753 -0.0575  0.1708
 2280POPC   C1A27617  15.373   3.836  16.179  0.1489  0.1963 -0.1616
 2280POPC   D2A27618  15.677   3.855  16.583  0.0106 -0.1857 -0.0417
 2280POPC   C3A27619  15.647   3.928  17.044 -0.0832 -0.0209  0.1072
 2280POPC   C4A27620  15.231   4.003  17.214  0.0163 -0.2959 -0.0717
 2280POPC   C1B27621  15.060   3.500  16.088  0.3014 -0.1161 -0.1873
 2280POPC   C2B27622  15.028   3.596  16.547 -0.0829 -0.4709 -0.0320
 2280POPC   C3B27623  15.181   3.576  16.945  0.2235 -0.3059  0.1033
 2280POPC   C4B27624  15.362   3.493  17.360  0.0858  0.1506 -0.1129
 2281POPC   NC327625  22.629   0.706  14.872 -0.0444 -0.1942  0.2603
 2281POPC   PO427626  22.365   0.410  14.889  0.1127  0.0427  0.0191
 2281POPC   GL127627  22.318   0.767  15.182  0.2130  0.0466 -0.2035
 2281POPC   GL227628  22.181   1.008  15.045  0.0238  0.0523 -0.0390
 2281POPC   C1A27629  22.154   0.869  15.597  0.0404  0.0721 -0.0595
 2281POPC   D2A27630  21.865   1.035  15.897 -0.3701 -0.0609  0.3231
 2281POPC   C3A27631  21.555   1.210  16.218 -0.1209  0.2700  0.0172
 2281POPC   C4A27632  21.445   1.619  16.359  0.1235 -0.2237  0.1691
 2281POPC   C1B27633  22.043   1.342  15.250  0.2317 -0.0274  0.0334
 2281POPC   C2B27634  21.633   1.493  15.313 -0.2405 -0.0065 -0.2552
 2281POPC   C3B27635  21.247   1.611  15.500 -0.1317  0.2516 -0.0219
 2281POPC   C4B27636  20.822   1.711  15.669 -0.3095  0.1425 -0.2978
 2282POPC   NC327637   3.777  31.671  14.909  0.2892 -0.2926  0.1613
 2282POPC   PO427638   3.922  31.960  15.152  0.1046  0.0054 -0.0692
 2282POPC   GL127639   3.769  31.987  15.559 -0.2198 -0.2579  0.2352
 2282POPC   GL227640   4.041  31.941  15.672  0.0018  0.3170  0.0034
 2282POPC   C1A27641   3.659  32.137  15.947  0.2569 -0.0318 -0.1504
 2282POPC   D2A27642   3.282  32.089  16.195 -0.4192  0.0312 -0.1301
 2282POPC   C3A27643   3.076  31.722  16.071  0.1193  0.2743  0.4064
 2282POPC   C4A27644   2.986  31.536  15.692  0.0775  0.0205 -0.0633
 2282POPC   C1B27645   3.900  31.742  16.062  0.0955  0.2062 -0.1009
 2282POPC   C2B27646   3.574  31.705  16.406 -0.0575 -0.0523  0.4118
 2282POPC   C3B27647   3.399  31.664  16.842  0.0159 -0.0990 -0.1003
 2282POPC   C4B27648   3.581  31.488  17.193 -0.4705 -0.3671  0.2091
 2283POPC   NC327649   9.366   3.584  15.493 -0.1404  0.0718 -0.0441
 2283POPC   PO427650   9.733   3.516  15.590  0.0479  0.1555  0.0539
 2283POPC   GL127651   9.892   3.682  15.892  0.0635 -0.0757 -0.1024
 2283POPC   GL227652   9.633   3.760  16.037  0.0159 -0.0183  0.2418
 2283POPC   C1A27653  10.102   3.437  16.228  0.1153 -0.1137 -0.2113
 2283POPC   D2A27654  10.036   3.322  16.688  0.0086  0.1708  0.0995
 2283POPC   C3A27655  10.396   3.435  16.926 -0.3927 -0.2471 -0.2686
 2283POPC   C4A27656  10.832   3.587  16.944 -0.3121 -0.0965 -0.0726
 2283POPC   C1B27657   9.761   3.792  16.542  0.2361  0.0980 -0.0801
 2283POPC   C2B27658   9.751   3.681  17.034  0.1966  0.1571 -0.1499
 2283POPC   C3B27659   9.883   3.695  17.457  0.0675 -0.4193  0.1604
 2283POPC   C4B27660  10.119   3.841  17.850 -0.3363  0.0250 -0.1091
 2284POPC   NC327661  19.843   4.404  15.200 -0.2907  0.0139  0.0203
 2284POPC   PO427662  19.604   4.207  14.975  0.0402  0.1689 -0.0421
 2284POPC   GL127663  19.736   3.990  15.366  0.5435  0.2427  0.1922
 2284POPC   GL227664  19.957   3.897  15.242  0.1985  0.2279  0.3302
 2284POPC   C1A27665  19.912   3.830  15.750  0.1078 -0.5137 -0.1895
 2284POPC   D2A27666  20.114   3.906  16.208 -0.0241 -0.0870  0.3635
 2284POPC   C3A27667  20.414   3.578  16.374 -0.0538 -0.1012 -0.0532
 2284POPC   C4A27668  20.532   3.488  16.820  0.1134 -0.0597 -0.2351
 2284POPC   C1B27669  20.196   4.147  15.493  0.1033 -0.0491 -0.1559
 2284POPC   C2B27670  20.197   4.360  15.939  0.0072  0.0766  0.1367
 2284POPC   C3B27671  20.376   4.429  16.320  0.1230 -0.1476 -0.0011
 2284POPC   C4B27672  20.529   4.758  16.649  0.1410  0.0096 -0.0412
 2285POPC   NC327673   7.826  17.590  15.095 -0.0597 -0.2081 -0.2980
 2285POPC   PO427674   7.660  17.924  15.042  0.3289 -0.1715 -0.0503
 2285POPC   GL127675   7.558  17.920  15.412 -0.2446 -0.3548 -0.3674
 2285POPC   GL227676   7.444  17.663  15.463 -0.0716 -0.2585  0.0179
 2285POPC   C1A27677   7.517  18.198  15.832 -0.0616  0.0548 -0.0301
 2285POPC   D2A27678   7.228  18.235  16.203  0.1955  0.0362  0.0663
 2285POPC   C3A27679   7.299  18.282  16.652 -0.2539 -0.3023 -0.2103
 2285POPC   C4A27680   7.007  18.191  17.001  0.1029 -0.0458 -0.1647
 2285POPC   C1B27681   7.777  17.735  15.779 -0.2706  0.1022 -0.1176
 2285POPC   C2B27682   7.787  17.917  16.232 -0.2027  0.1331 -0.0016
 2285POPC   C3B27683   7.806  18.050  16.624 -0.1799  0.0902 -0.1586
 2285POPC   C4B27684   7.609  18.162  17.073 -0.0162  0.2000  0.0311
 2286POPC   NC327685  24.411  24.786  14.817  0.0850  0.0855 -0.1043
 2286POPC   PO427686  24.066  24.833  15.010  0.0556  0.1665 -0.2478
 2286POPC   GL127687  24.173  24.983  15.373  0.1806 -0.1728 -0.1093
 2286POPC   GL227688  24.445  24.966  15.394 -0.0959 -0.1891  0.1772
 2286POPC   C1A27689  24.217  24.837  15.800  0.1191  0.1255  0.1536
 2286POPC   D2A27690  24.456  24.555  16.006  0.1444 -0.0479  0.5661
 2286POPC   C3A27691  24.355  24.305  16.383  0.0239 -0.1211 -0.3450
 2286POPC   C4A27692  24.530  24.211  16.737 -0.0151 -0.1364 -0.0665
 2286POPC   C1B27693  24.761  24.767  15.703 -0.1322 -0.0241 -0.1188
 2286POPC   C2B27694  25.074  24.899  15.999 -0.0309 -0.1140 -0.1458
 2286POPC   C3B27695  25.262  24.872  16.417 -0.1875  0.0548 -0.0127
 2286POPC   C4B27696  25.341  24.668  16.845  0.1469 -0.0839  0.0343
 2287POPC   NC327697   2.615  23.070  14.685 -0.0073  0.3886  0.1707
 2287POPC   PO427698   2.624  23.239  14.983 -0.0261 -0.0839  0.0042
 2287POPC   GL127699   2.454  23.279  15.422  0.0867  0.0450  0.0772
 2287POPC   GL227700   2.267  23.099  15.338  0.1548 -0.2021  0.1992
 2287POPC   C1A27701   2.692  23.383  15.830 -0.1670 -0.1979 -0.4292
 2287POPC   D2A27702   2.675  23.365  16.258  0.0425 -0.1220  0.1404
 2287POPC   C3A27703   2.464  23.071  16.509 -0.2344  0.0670  0.0947
 2287POPC   C4A27704   2.213  23.122  16.879 -0.1622 -0.1205 -0.1294
 2287POPC   C1B27705   2.194  23.163  15.805  0.0054 -0.0917  0.2799
 2287POPC   C2B27706   2.015  23.222  16.265  0.0924 -0.0873  0.0685
 2287POPC   C3B27707   1.714  23.164  16.585 -0.2061  0.1142  0.1755
 2287POPC   C4B27708   1.479  22.954  16.855 -0.1773  0.0419 -0.0529
 2288POPC   NC327709   5.834   4.313  15.039 -0.2784 -0.1673 -0.0821
 2288POPC   PO427710   5.455   4.211  15.157  0.0897 -0.2589  0.1621
 2288POPC   GL127711   5.646   4.473  15.447  0.0780  0.2593  0.1591
 2288POPC   GL227712   5.425   4.599  15.550  0.0293 -0.3216  0.1882
 2288POPC   C1A27713   5.816   4.606  15.783 -0.0791 -0.0992 -0.1351
 2288POPC   D2A27714   6.210   4.699  16.051  0.1785  0.2135  0.3763
 2288POPC   C3A27715   6.589   4.824  15.784  0.0151  0.1307  0.2339
 2288POPC   C4A27716   6.943   4.818  15.481  0.3105 -0.2793 -0.1896
 2288POPC   C1B27717   5.381   4.829  15.951  0.1778  0.0552  0.0698
 2288POPC   C2B27718   5.349   4.707  16.366  0.0427  0.1291  0.0060
 2288POPC   C3B27719   5.447   4.462  16.748 -0.0647  0.1749  0.1895
 2288POPC   C4B27720   5.288   4.328  17.106  0.1637  0.1302  0.1671
 2289POPC   NC327721  26.904   1.802  14.547  0.1155  0.2417  0.1602
 2289POPC   PO427722  26.961   1.936  14.900 -0.1448  0.0140 -0.1557
 2289POPC   GL127723  26.870   2.120  15.304  0.3211 -0.0980  0.3277
 2289POPC   GL227724  26.643   2.307  15.427  0.0601 -0.3087  0.0845
 2289POPC   C1A27725  27.049   1.979  15.732 -0.0503 -0.1218 -0.1439
 2289POPC   D2A27726  27.174   1.649  16.089  0.0594 -0.2105  0.2229
 2289POPC   C3A27727  27.617   1.584  16.075 -0.0097  0.1053  0.4601
 2289POPC   C4A27728  28.042   1.440  15.946  0.1493 -0.1169  0.0796
 2289POPC   C1B27729  26.590   2.244  15.870  0.1104  0.0383 -0.2568
 2289POPC   C2B27730  26.786   2.173  16.253  0.2266 -0.0895  0.3340
 2289POPC   C3B27731  26.775   2.170  16.687 -0.1977 -0.0583  0.0870
 2289POPC   C4B27732  26.967   2.069  17.135  0.1025  0.0489  0.0327
 2290POPC   NC327733   0.062  28.136  15.580 -0.0610 -0.0200 -0.1211
 2290POPC   PO427734   0.107  27.756  15.478 -0.1493 -0.1103  0.2084
 2290POPC   GL127735   0.097  27.793  15.933 -0.2047  0.2533 -0.0631
 2290POPC   GL227736  -0.128  27.976  16.010 -0.2646 -0.2659 -0.2370
 2290POPC   C1A27737  -0.040  27.574  16.337  0.2147  0.1606  0.1095
 2290POPC   D2A27738   0.205  27.303  16.588 -0.1735 -0.0755  0.1556
 2290POPC   C3A27739   0.038  26.898  16.613  0.2365 -0.0517 -0.0749
 2290POPC   C4A27740  -0.041  26.480  16.707  0.0773  0.0587 -0.2288
 2290POPC   C1B27741  -0.252  28.137  16.423  0.2553 -0.1184  0.3904
 2290POPC   C2B27742  -0.441  28.128  16.833 -0.1814 -0.2286  0.0810
 2290POPC   C3B27743  -0.608  28.240  17.307 -0.1501  0.0701  0.0700
 2290POPC   C4B27744  -0.860  28.316  17.669 -0.0502 -0.1625  0.0270
 2291POPC   NC327745  29.597  18.115  15.417 -0.0419 -0.2736  0.1862
 2291POPC   PO427746  29.370  17.862  15.195  0.1986  0.1011 -0.1049
 2291POPC   GL127747  29.149  17.911  15.579  0.2913 -0.0052  0.1626
 2291POPC   GL227748  29.046  18.156  15.550  0.0396  0.1323  0.2295
 2291POPC   C1A27749  28.908  17.873  15.963 -0.1174  0.1305 -0.0926
 2291POPC   D2A27750  28.478  17.918  16.229  0.0265 -0.0927  0.4550
 2291POPC   C3A27751  28.486  18.065  16.680 -0.2574  0.0515  0.1616
 2291POPC   C4A27752  28.619  18.343  17.014 -0.1982 -0.1615 -0.0890
 2291POPC   C1B27753  29.257  18.284  15.935  0.3827  0.2490  0.0100
 2291POPC   C2B27754  29.158  18.126  16.334 -0.1946 -0.3029 -0.0989
 2291POPC   C3B27755  28.899  18.437  16.631  0.1379  0.4980  0.4165
 2291POPC   C4B27756  28.615  18.744  16.421 -0.0590  0.1262 -0.1557
 2292POPC   NC327757  25.603  23.296  14.735  0.2263 -0.1030  0.3024
 2292POPC   PO427758  25.335  23.451  15.056 -0.0006  0.0442  0.0119
 2292POPC   GL127759  25.211  23.197  15.291  0.4178  0.1561  0.1754
 2292POPC   GL227760  25.096  22.968  15.269  0.1968  0.0304  0.1601
 2292POPC   C1A27761  25.077  23.385  15.734  0.1068 -0.2987  0.0971
 2292POPC   D2A27762  25.006  23.360  16.167  0.1933  0.2861  0.0340
 2292POPC   C3A27763  24.709  23.582  16.322  0.1143  0.2871 -0.0320
 2292POPC   C4A27764  24.333  23.710  16.542  0.0517 -0.1035  0.1901
 2292POPC   C1B27765  24.690  23.135  15.491  0.0922  0.1068  0.2211
 2292POPC   C2B27766  24.586  23.273  15.885 -0.1524 -0.1332 -0.1030
 2292POPC   C3B27767  24.358  23.202  16.291  0.3421 -0.2192 -0.1402
 2292POPC   C4B27768  24.139  23.162  16.685 -0.1203  0.1085 -0.2908
 2293POPC   NC327769   8.263   7.298  14.421 -0.3455  0.3630  0.3990
 2293POPC   PO427770   8.101   7.346  14.783 -0.1005 -0.1499 -0.2163
 2293POPC   GL127771   8.085   7.293  15.202  0.0214 -0.0176 -0.0088
 2293POPC   GL227772   8.178   7.056  15.255  0.2842  0.0588 -0.0090
 2293POPC   C1A27773   8.113   7.567  15.638 -0.0605  0.1438 -0.0283
 2293POPC   D2A27774   8.083   7.688  16.115 -0.0264  0.1641  0.0712
 2293POPC   C3A27775   8.313   7.832  16.487 -0.0293  0.0883 -0.0898
 2293POPC   C4A27776   8.388   7.868  16.963  0.1775 -0.3131  0.0680
 2293POPC   C1B27777   7.944   7.114  15.720  0.0036 -0.2054 -0.0445
 2293POPC   C2B27778   8.038   7.001  16.127  0.4187  0.0725  0.1794
 2293POPC   C3B27779   8.265   6.900  16.528  0.0692 -0.0530  0.0603
 2293POPC   C4B27780   8.278   6.640  16.920 -0.2885 -0.0874 -0.0659
 2294POPC   NC327781  27.374   5.666  14.940 -0.1888 -0.1562 -0.1102
 2294POPC   PO427782  27.493   5.783  14.596  0.0392 -0.2343  0.1866
 2294POPC   GL127783  27.937   5.702  14.717 -0.1484 -0.5077  0.0899
 2294POPC   GL227784  27.891   5.980  14.804  0.2556 -0.1556  0.0059
 2294POPC   C1A27785  28.187   5.683  15.094 -0.1491  0.1993  0.3612
 2294POPC   D2A27786  28.132   5.470  15.512 -0.0047 -0.3972 -0.4233
 2294POPC   C3A27787  27.845   5.630  15.909 -0.3064  0.2879  0.3069
 2294POPC   C4A27788  27.695   5.864  16.279 -0.0655  0.3474  0.2375
 2294POPC   C1B27789  28.042   6.238  15.146  0.3100 -0.0530 -0.1240
 2294POPC   C2B27790  28.429   6.578  15.329  0.0911  0.2152  0.1218
 2294POPC   C3B27791  28.836   6.589  15.465  0.0392 -0.0469 -0.0767
 2294POPC   C4B27792  29.130   6.589  15.863  0.0434 -0.5031 -0.0289
 2295POPC   NC327793  27.534  24.996  15.086 -0.2587 -0.2289 -0.0886
 2295POPC   PO427794  27.765  25.297  14.959 -0.1798 -0.1066  0.2009
 2295POPC   GL127795  27.982  25.228  15.253  0.0816  0.0877  0.0270
 2295POPC   GL227796  27.970  25.077  15.487  0.3930 -0.0251  0.1561
 2295POPC   C1A27797  28.472  25.055  15.353  0.1338  0.1211  0.0790
 2295POPC   D2A27798  28.591  25.176  15.741  0.4075  0.2292 -0.0160
 2295POPC   C3A27799  28.726  24.793  15.948 -0.2522 -0.1573  0.0963
 2295POPC   C4A27800  28.861  24.493  16.345 -0.2011  0.0263  0.1202
 2295POPC   C1B27801  28.072  24.888  15.806  0.0552 -0.1798 -0.0354
 2295POPC   C2B27802  28.260  24.573  16.066 -0.1269 -0.0943  0.1396
 2295POPC   C3B27803  28.431  24.661  16.542 -0.0256  0.0666  0.0891
 2295POPC   C4B27804  28.323  24.852  16.915 -0.2810  0.0557  0.0775
 2296POPC   NC327805  31.114  19.117  15.487 -0.0038  0.1950 -0.0947
 2296POPC   PO427806  31.243  18.743  15.535  0.0847  0.2293 -0.2214
 2296POPC   GL127807  31.226  18.806  15.933  0.1179 -0.2217 -0.0955
 2296POPC   GL227808  31.038  18.981  16.096 -0.2159  0.0330  0.0860
 2296POPC   C1A27809  31.254  18.609  16.336 -0.1281 -0.1465  0.1673
 2296POPC   D2A27810  31.400  18.603  16.760  0.0271  0.1846 -0.1038
 2296POPC   C3A27811  31.399  18.458  17.197 -0.0576 -0.0095 -0.2325
 2296POPC   C4A27812  31.342  18.206  17.556  0.0407 -0.1246 -0.0327
 2296POPC   C1B27813  30.762  19.085  16.473  0.1172  0.1142 -0.2701
 2296POPC   C2B27814  30.769  19.216  16.884  0.1454 -0.3078 -0.0242
 2296POPC   C3B27815  30.675  19.586  17.158 -0.2208  0.1079 -0.3326
 2296POPC   C4B27816  30.359  19.653  17.477 -0.1414 -0.0119  0.4616
 2297POPC   NC327817  24.014  18.849  15.276  0.1490 -0.1769  0.2103
 2297POPC   PO427818  24.106  19.219  15.184  0.0135 -0.1429  0.1040
 2297POPC   GL127819  24.357  19.066  15.533 -0.0919 -0.0878  0.2274
 2297POPC   GL227820  24.140  19.073  15.693 -0.1590 -0.0878 -0.1322
 2297POPC   C1A27821  24.740  19.310  15.714  0.0624  0.1954  0.1068
 2297POPC   D2A27822  25.005  19.576  15.925 -0.0091  0.0191  0.2746
 2297POPC   C3A27823  25.228  19.460  16.327  0.0080  0.1577 -0.4254
 2297POPC   C4A27824  25.509  19.468  16.654 -0.0932  0.1364 -0.0270
 2297POPC   C1B27825  24.312  19.267  16.131 -0.1138 -0.2653  0.0826
 2297POPC   C2B27826  24.295  19.125  16.618  0.0973  0.1246 -0.0193
 2297POPC   C3B27827  24.294  19.092  17.101 -0.1355 -0.0614 -0.0783
 2297POPC   C4B27828  23.944  19.118  17.383  0.0899 -0.2336 -0.0335
 2298POPC   NC327829   4.396  22.972  14.683 -0.1346  0.0779 -0.3102
 2298POPC   PO427830   4.373  22.936  15.101 -0.0276 -0.2272 -0.2534
 2298POPC   GL127831   4.051  22.945  15.334  0.2351 -0.0534 -0.0936
 2298POPC   GL227832   4.177  23.101  15.549  0.1602  0.3087  0.1951
 2298POPC   C1A27833   3.923  22.654  15.708  0.0578 -0.0088  0.4190
 2298POPC   D2A27834   3.710  22.371  15.993  0.1237  0.0647  0.2402
 2298POPC   C3A27835   3.692  22.308  16.492 -0.0597 -0.1361 -0.0843
 2298POPC   C4A27836   3.975  22.338  16.836 -0.3132 -0.0887  0.0217
 2298POPC   C1B27837   3.993  23.109  15.948  0.0277  0.2761  0.0287
 2298POPC   C2B27838   4.259  23.068  16.280 -0.0452  0.0930  0.1146
 2298POPC   C3B27839   4.317  23.190  16.672 -0.1508 -0.0254 -0.1443
 2298POPC   C4B27840   4.517  23.309  17.137 -0.1488 -0.2650  0.0407
 2299POPC   NC327841  19.772  28.365  14.905 -0.1305  0.2086 -0.1188
 2299POPC   PO427842  19.958  28.685  15.070  0.0710 -0.1032 -0.3083
 2299POPC   GL127843  19.989  28.539  15.472  0.2551  0.1037  0.1817
 2299POPC   GL227844  19.903  28.258  15.424 -0.3778  0.1879 -0.2012
 2299POPC   C1A27845  19.909  28.489  15.915  0.1466 -0.1907 -0.0226
 2299POPC   D2A27846  19.557  28.643  16.234  0.4254  0.0836 -0.2204
 2299POPC   C3A27847  19.523  28.429  16.671 -0.0288 -0.1886 -0.3076
 2299POPC   C4A27848  19.488  27.974  16.787  0.0136 -0.0314  0.0851
 2299POPC   C1B27849  19.856  27.879  15.723  0.0119  0.1143  0.2556
 2299POPC   C2B27850  19.719  27.398  15.836 -0.0461 -0.0886  0.4301
 2299POPC   C3B27851  19.879  27.076  15.574 -0.2055  0.1876 -0.0974
 2299POPC   C4B27852  20.048  26.787  15.833  0.0610 -0.2518  0.0362
 2300POPC   NC327853  21.003  17.906  15.540 -0.2593 -0.1501  0.1098
 2300POPC   PO427854  20.620  17.984  15.455 -0.0768  0.3713  0.0308
 2300POPC   GL127855  20.654  17.653  15.437 -0.1414  0.0559  0.0499
 2300POPC   GL227856  20.393  17.543  15.465  0.0141  0.0457 -0.0509
 2300POPC   C1A27857  20.914  17.280  15.640  0.2034  0.1156  0.3703
 2300POPC   D2A27858  20.940  16.834  15.611 -0.0134 -0.3341  0.0546
 2300POPC   C3A27859  21.232  16.505  15.821  0.0579 -0.4285  0.1339
 2300POPC   C4A27860  21.581  16.210  15.907  0.0659 -0.1046 -0.1824
 2300POPC   C1B27861  20.299  17.498  15.887 -0.2287  0.1276  0.1492
 2300POPC   C2B27862  20.067  17.553  16.241  0.0617 -0.1409 -0.0032
 2300POPC   C3B27863  19.724  17.408  16.599 -0.0293 -0.1902 -0.0084
 2300POPC   C4B27864  19.582  17.037  16.854 -0.2104 -0.0278 -0.0711
 2301POPC   NC327865   8.417  15.874  15.575 -0.3194 -0.4031 -0.1109
 2301POPC   PO427866   8.266  15.489  15.589  0.2490 -0.1404 -0.0696
 2301POPC   GL127867   8.210  15.388  15.976 -0.0834 -0.1247  0.0046
 2301POPC   GL227868   8.096  15.183  16.143  0.1214 -0.1429 -0.4293
 2301POPC   C1A27869   8.164  15.757  16.241 -0.3262  0.2323 -0.0380
 2301POPC   D2A27870   8.056  15.744  16.660 -0.2146  0.3632  0.3062
 2301POPC   C3A27871   8.249  15.448  16.994 -0.1088  0.1152  0.0984
 2301POPC   C4A27872   8.360  15.480  17.462 -0.3911 -0.0335 -0.2437
 2301POPC   C1B27873   8.368  15.298  16.483 -0.3143  0.3672 -0.3121
 2301POPC   C2B27874   8.632  15.108  16.826 -0.3574 -0.0262  0.0749
 2301POPC   C3B27875   8.889  15.263  17.191  0.1090  0.1404 -0.0241
 2301POPC   C4B27876   9.133  15.321  17.565 -0.1600 -0.0553  0.0742
 2302POPC   NC327877   2.059  10.371  15.473 -0.1433 -0.0945 -0.2249
 2302POPC   PO427878   1.682  10.453  15.366 -0.1219  0.1638  0.1381
 2302POPC   GL127879   1.632  10.282  15.650  0.1987 -0.3555 -0.1509
 2302POPC   GL227880   1.768  10.016  15.755  0.2232  0.0555  0.0278
 2302POPC   C1A27881   1.300  10.341  15.925 -0.1195 -0.0177 -0.0372
 2302POPC   D2A27882   1.179  10.408  16.384  0.4276 -0.1597 -0.1272
 2302POPC   C3A27883   0.938  10.474  16.821 -0.2228  0.0339  0.5885
 2302POPC   C4A27884   0.579  10.549  17.150 -0.0443  0.0828  0.1709
 2302POPC   C1B27885   1.744  10.175  16.199  0.0232  0.3144 -0.2273
 2302POPC   C2B27886   1.622  10.393  16.589  0.1086 -0.0273 -0.2467
 2302POPC   C3B27887   1.378  10.356  17.008  0.3393  0.0261  0.1438
 2302POPC   C4B27888   1.172  10.487  17.374  0.2616 -0.1546 -0.2611
 2303POPC   NC327889  22.623  28.308  15.797  0.3148  0.0177  0.0487
 2303POPC   PO427890  22.587  28.699  15.885 -0.2207 -0.2646 -0.0909
 2303POPC   GL127891  22.674  28.680  16.252 -0.1848  0.1363 -0.0582
 2303POPC   GL227892  22.847  28.504  16.315  0.1560  0.0993 -0.0612
 2303POPC   C1A27893  22.318  28.797  16.542 -0.0093 -0.1705  0.0447
 2303POPC   D2A27894  21.922  28.969  16.722 -0.2425 -0.1691  0.4674
 2303POPC   C3A27895  21.693  29.284  16.963 -0.0949 -0.2234  0.1132
 2303POPC   C4A27896  21.470  29.683  17.011 -0.2268  0.0334 -0.0113
 2303POPC   C1B27897  22.742  28.641  16.766  0.1541  0.0434  0.0138
 2303POPC   C2B27898  23.072  28.735  17.066 -0.2824 -0.0898 -0.0561
 2303POPC   C3B27899  23.280  28.568  17.445 -0.0679  0.2055 -0.1709
 2303POPC   C4B27900  23.569  28.549  17.758  0.0406  0.0104  0.0123
 2304POPC   NC327901  14.142  23.170  15.249 -0.0622 -0.0201 -0.2638
 2304POPC   PO427902  13.957  23.483  15.142 -0.1017  0.1107 -0.0333
 2304POPC   GL127903  14.044  23.538  15.500 -0.2658 -0.1762 -0.0899
 2304POPC   GL227904  13.865  23.684  15.633 -0.5393 -0.1325  0.2428
 2304POPC   C1A27905  14.211  23.553  15.967  0.4698 -0.1032 -0.2113
 2304POPC   D2A27906  14.405  23.272  16.326  0.1649  0.1717  0.3498
 2304POPC   C3A27907  14.627  23.184  16.701  0.1270  0.0538  0.0266
 2304POPC   C4A27908  15.078  23.038  16.875  0.0005  0.3485  0.0244
 2304POPC   C1B27909  13.709  23.635  16.073 -0.3327  0.0296  0.0893
 2304POPC   C2B27910  13.984  23.577  16.412 -0.1309  0.0327  0.2277
 2304POPC   C3B27911  14.229  23.482  16.792 -0.0262  0.0478 -0.1858
 2304POPC   C4B27912  14.561  23.589  17.120  0.0750 -0.2471 -0.0626
 2305POPC   NC327913  16.082  27.713  15.512 -0.0906 -0.2150  0.0688
 2305POPC   PO427914  16.372  27.434  15.679  0.2645  0.1057  0.3298
 2305POPC   GL127915  16.287  27.513  15.947 -0.0915  0.2167  0.0537
 2305POPC   GL227916  16.198  27.798  16.039 -0.0805 -0.3574  0.2743
 2305POPC   C1A27917  16.395  27.564  16.436  0.1405 -0.1000  0.1297
 2305POPC   D2A27918  16.359  27.379  16.910  0.2961 -0.0023  0.0436
 2305POPC   C3A27919  16.499  27.085  17.245  0.3533  0.3040  0.0433
 2305POPC   C4A27920  16.414  26.996  17.611 -0.0748  0.2584 -0.0335
 2305POPC   C1B27921  15.900  27.668  16.362 -0.0573  0.0631  0.0196
 2305POPC   C2B27922  15.850  27.739  16.822  0.1313 -0.0498  0.0689
 2305POPC   C3B27923  15.776  27.734  17.283 -0.2226  0.1995 -0.2719
 2305POPC   C4B27924  15.358  27.643  17.569  0.0802 -0.2352 -0.3226
 2306POPC   NC327925   2.356  19.012  14.526 -0.0268  0.0457  0.0521
 2306POPC   PO427926   2.190  18.961  14.833  0.0729 -0.3309 -0.1860
 2306POPC   GL127927   2.341  18.903  15.234  0.1051 -0.2240  0.4591
 2306POPC   GL227928   2.436  19.170  15.368  0.1270 -0.0279 -0.2173
 2306POPC   C1A27929   2.495  18.579  15.555 -0.1750  0.1568  0.0902
 2306POPC   D2A27930   2.665  18.508  15.982 -0.1497  0.1682 -0.0767
 2306POPC   C3A27931   2.893  18.139  15.955 -0.0508  0.3347 -0.1947
 2306POPC   C4A27932   3.177  17.875  16.216  0.0298  0.2289 -0.3619
 2306POPC   C1B27933   2.789  19.009  15.650 -0.2472  0.2088  0.0479
 2306POPC   C2B27934   2.803  19.019  16.068  0.1308  0.1433  0.1099
 2306POPC   C3B27935   3.137  19.060  16.408 -0.0284  0.1291  0.1337
 2306POPC   C4B27936   3.147  18.948  16.872 -0.2681  0.1515  0.2668
 2307POPC   NC327937  27.517   6.241  14.507  0.3479 -0.1812  0.0002
 2307POPC   PO427938  27.431   6.187  14.920 -0.1400  0.0968 -0.2223
 2307POPC   GL127939  27.632   5.905  15.204 -0.2140  0.2029  0.1958
 2307POPC   GL227940  27.371   5.907  15.410 -0.2293  0.1795 -0.4336
 2307POPC   C1A27941  27.954   5.926  15.510  0.3372 -0.1834  0.0725
 2307POPC   D2A27942  28.368   6.028  15.513 -0.0420  0.1764  0.0469
 2307POPC   C3A27943  28.479   6.246  15.834 -0.0659 -0.0669  0.1225
 2307POPC   C4A27944  28.418   6.492  16.198 -0.3916 -0.3131 -0.2628
 2307POPC   C1B27945  27.610   6.069  15.812  0.2038  0.3597 -0.0283
 2307POPC   C2B27946  28.009   6.125  16.006  0.1391  0.1240  0.0092
 2307POPC   C3B27947  28.358   6.008  16.329 -0.0548 -0.0691 -0.1233
 2307POPC   C4B27948  28.708   6.135  16.608  0.3879  0.2224 -0.0099
 2308POPC   NC327949  18.622  27.700  15.227  0.2395 -0.0333  0.4140
 2308POPC   PO427950  18.923  27.451  15.067  0.0245 -0.1409  0.0386
 2308POPC   GL127951  18.841  27.399  15.469 -0.0093  0.0188 -0.0274
 2308POPC   GL227952  18.816  27.157  15.498  0.0432 -0.0926 -0.0092
 2308POPC   C1A27953  18.624  27.653  15.850 -0.0363 -0.0414 -0.1857
 2308POPC   D2A27954  18.702  27.648  16.342 -0.0772  0.0146  0.2486
 2308POPC   C3A27955  18.569  28.115  16.359 -0.0972  0.1206  0.3178
 2308POPC   C4A27956  18.504  28.559  16.462  0.0834 -0.0822  0.1115
 2308POPC   C1B27957  18.983  26.938  15.840 -0.2619  0.0653  0.0718
 2308POPC   C2B27958  19.123  26.759  16.247 -0.0878  0.1587  0.2814
 2308POPC   C3B27959  19.300  26.615  16.639  0.1398 -0.3905 -0.0633
 2308POPC   C4B27960  19.724  26.501  16.773 -0.1787  0.1767 -0.3763
 2309POPC   NC327961  22.192  27.472  15.508  0.0929 -0.2606 -0.1882
 2309POPC   PO427962  21.894  27.296  15.465  0.1673  0.1374  0.0195
 2309POPC   GL127963  21.822  27.403  15.866  0.0194  0.3369  0.3379
 2309POPC   GL227964  22.037  27.583  15.975  0.1113  0.1146  0.0117
 2309POPC   C1A27965  21.601  27.096  16.089  0.5422 -0.3104 -0.3885
 2309POPC   D2A27966  21.445  26.733  16.313  0.2777 -0.1095  0.0398
 2309POPC   C3A27967  21.690  26.341  16.220 -0.1279 -0.2228  0.0528
 2309POPC   C4A27968  21.795  26.124  15.762 -0.2694 -0.2091 -0.1998
 2309POPC   C1B27969  22.394  27.640  16.200 -0.2047  0.4914  0.0711
 2309POPC   C2B27970  22.861  27.507  16.277  0.1628  0.2257 -0.1478
 2309POPC   C3B27971  23.200  27.167  16.439 -0.2045 -0.1585 -0.0136
 2309POPC   C4B27972  23.629  27.099  16.204 -0.1286  0.0466  0.0778
 2310POPC   NC327973  16.686  12.268  14.990  0.0370  0.0341 -0.5811
 2310POPC   PO427974  16.379  12.531  14.917 -0.1255  0.2600 -0.0121
 2310POPC   GL127975  16.432  12.534  15.290 -0.2111  0.0043  0.2559
 2310POPC   GL227976  16.728  12.615  15.408 -0.2538  0.0754  0.2037
 2310POPC   C1A27977  16.556  12.199  15.607 -0.0145 -0.0874  0.0258
 2310POPC   D2A27978  16.915  11.912  15.605 -0.3073 -0.2695 -0.2768
 2310POPC   C3A27979  16.989  11.703  16.018 -0.0689  0.0385 -0.0952
 2310POPC   C4A27980  17.268  11.735  16.403 -0.2981 -0.0725  0.0363
 2310POPC   C1B27981  16.620  12.692  15.872  0.1908  0.1614  0.2281
 2310POPC   C2B27982  16.390  12.824  16.246  0.0962  0.1374  0.2176
 2310POPC   C3B27983  16.127  12.538  16.541  0.1312 -0.4154  0.4503
 2310POPC   C4B27984  15.881  12.619  16.885 -0.0025 -0.4098 -0.1830
 2311POPC   NC327985  31.203  16.238  14.792 -0.2791 -0.1049 -0.1079
 2311POPC   PO427986  30.960  16.295  15.052 -0.1257  0.0274 -0.0416
 2311POPC   GL127987  30.935  16.415  15.494 -0.1853 -0.1153 -0.3294
 2311POPC   GL227988  31.166  16.215  15.637 -0.3317 -0.3273  0.0720
 2311POPC   C1A27989  30.961  16.514  16.008  0.1320 -0.3791 -0.2550
 2311POPC   D2A27990  30.742  16.569  16.395 -0.2128  0.2422  0.0490
 2311POPC   C3A27991  30.950  16.602  16.736 -0.1180  0.0523 -0.0081
 2311POPC   C4A27992  31.343  16.547  17.047 -0.0714 -0.0252 -0.0482
 2311POPC   C1B27993  31.063  15.996  15.999  0.3640  0.0305  0.3499
 2311POPC   C2B27994  31.063  16.126  16.409 -0.0583  0.0605 -0.0918
 2311POPC   C3B27995  31.084  16.112  16.893  0.1276 -0.0605 -0.1987
 2311POPC   C4B27996  31.387  16.043  17.294 -0.0721 -0.0028 -0.0081
 2312POPC   NC327997  23.426  27.641  15.406  0.2451  0.0902 -0.1508
 2312POPC   PO427998  23.059  27.681  15.536  0.1379  0.1673 -0.0052
 2312POPC   GL127999  23.001  28.030  15.816  0.0171 -0.1087 -0.1970
 2312POPC   GL228000  23.278  27.898  15.931 -0.0287  0.1794  0.2952
 2312POPC   C1A28001  22.747  27.987  16.201  0.3808  0.1064  0.0084
 2312POPC   D2A28002  22.889  27.832  16.620  0.0608 -0.1669 -0.0451
 2312POPC   C3A28003  22.935  27.455  16.854 -0.1873  0.1669 -0.0202
 2312POPC   C4A28004  22.970  26.984  16.819 -0.0089  0.3245  0.0071
 2312POPC   C1B28005  23.282  28.021  16.425  0.2755  0.0005  0.2434
 2312POPC   C2B28006  23.084  28.301  16.749 -0.0325  0.3609  0.2028
 2312POPC   C3B28007  22.739  28.239  17.071  0.2621 -0.1710 -0.0094
 2312POPC   C4B28008  22.429  28.063  17.328  0.0945 -0.1321  0.1988
 2313POPC   NC328009  11.844  12.356  15.836  0.1180  0.0117 -0.2362
 2313POPC   PO428010  12.040  12.451  15.528  0.0750  0.2385 -0.1384
 2313POPC   GL128011  12.265  12.424  15.888 -0.1675 -0.2139  0.0911
 2313POPC   GL228012  12.581  12.514  15.898  0.0116  0.2094  0.0337
 2313POPC   C1A28013  12.168  12.298  16.286  0.1914  0.1924  0.0740
 2313POPC   D2A28014  11.938  12.428  16.629  0.1258 -0.0103  0.0706
 2313POPC   C3A28015  11.911  12.817  16.816 -0.0981  0.0053  0.3745
 2313POPC   C4A28016  11.767  13.186  16.984 -0.0768  0.0056 -0.0779
 2313POPC   C1B28017  12.618  12.372  16.327  0.1591  0.1783  0.0431
 2313POPC   C2B28018  12.389  12.193  16.724 -0.0182 -0.0377  0.0738
 2313POPC   C3B28019  12.416  11.926  17.144  0.0307  0.1419 -0.2002
 2313POPC   C4B28020  12.334  11.532  17.378 -0.1205 -0.0481  0.4249
 2314POPC   NC328021  26.536  22.120  15.365  0.2039 -0.0281 -0.1131
 2314POPC   PO428022  26.862  22.318  15.206  0.1954  0.1892  0.1292
 2314POPC   GL128023  26.923  22.257  15.628  0.0233  0.4548 -0.1315
 2314POPC   GL228024  26.836  21.939  15.748 -0.3632  0.2353  0.0066
 2314POPC   C1A28025  26.887  22.395  16.086  0.1415  0.2763  0.0103
 2314POPC   D2A28026  26.705  22.203  16.447 -0.2813 -0.1424  0.0789
 2314POPC   C3A28027  26.962  22.191  16.740 -0.1911 -0.3239  0.0795
 2314POPC   C4A28028  27.272  22.152  17.124  0.0668  0.0731 -0.3055
 2314POPC   C1B28029  26.853  21.780  16.194  0.0769 -0.1861 -0.1491
 2314POPC   C2B28030  27.077  21.759  16.623 -0.0179  0.2386 -0.1087
 2314POPC   C3B28031  27.244  21.653  17.049 -0.0864  0.1503  0.1436
 2314POPC   C4B28032  27.399  21.397  17.401 -0.2526 -0.2833  0.0882
 2315POPC   NC328033  12.286   3.176  15.403 -0.0177 -0.2918 -0.5954
 2315POPC   PO428034  12.397   2.896  15.652 -0.2114 -0.2302  0.1963
 2315POPC   GL128035  12.358   2.823  15.987  0.2325  0.2247  0.1431
 2315POPC   GL228036  12.506   3.002  16.177  0.0658  0.0861  0.2698
 2315POPC   C1A28037  12.494   2.498  16.315 -0.0140 -0.4880  0.0670
 2315POPC   D2A28038  12.258   2.196  16.602  0.0242 -0.0904 -0.2531
 2315POPC   C3A28039  11.856   2.060  16.455 -0.0772  0.0412 -0.0583
 2315POPC   C4A28040  11.675   2.014  16.052 -0.2909  0.1656  0.1138
 2315POPC   C1B28041  12.717   2.915  16.563  0.1606 -0.2144  0.0353
 2315POPC   C2B28042  12.596   2.821  17.012  0.1118 -0.0194 -0.0778
 2315POPC   C3B28043  12.527   3.093  17.383  0.0515 -0.1211 -0.1477
 2315POPC   C4B28044  12.506   3.557  17.365  0.0152 -0.2005  0.2180
 2316POPC   NC328045  20.908  21.175  15.215 -0.1866 -0.0704 -0.0685
 2316POPC   PO428046  21.185  21.377  15.007 -0.3293 -0.3256 -0.2198
 2316POPC   GL128047  21.339  21.605  15.350 -0.0771  0.3285 -0.2603
 2316POPC   GL228048  21.058  21.677  15.468 -0.0984  0.1993  0.0229
 2316POPC   C1A28049  21.462  21.893  15.708 -0.1658  0.0901 -0.2379
 2316POPC   D2A28050  21.560  22.002  16.123 -0.0839  0.0529  0.0694
 2316POPC   C3A28051  21.666  21.797  16.517 -0.4367 -0.1022  0.0272
 2316POPC   C4A28052  22.014  21.589  16.707  0.2086 -0.2739  0.0007
 2316POPC   C1B28053  21.007  21.323  15.738 -0.0442  0.0569  0.3857
 2316POPC   C2B28054  21.118  21.166  16.178 -0.1092  0.0455  0.0651
 2316POPC   C3B28055  21.148  21.111  16.668  0.0570  0.0963  0.1319
 2316POPC   C4B28056  21.191  20.984  17.116 -0.0183 -0.0808  0.0341
 2317POPC   NC328057  19.731   2.365  15.115  0.1404 -0.2386  0.3796
 2317POPC   PO428058  19.505   2.031  15.026  0.1534 -0.0873  0.0583
 2317POPC   GL128059  19.463   2.010  15.433  0.0633  0.4833 -0.4236
 2317POPC   GL228060  19.712   2.091  15.578  0.0512 -0.1728 -0.1630
 2317POPC   C1A28061  19.445   1.811  15.842  0.0112 -0.0590 -0.2877
 2317POPC   D2A28062  19.448   1.715  16.296 -0.1508  0.1246 -0.0012
 2317POPC   C3A28063  19.767   1.915  16.536  0.0751  0.0903  0.0732
 2317POPC   C4A28064  20.039   2.069  16.808  0.1599  0.1743  0.2270
 2317POPC   C1B28065  19.974   2.039  15.969  0.1194 -0.0178 -0.0877
 2317POPC   C2B28066  20.203   2.100  16.356 -0.0199 -0.0861 -0.1002
 2317POPC   C3B28067  20.551   2.010  16.694 -0.0907  0.1400 -0.0549
 2317POPC   C4B28068  20.392   1.747  17.018  0.0758  0.0590 -0.0802
 2318POPC   NC328069  10.942  27.887  14.973 -0.3700 -0.1068 -0.1546
 2318POPC   PO428070  10.895  28.257  15.114 -0.2601  0.2766  0.0538
 2318POPC   GL128071  10.902  28.346  15.464  0.1812 -0.1333 -0.1019
 2318POPC   GL228072  10.657  28.125  15.626 -0.0538  0.0675  0.2393
 2318POPC   C1A28073  11.063  28.504  15.864  0.1086  0.2439  0.1285
 2318POPC   D2A28074  11.251  28.545  16.269 -0.2578 -0.1662 -0.2793
 2318POPC   C3A28075  11.366  28.237  16.581 -0.0734  0.0198 -0.1566
 2318POPC   C4A28076  11.696  28.043  16.866 -0.2855 -0.0154  0.0864
 2318POPC   C1B28077  10.564  28.026  16.026 -0.1039  0.1864  0.3551
 2318POPC   C2B28078  10.317  28.072  16.400 -0.3046  0.1384  0.1488
 2318POPC   C3B28079  10.354  28.274  16.805 -0.2107  0.1469  0.1269
 2318POPC   C4B28080  10.262  28.697  17.034 -0.0680  0.1557  0.2790
 2319POPC   NC328081  20.616  19.370  15.677  0.4763  0.0282 -0.1056
 2319POPC   PO428082  20.234  19.519  15.705 -0.1850  0.1596 -0.2475
 2319POPC   GL128083  20.026  19.493  15.941  0.4856  0.2172  0.0023
 2319POPC   GL228084  19.920  19.852  16.019  0.2516 -0.1222 -0.1987
 2319POPC   C1A28085  19.803  19.578  16.376 -0.0435  0.1161 -0.0587
 2319POPC   D2A28086  19.811  19.553  16.852  0.0320 -0.2865  0.0440
 2319POPC   C3A28087  19.531  19.831  17.136  0.0677  0.1709  0.4880
 2319POPC   C4A28088  19.221  20.145  17.080  0.0307 -0.0445 -0.3621
 2319POPC   C1B28089  19.919  20.256  16.340 -0.1702  0.0894  0.2092
 2319POPC   C2B28090  19.847  20.707  16.337  0.0021 -0.2059  0.0869
 2319POPC   C3B28091  19.720  21.023  16.655  0.0304 -0.0513 -0.4325
 2319POPC   C4B28092  19.572  21.202  17.027  0.2394  0.1884  0.0377
 2320POPC   NC328093   8.869   5.334  15.018  0.1886  0.0393 -0.3463
 2320POPC   PO428094   9.214   5.558  15.086  0.0127 -0.1064 -0.0414
 2320POPC   GL128095   9.185   5.542  15.478 -0.4233  0.0926  0.1807
 2320POPC   GL228096   8.947   5.330  15.554 -0.0307 -0.1298 -0.0024
 2320POPC   C1A28097   9.375   5.829  15.736  0.1559 -0.1660 -0.1487
 2320POPC   D2A28098   9.530   6.081  16.048 -0.2672  0.1250 -0.0167
 2320POPC   C3A28099   9.532   6.373  16.382 -0.1012  0.1678 -0.1828
 2320POPC   C4A28100   9.179   6.557  16.582 -0.1333 -0.2317  0.1606
 2320POPC   C1B28101   9.231   5.217  15.894  0.2985 -0.2630  0.2423
 2320POPC   C2B28102   9.451   5.100  16.268  0.1248 -0.0283 -0.1160
 2320POPC   C3B28103   9.597   5.358  16.587  0.2289 -0.1347  0.1602
 2320POPC   C4B28104   9.620   5.575  16.999  0.1408 -0.1265 -0.0944
 2321POPC   NC328105  29.617  15.430  15.560  0.1310 -0.0260 -0.3073
 2321POPC   PO428106  29.331  15.719  15.505  0.3376 -0.1769  0.0032
 2321POPC   GL128107  29.212  15.825  15.905 -0.2228 -0.0870  0.2852
 2321POPC   GL228108  29.511  15.852  15.914  0.0614  0.1496  0.0576
 2321POPC   C1A28109  28.867  15.682  16.147 -0.1312 -0.1128 -0.0582
 2321POPC   D2A28110  28.682  15.891  16.526 -0.1003  0.1565  0.1219
 2321POPC   C3A28111  28.267  15.929  16.664  0.0960  0.0311 -0.0936
 2321POPC   C4A28112  27.801  15.761  16.629 -0.0483 -0.1398 -0.0339
 2321POPC   C1B28113  29.251  15.962  16.323 -0.1637 -0.0249  0.0101
 2321POPC   C2B28114  29.131  16.181  16.736 -0.0958  0.2315 -0.0256
 2321POPC   C3B28115  29.141  16.530  17.014 -0.0530  0.0463  0.2720
 2321POPC   C4B28116  29.148  16.879  17.322 -0.2098  0.1726 -0.1450
 2322POPC   NC328117   4.280  24.986  15.398 -0.4113 -0.1527  0.3403
 2322POPC   PO428118   4.029  25.294  15.462  0.0985  0.1300 -0.0305
 2322POPC   GL128119   4.074  25.145  15.774  0.3290 -0.0870 -0.0172
 2322POPC   GL228120   4.311  25.252  15.882  0.1543  0.1123 -0.0014
 2322POPC   C1A28121   3.935  25.045  16.213 -0.0698 -0.1787 -0.3753
 2322POPC   D2A28122   3.722  24.784  16.563 -0.2034 -0.2761  0.0868
 2322POPC   C3A28123   3.518  25.091  16.923 -0.1372  0.0401  0.1531
 2322POPC   C4A28124   3.303  25.204  17.333 -0.3292 -0.0047  0.1677
 2322POPC   C1B28125   4.369  25.467  16.314 -0.2658 -0.0258 -0.2257
 2322POPC   C2B28126   4.429  25.558  16.750 -0.1721 -0.0861 -0.1328
 2322POPC   C3B28127   4.349  25.961  17.047  0.0373 -0.0585 -0.3159
 2322POPC   C4B28128   4.395  26.402  17.197 -0.1524  0.1562 -0.0502
 2323POPC   NC328129  25.309  17.406  14.777  0.1475  0.1445  0.1722
 2323POPC   PO428130  25.435  17.748  14.983  0.0117  0.0453 -0.4033
 2323POPC   GL128131  25.746  17.711  15.352  0.3270  0.0166  0.0201
 2323POPC   GL228132  25.966  17.880  15.232 -0.0717 -0.0116 -0.3386
 2323POPC   C1A28133  25.569  17.685  15.776  0.1068 -0.1060  0.1572
 2323POPC   D2A28134  25.456  17.726  16.199 -0.0841  0.1492 -0.0940
 2323POPC   C3A28135  25.887  17.631  16.384 -0.3882 -0.3588 -0.0597
 2323POPC   C4A28136  26.304  17.720  16.583 -0.2477 -0.0990  0.1114
 2323POPC   C1B28137  26.170  18.124  15.575 -0.1408  0.1022 -0.1564
 2323POPC   C2B28138  26.591  18.111  15.808 -0.0177 -0.0811  0.1298
 2323POPC   C3B28139  26.735  18.074  16.246  0.0070  0.1807  0.0002
 2323POPC   C4B28140  26.738  17.987  16.729  0.1652 -0.1204 -0.0400
 2324POPC   NC328141  16.205  12.892  15.191  0.0512 -0.2093 -0.2715
 2324POPC   PO428142  15.826  12.925  15.279 -0.0788 -0.1426 -0.5628
 2324POPC   GL128143  15.882  12.874  15.581  0.0645 -0.2895  0.0963
 2324POPC   GL228144  16.163  12.813  15.762  0.3015 -0.0798 -0.0457
 2324POPC   C1A28145  15.725  12.664  15.978 -0.3563  0.2387 -0.0814
 2324POPC   D2A28146  15.612  12.526  16.375 -0.1172  0.3427 -0.1295
 2324POPC   C3A28147  15.778  12.236  16.669 -0.1225  0.3561 -0.0603
 2324POPC   C4A28148  16.172  12.141  16.953  0.0860 -0.1120  0.0518
 2324POPC   C1B28149  16.171  12.416  15.895  0.0182  0.0724  0.4312
 2324POPC   C2B28150  16.025  12.178  16.203  0.3264 -0.1237 -0.0661
 2324POPC   C3B28151  16.161  11.841  16.517 -0.1609  0.1232 -0.0108
 2324POPC   C4B28152  16.490  11.549  16.677  0.0052 -0.1974  0.1838
 2325POPC   NC328153   4.326   1.308  15.878  0.4094  0.1007  0.0081
 2325POPC   PO428154   4.310   1.052  15.597  0.0333  0.1243  0.2293
 2325POPC   GL128155   4.351   0.711  15.799 -0.0515  0.2291 -0.0279
 2325POPC   GL228156   4.410   0.780  16.048 -0.2811 -0.0021  0.0696
 2325POPC   C1A28157   4.352   0.314  16.080  0.1104 -0.0574  0.0501
 2325POPC   D2A28158   4.548   0.047  16.353 -0.4609 -0.0698 -0.2230
 2325POPC   C3A28159   4.367   0.179  16.730  0.0159  0.0333 -0.2056
 2325POPC   C4A28160   4.139   0.475  16.983  0.2178  0.0220 -0.0231
 2325POPC   C1B28161   4.362   0.748  16.506  0.2620 -0.3826  0.0523
 2325POPC   C2B28162   4.539   0.796  16.886 -0.1342 -0.1811 -0.1168
 2325POPC   C3B28163   4.672   0.576  17.278  0.0750 -0.0621 -0.1331
 2325POPC   C4B28164   4.834   0.161  17.402 -0.3818  0.2992 -0.2197
 2326POPC   NC328165   5.706   8.468  14.852  0.3298  0.2404 -0.0483
 2326POPC   PO428166   5.515   8.791  14.857 -0.0981  0.1681 -0.0917
 2326POPC   GL128167   5.381   9.020  15.184  0.0979  0.0076  0.4118
 2326POPC   GL228168   5.229   8.908  15.347  0.2814  0.1061 -0.2458
 2326POPC   C1A28169   5.495   9.390  15.447 -0.0059  0.1607 -0.0480
 2326POPC   D2A28170   5.251   9.613  15.769  0.2694  0.0709 -0.4010
 2326POPC   C3A28171   5.573   9.948  15.836 -0.1961 -0.0449  0.2558
 2326POPC   C4A28172   5.966  10.228  15.913 -0.2834 -0.1515  0.0488
 2326POPC   C1B28173   5.262   8.632  15.702  0.0200 -0.4174  0.0244
 2326POPC   C2B28174   5.452   8.597  16.130 -0.3949  0.1939  0.0860
 2326POPC   C3B28175   5.564   8.517  16.563 -0.2393 -0.2420  0.4890
 2326POPC   C4B28176   5.283   8.531  16.967  0.0865  0.0854 -0.0290
 2327POPC   NC328177   5.629  21.710  15.621 -0.4133 -0.1653  0.0683
 2327POPC   PO428178   5.438  22.062  15.536 -0.0088  0.0006  0.0295
 2327POPC   GL128179   5.381  22.115  15.890  0.0184  0.1153  0.0327
 2327POPC   GL228180   5.066  22.097  15.972 -0.2653  0.1943 -0.2462
 2327POPC   C1A28181   5.416  22.222  16.354  0.0093 -0.0140  0.1871
 2327POPC   D2A28182   5.515  22.538  16.628  0.1788 -0.0165 -0.3700
 2327POPC   C3A28183   5.818  22.583  16.979 -0.1869  0.1594 -0.0383
 2327POPC   C4A28184   6.192  22.763  17.161 -0.0636  0.1929  0.4596
 2327POPC   C1B28185   5.010  21.916  16.360  0.0876 -0.0603 -0.1475
 2327POPC   C2B28186   4.972  22.028  16.868  0.0027 -0.3034 -0.1276
 2327POPC   C3B28187   5.158  21.822  17.245  0.0253  0.0683  0.0684
 2327POPC   C4B28188   5.437  21.554  17.617 -0.0015 -0.0727  0.0464
 2328POPC   NC328189   1.789  21.436  15.053  0.3974  0.0622  0.0744
 2328POPC   PO428190   1.716  21.058  15.158 -0.0796 -0.2935 -0.1183
 2328POPC   GL128191   1.837  21.045  15.498 -0.2012 -0.0280 -0.0082
 2328POPC   GL228192   2.062  20.908  15.723 -0.0197 -0.0498 -0.0637
 2328POPC   C1A28193   1.693  21.231  15.938 -0.0285  0.1200  0.3624
 2328POPC   D2A28194   1.869  21.441  16.238  0.0619  0.0708 -0.1754
 2328POPC   C3A28195   1.653  21.342  16.703 -0.4619 -0.1427  0.0271
 2328POPC   C4A28196   1.606  21.262  17.174 -0.0411  0.3814  0.1073
 2328POPC   C1B28197   2.027  20.845  16.184  0.1161  0.0812 -0.1576
 2328POPC   C2B28198   1.789  20.835  16.580 -0.0565  0.1482  0.1342
 2328POPC   C3B28199   1.719  20.778  17.065  0.4206  0.2964  0.3225
 2328POPC   C4B28200   1.604  20.748  17.475 -0.0078  0.2273 -0.1482
 2329POPC   NC328201  14.686  12.706  15.043 -0.0141  0.2879  0.1063
 2329POPC   PO428202  14.463  13.021  15.044 -0.1169  0.0545 -0.2626
 2329POPC   GL128203  14.346  12.762  15.440  0.2017  0.0786 -0.4078
 2329POPC   GL228204  14.083  12.739  15.474  0.0036  0.1039  0.0216
 2329POPC   C1A28205  14.377  12.857  15.920  0.3854 -0.0446  0.3780
 2329POPC   D2A28206  14.270  12.636  16.304 -0.3407  0.0963  0.1191
 2329POPC   C3A28207  14.560  12.553  16.615 -0.1158  0.1877  0.0031
 2329POPC   C4A28208  14.760  12.321  16.963 -0.1818 -0.1891  0.0102
 2329POPC   C1B28209  13.893  12.777  15.869 -0.1145  0.1341 -0.1876
 2329POPC   C2B28210  13.862  12.941  16.269 -0.0851 -0.0250 -0.3663
 2329POPC   C3B28211  14.190  13.081  16.603 -0.1531  0.3971  0.2171
 2329POPC   C4B28212  14.416  12.917  17.023  0.0360 -0.0090  0.2801
 2330POPC   NC328213  30.819   6.570  15.123 -0.3056 -0.1731  0.1494
 2330POPC   PO428214  30.856   6.952  15.222  0.1277 -0.1417  0.0202
 2330POPC   GL128215  30.585   6.926  15.506 -0.3309 -0.1483 -0.0646
 2330POPC   GL228216  30.526   6.578  15.520  0.1945 -0.1171  0.1812
 2330POPC   C1A28217  30.343   7.184  15.819  0.1994 -0.0362 -0.0644
 2330POPC   D2A28218  30.244   7.406  16.249 -0.1901  0.0830 -0.1077
 2330POPC   C3A28219  30.320   7.310  16.622 -0.0919  0.1553  0.3054
 2330POPC   C4A28220  30.441   6.986  16.980  0.1509  0.1463 -0.0481
 2330POPC   C1B28221  30.058   6.480  15.466 -0.1933  0.2444 -0.0528
 2330POPC   C2B28222  29.689   6.317  15.202  0.2510  0.2735 -0.0207
 2330POPC   C3B28223  29.413   6.083  14.866  0.0097  0.1697 -0.0988
 2330POPC   C4B28224  29.243   6.114  14.419 -0.0237 -0.2505  0.3571
 2331POPC   NC328225   7.788   4.894  14.947  0.2347  0.0827 -0.0151
 2331POPC   PO428226   7.730   5.239  15.079  0.1757  0.0187  0.3991
 2331POPC   GL128227   7.837   5.328  15.382  0.2076 -0.4493 -0.1176
 2331POPC   GL228228   7.626   5.502  15.482 -0.0003  0.1721 -0.1671
 2331POPC   C1A28229   7.868   5.201  15.838 -0.0633 -0.0744 -0.2633
 2331POPC   D2A28230   7.884   5.505  16.180  0.3951 -0.1132 -0.0410
 2331POPC   C3A28231   7.835   5.777  16.594  0.3886  0.1294 -0.2140
 2331POPC   C4A28232   7.645   6.080  16.935  0.3150  0.0780 -0.1895
 2331POPC   C1B28233   7.298   5.612  15.810  0.0674  0.0390 -0.1982
 2331POPC   C2B28234   6.962   5.817  16.068  0.0239  0.1362  0.0318
 2331POPC   C3B28235   6.716   5.985  16.455  0.2272  0.2098  0.0014
 2331POPC   C4B28236   6.475   5.997  16.884  0.2654  0.1317 -0.1108
 2332POPC   NC328237  19.179  19.762  15.047 -0.0873  0.2200  0.0633
 2332POPC   PO428238  19.320  19.578  15.369  0.0982 -0.1246 -0.1479
 2332POPC   GL128239  19.291  19.805  15.631  0.3938 -0.2087  0.2047
 2332POPC   GL228240  19.357  19.661  15.870 -0.2685 -0.2047 -0.0804
 2332POPC   C1A28241  19.551  20.151  15.783  0.0839 -0.0915 -0.0201
 2332POPC   D2A28242  19.852  20.461  15.881 -0.0888 -0.2351 -0.0244
 2332POPC   C3A28243  20.311  20.261  15.991 -0.0174 -0.4308 -0.1823
 2332POPC   C4A28244  20.714  20.423  16.137 -0.0022  0.1131  0.0796
 2332POPC   C1B28245  19.502  19.951  16.272  0.1057 -0.0558  0.0995
 2332POPC   C2B28246  19.641  20.025  16.656  0.0623 -0.1657  0.2318
 2332POPC   C3B28247  19.787  20.217  17.000  0.1249 -0.0584 -0.0593
 2332POPC   C4B28248  20.034  20.226  17.364  0.2792  0.1746 -0.1771
 2333POPC   NC328249  30.328   3.531  15.571  0.1026 -0.0678  0.1686
 2333POPC   PO428250  30.683   3.715  15.568 -0.2282 -0.1282  0.0526
 2333POPC   GL128251  30.606   3.761  15.925 -0.2045 -0.1617 -0.0218
 2333POPC   GL228252  30.629   3.524  16.026 -0.1807 -0.0178  0.0699
 2333POPC   C1A28253  30.623   4.058  16.318  0.2050  0.0103  0.1214
 2333POPC   D2A28254  30.398   4.024  16.700  0.1190 -0.0989 -0.0497
 2333POPC   C3A28255  30.587   3.721  17.018 -0.0951 -0.3039  0.2514
 2333POPC   C4A28256  30.925   3.413  17.085  0.1526  0.0974 -0.1659
 2333POPC   C1B28257  30.709   3.597  16.481  0.1142  0.2671  0.1351
 2333POPC   C2B28258  30.970   3.845  16.804  0.1744  0.2214 -0.3270
 2333POPC   C3B28259  31.352   3.868  17.117 -0.0471 -0.2909  0.0836
 2333POPC   C4B28260  31.609   3.740  17.452 -0.0248  0.0366 -0.0702
 2334POPC   NC328261   4.101  26.574  15.471 -0.0266  0.0009 -0.0868
 2334POPC   PO428262   4.486  26.660  15.459  0.0016 -0.0634  0.0960
 2334POPC   GL128263   4.484  26.452  15.840 -0.0861  0.0197  0.1023
 2334POPC   GL228264   4.338  26.692  15.982  0.0796  0.0084 -0.0811
 2334POPC   C1A28265   4.710  26.388  16.201 -0.0442 -0.1427  0.2809
 2334POPC   D2A28266   4.985  26.080  16.477  0.2769 -0.0908  0.0742
 2334POPC   C3A28267   4.837  25.844  16.860  0.0691  0.1099  0.1934
 2334POPC   C4A28268   4.738  25.794  17.308  0.1771 -0.1027 -0.1008
 2334POPC   C1B28269   4.472  27.118  16.187 -0.1718 -0.1281  0.0426
 2334POPC   C2B28270   4.599  27.369  16.486 -0.2485 -0.2098  0.0294
 2334POPC   C3B28271   4.860  27.692  16.739  0.1263  0.0666 -0.1618
 2334POPC   C4B28272   5.292  27.740  16.896  0.2010  0.0255 -0.2857
 2335POPC   NC328273  20.485  22.260  15.219 -0.0417  0.2849  0.2448
 2335POPC   PO428274  20.708  21.935  15.328 -0.0860 -0.2560 -0.0483
 2335POPC   GL128275  20.879  21.952  15.758  0.0128 -0.0329 -0.0909
 2335POPC   GL228276  21.006  22.176  15.656  0.4918  0.1725  0.1820
 2335POPC   C1A28277  21.120  21.752  16.066 -0.2112 -0.2765 -0.2769
 2335POPC   D2A28278  21.505  21.510  16.144  0.2488 -0.1931 -0.1750
 2335POPC   C3A28279  21.580  21.323  16.535  0.1672 -0.1446 -0.1526
 2335POPC   C4A28280  21.590  21.142  16.934 -0.2901  0.1640  0.1780
 2335POPC   C1B28281  21.027  22.245  16.104  0.0383 -0.0014 -0.1341
 2335POPC   C2B28282  21.090  22.132  16.551  0.1632 -0.0400 -0.3043
 2335POPC   C3B28283  21.283  22.195  16.876  0.0303  0.2731  0.2231
 2335POPC   C4B28284  21.610  21.940  17.016  0.0355  0.0313 -0.3370
 2336POPC   NC328285  27.735  16.664  14.968 -0.1756  0.2277  0.3603
 2336POPC   PO428286  27.363  16.470  14.950 -0.0984 -0.2123 -0.1416
 2336POPC   GL128287  27.318  16.287  15.348 -0.2527 -0.1908  0.2406
 2336POPC   GL228288  27.063  16.467  15.403  0.1663 -0.1236  0.1333
 2336POPC   C1A28289  27.623  16.273  15.716  0.2485  0.1073  0.1150
 2336POPC   D2A28290  27.786  16.549  16.013  0.0692 -0.0650 -0.1982
 2336POPC   C3A28291  27.893  16.144  16.261 -0.0802 -0.0757 -0.0924
 2336POPC   C4A28292  27.993  15.688  16.198 -0.1085 -0.0573  0.0054
 2336POPC   C1B28293  27.127  16.220  15.816 -0.2061  0.2070 -0.0575
 2336POPC   C2B28294  26.946  16.072  16.209 -0.3172 -0.0044  0.3594
 2336POPC   C3B28295  26.946  16.334  16.628  0.0775  0.1183 -0.0123
 2336POPC   C4B28296  26.888  16.502  17.018 -0.3053 -0.0368 -0.0839
 2337POPC   NC328297  11.638   1.107  15.029  0.0565  0.1561  0.0518
 2337POPC   PO428298  11.858   0.798  15.064 -0.2073 -0.2275 -0.0517
 2337POPC   GL128299  11.909   0.505  15.310 -0.0331  0.1305  0.4999
 2337POPC   GL228300  12.222   0.564  15.324 -0.0439 -0.1262 -0.1438
 2337POPC   C1A28301  11.894   0.333  15.739 -0.2843  0.2103  0.0323
 2337POPC   D2A28302  11.749   0.129  16.138  0.1760  0.0818 -0.1819
 2337POPC   C3A28303  12.092  -0.087  16.205 -0.0239 -0.1840  0.0691
 2337POPC   C4A28304  12.384  -0.141  16.572  0.0159  0.0504  0.2750
 2337POPC   C1B28305  12.395   0.447  15.761 -0.0664  0.0221  0.0744
 2337POPC   C2B28306  12.550   0.259  16.211 -0.3779  0.1055  0.0457
 2337POPC   C3B28307  12.760   0.137  16.584  0.1507 -0.0525  0.2858
 2337POPC   C4B28308  13.163   0.091  16.780 -0.4352 -0.1823  0.1423
 2338POPC   NC328309  10.878  28.724  15.234 -0.0447  0.1092  0.0210
 2338POPC   PO428310  11.069  29.076  15.196 -0.0427  0.1774  0.2039
 2338POPC   GL128311  11.104  29.127  15.619  0.2094 -0.5197 -0.3255
 2338POPC   GL228312  10.945  28.936  15.711 -0.0725 -0.5498 -0.1123
 2338POPC   C1A28313  11.120  29.540  15.850  0.1894  0.2512  0.0253
 2338POPC   D2A28314  11.411  29.730  16.125  0.2655 -0.0110 -0.2742
 2338POPC   C3A28315  11.378  29.648  16.555 -0.0578 -0.1443  0.1960
 2338POPC   C4A28316  11.293  29.796  17.011 -0.3948  0.3068 -0.1942
 2338POPC   C1B28317  11.162  28.992  16.141  0.0626  0.0600 -0.1405
 2338POPC   C2B28318  11.372  29.164  16.497 -0.0594  0.0053 -0.0869
 2338POPC   C3B28319  11.433  29.323  16.917 -0.1371 -0.1210  0.0198
 2338POPC   C4B28320  11.586  29.522  17.287  0.0412 -0.1587 -0.1426
 2339POPC   NC328321  26.481   9.406  15.295  0.0967  0.1828  0.1703
 2339POPC   PO428322  26.406   9.775  15.175  0.0145  0.0726 -0.0499
 2339POPC   GL128323  26.347  10.062  15.434 -0.1670  0.0568  0.0524
 2339POPC   GL228324  26.622  10.123  15.496  0.0902 -0.0096  0.1454
 2339POPC   C1A28325  26.166  10.033  15.868 -0.1396 -0.0343 -0.0304
 2339POPC   D2A28326  26.113  10.212  16.307 -0.0575 -0.0752  0.0241
 2339POPC   C3A28327  25.869  10.335  16.682 -0.1341 -0.3490  0.1497
 2339POPC   C4A28328  25.696  10.119  17.037  0.0974 -0.0715  0.1213
 2339POPC   C1B28329  26.758  10.261  15.910  0.1026  0.1941 -0.1318
 2339POPC   C2B28330  26.586  10.324  16.307  0.0016 -0.0460 -0.1449
 2339POPC   C3B28331  26.381  10.304  16.706 -0.1910 -0.1399  0.3222
 2339POPC   C4B28332  26.240  10.545  17.072  0.0365 -0.0325  0.0325
 2340POPC   NC328333  16.794  24.072  14.885 -0.0125 -0.0567 -0.2121
 2340POPC   PO428334  16.450  23.908  14.887 -0.3759  0.5818  0.1278
 2340POPC   GL128335  16.665  23.715  15.242 -0.1745  0.1910 -0.3151
 2340POPC   GL228336  16.912  23.797  15.333  0.2323  0.0812  0.0978
 2340POPC   C1A28337  16.550  23.480  15.651 -0.1223 -0.0460 -0.1173
 2340POPC   D2A28338  16.388  23.552  16.141  0.1043 -0.0560  0.1855
 2340POPC   C3A28339  16.555  23.571  16.624  0.2000  0.0574 -0.0399
 2340POPC   C4A28340  16.642  23.486  17.085 -0.0016 -0.2717  0.2698
 2340POPC   C1B28341  16.896  23.996  15.784 -0.2179 -0.1857 -0.0448
 2340POPC   C2B28342  16.535  24.014  16.195  0.0687  0.0170  0.5127
 2340POPC   C3B28343  16.188  23.976  16.500  0.0764 -0.1902  0.2378
 2340POPC   C4B28344  15.874  24.141  16.807 -0.4892  0.1377  0.2941
 2341POPC   NC328345   5.486  23.746  14.937 -0.1735 -0.5630 -0.1438
 2341POPC   PO428346   5.144  23.573  14.974 -0.1265  0.0610  0.1904
 2341POPC   GL128347   5.264  23.489  15.383 -0.0918 -0.1829 -0.0373
 2341POPC   GL228348   5.505  23.657  15.479 -0.2178 -0.0040  0.0432
 2341POPC   C1A28349   5.097  23.330  15.772  0.1230 -0.3839 -0.3429
 2341POPC   D2A28350   5.102  23.175  16.210 -0.2508  0.0844  0.1069
 2341POPC   C3A28351   5.179  22.969  16.598 -0.4235  0.2268  0.0454
 2341POPC   C4A28352   5.383  22.881  17.004 -0.0364  0.0678 -0.2126
 2341POPC   C1B28353   5.230  23.822  15.789 -0.2507 -0.0297 -0.1568
 2341POPC   C2B28354   5.295  23.660  16.240  0.1124 -0.2979 -0.2703
 2341POPC   C3B28355   5.215  23.537  16.656 -0.1990  0.0958  0.0995
 2341POPC   C4B28356   4.946  23.558  17.036  0.2400 -0.0607 -0.2283
 2342POPC   NC328357  30.837   9.947  15.017  0.1276 -0.1922  0.1703
 2342POPC   PO428358  30.502  10.155  15.090 -0.1663 -0.0351 -0.3735
 2342POPC   GL128359  30.552  10.036  15.548 -0.0003 -0.2853 -0.0417
 2342POPC   GL228360  30.738   9.953  15.509  0.1554  0.0874  0.0648
 2342POPC   C1A28361  30.599  10.227  15.979  0.1301 -0.0041  0.1656
 2342POPC   D2A28362  30.494  10.473  16.381 -0.2378 -0.0720 -0.2591
 2342POPC   C3A28363  30.294  10.432  16.830  0.1556  0.0654  0.0455
 2342POPC   C4A28364  30.288  10.220  17.223  0.1125  0.1427 -0.0022
 2342POPC   C1B28365  30.648   9.745  15.888 -0.2836 -0.1277 -0.0755
 2342POPC   C2B28366  30.349   9.748  16.230 -0.2082  0.2079  0.4097
 2342POPC   C3B28367  30.174   9.538  16.569 -0.4399 -0.1206  0.2407
 2342POPC   C4B28368  30.043   9.445  16.987  0.1094 -0.0945 -0.2544
 2343POPC   NC328369   3.694  27.406  15.174 -0.0430  0.1582  0.0615
 2343POPC   PO428370   3.937  27.738  15.203 -0.1159  0.2973 -0.1119
 2343POPC   GL128371   4.139  27.789  15.524  0.1478  0.0828  0.1253
 2343POPC   GL228372   3.895  28.053  15.587 -0.1223 -0.1389 -0.2297
 2343POPC   C1A28373   4.128  27.852  15.987  0.2037  0.2054 -0.0509
 2343POPC   D2A28374   4.186  27.652  16.369 -0.0255  0.0935 -0.0975
 2343POPC   C3A28375   4.314  27.515  16.842 -0.0875 -0.0105 -0.0528
 2343POPC   C4A28376   4.457  27.157  17.057 -0.0870 -0.0687  0.3596
 2343POPC   C1B28377   3.964  28.290  15.951 -0.3063  0.0547 -0.1168
 2343POPC   C2B28378   3.645  28.467  16.194 -0.2537  0.2107 -0.0785
 2343POPC   C3B28379   3.659  28.715  16.588 -0.0772 -0.1671  0.0404
 2343POPC   C4B28380   3.530  28.787  16.984  0.0110  0.0696 -0.0614
 2344POPC   NC328381  11.022  27.040  14.686  0.2591 -0.0025 -0.1381
 2344POPC   PO428382  10.940  27.303  14.961 -0.0393  0.1442  0.0656
 2344POPC   GL128383  10.921  27.192  15.387 -0.2057 -0.1327 -0.0681
 2344POPC   GL228384  11.005  26.920  15.553  0.0440 -0.1343  0.0424
 2344POPC   C1A28385  11.148  27.367  15.778  0.2770  0.1104  0.0238
 2344POPC   D2A28386  11.274  27.471  16.197 -0.2486  0.2694  0.0804
 2344POPC   C3A28387  11.174  27.692  16.572  0.0037 -0.0915  0.0336
 2344POPC   C4A28388  11.330  27.714  16.985 -0.0493 -0.2697 -0.4321
 2344POPC   C1B28389  10.868  26.912  16.018 -0.1420  0.2665  0.1212
 2344POPC   C2B28390  10.866  26.766  16.450 -0.1852  0.0495 -0.0430
 2344POPC   C3B28391  10.823  26.653  16.951  0.0609  0.1158  0.2102
 2344POPC   C4B28392  10.897  26.265  17.210 -0.2147 -0.2231 -0.0324
 2345POPC   NC328393  12.296  12.032  15.571 -0.2594  0.2895 -0.0360
 2345POPC   PO428394  12.602  12.182  15.404  0.1725 -0.0646 -0.1751
 2345POPC   GL128395  12.911  12.094  15.558 -0.1263 -0.2375  0.0854
 2345POPC   GL228396  12.831  12.027  15.788 -0.0543  0.2153 -0.1468
 2345POPC   C1A28397  13.245  11.778  15.693 -0.0961 -0.0049 -0.0871
 2345POPC   D2A28398  13.683  11.759  15.826  0.2337 -0.1561 -0.1810
 2345POPC   C3A28399  13.736  11.627  16.268  0.0501 -0.0417 -0.1646
 2345POPC   C4A28400  13.540  11.262  16.475  0.0961 -0.1775 -0.2180
 2345POPC   C1B28401  12.432  11.952  16.095  0.2241 -0.0870 -0.0883
 2345POPC   C2B28402  12.321  11.755  16.468 -0.1997 -0.1059  0.2903
 2345POPC   C3B28403  11.951  11.761  16.767  0.0618  0.2804 -0.0548
 2345POPC   C4B28404  11.931  11.465  17.086 -0.0195 -0.0746 -0.0562
 2346POPC   NC328405  13.519   2.588  15.506 -0.0379 -0.0127 -0.2068
 2346POPC   PO428406  13.667   2.934  15.377  0.2534  0.2182  0.2415
 2346POPC   GL128407  13.778   3.075  15.711  0.1293 -0.3550 -0.4294
 2346POPC   GL228408  13.614   3.356  15.684  0.3091 -0.2509  0.1807
 2346POPC   C1A28409  13.785   2.894  16.156 -0.2475 -0.3816 -0.2270
 2346POPC   D2A28410  13.761   2.965  16.650  0.2767  0.1549  0.4510
 2346POPC   C3A28411  14.090   2.971  17.009  0.1562  0.0066 -0.1669
 2346POPC   C4A28412  14.262   2.823  17.420 -0.3010  0.0043 -0.1867
 2346POPC   C1B28413  13.611   3.371  16.104  0.0662 -0.1352 -0.0806
 2346POPC   C2B28414  13.605   3.489  16.581  0.1993 -0.1760  0.0704
 2346POPC   C3B28415  13.875   3.422  16.980 -0.0015 -0.0043  0.1511
 2346POPC   C4B28416  13.933   3.619  17.367 -0.5701 -0.3104 -0.1512
 2347POPC   NC328417  29.811  11.474  15.260  0.0657  0.3119 -0.0001
 2347POPC   PO428418  29.731  11.890  15.155  0.1896 -0.2770 -0.0628
 2347POPC   GL128419  29.586  11.808  15.453  0.2664 -0.2731 -0.0500
 2347POPC   GL228420  29.357  11.950  15.503 -0.1123  0.2480 -0.1191
 2347POPC   C1A28421  29.680  11.877  15.908 -0.0712 -0.1016  0.0021
 2347POPC   D2A28422  29.772  12.197  16.239  0.2014 -0.1486 -0.1961
 2347POPC   C3A28423  29.725  12.148  16.689 -0.0128  0.0973  0.2062
 2347POPC   C4A28424  29.723  12.374  17.105  0.2332 -0.0574 -0.0897
 2347POPC   C1B28425  29.296  12.127  15.892 -0.0508  0.0198 -0.1143
 2347POPC   C2B28426  29.306  12.362  16.311  0.2763  0.3115 -0.1562
 2347POPC   C3B28427  29.373  12.472  16.741  0.1687 -0.1487  0.1811
 2347POPC   C4B28428  29.305  12.672  17.168  0.2866  0.1804  0.1113
 2348POPC   NC328429  29.739  10.069  15.058  0.1618 -0.4204  0.3589
 2348POPC   PO428430  29.409  10.246  15.180  0.0802 -0.4014 -0.1205
 2348POPC   GL128431  29.473  10.081  15.560  0.1111 -0.1143 -0.0048
 2348POPC   GL228432  29.745   9.889  15.689 -0.4584  0.1284 -0.0491
 2348POPC   C1A28433  29.215   9.799  15.875 -0.0154  0.0036 -0.3586
 2348POPC   D2A28434  29.071   9.733  16.314  0.0090 -0.1130  0.0438
 2348POPC   C3A28435  29.143   9.425  16.644 -0.0048  0.2332 -0.0777
 2348POPC   C4A28436  29.180   9.288  17.084 -0.0441  0.2851 -0.1342
 2348POPC   C1B28437  29.678  10.026  16.129 -0.2452  0.2275 -0.2694
 2348POPC   C2B28438  29.634   9.827  16.540 -0.1273  0.2656 -0.2094
 2348POPC   C3B28439  29.516   9.656  16.939  0.1017  0.2595  0.0087
 2348POPC   C4B28440  29.465   9.626  17.340  0.2117 -0.0320  0.1165
 2349POPC   NC328441  26.409   2.805  15.235 -0.2566  0.1131  0.0920
 2349POPC   PO428442  26.212   2.475  15.077 -0.0435  0.2007 -0.0770
 2349POPC   GL128443  26.200   2.209  15.359  0.0524  0.3090 -0.2618
 2349POPC   GL228444  25.948   2.352  15.568 -0.0366 -0.0541 -0.0930
 2349POPC   C1A28445  26.431   1.904  15.591 -0.0057 -0.2402  0.1834
 2349POPC   D2A28446  26.682   1.731  15.942  0.3821 -0.1336  0.4606
 2349POPC   C3A28447  26.811   1.698  16.385 -0.2230  0.2305  0.0357
 2349POPC   C4A28448  27.100   1.732  16.734 -0.0029 -0.0736  0.0931
 2349POPC   C1B28449  26.132   2.109  15.963 -0.2807  0.2757 -0.3323
 2349POPC   C2B28450  26.378   1.932  16.353 -0.0759  0.2452 -0.1261
 2349POPC   C3B28451  26.414   1.692  16.721  0.2670 -0.1093 -0.1528
 2349POPC   C4B28452  26.368   1.458  17.158 -0.2980  0.0415  0.1725
 2350POPC   NC328453  10.292   1.533  15.243 -0.0066  0.0437  0.2398
 2350POPC   PO428454  10.689   1.529  15.220 -0.1743  0.2933 -0.0295
 2350POPC   GL128455  10.665   1.451  15.555  0.2107 -0.3240 -0.0143
 2350POPC   GL228456  10.949   1.420  15.680 -0.2559 -0.2857  0.2461
 2350POPC   C1A28457  10.605   1.443  16.054 -0.0694  0.0757 -0.1015
 2350POPC   D2A28458  10.404   1.549  16.471 -0.0983 -0.0472 -0.2570
 2350POPC   C3A28459  10.546   1.731  16.864  0.2877  0.0240  0.1305
 2350POPC   C4A28460  10.622   1.964  17.242  0.0358 -0.0254  0.0971
 2350POPC   C1B28461  11.087   1.272  16.041 -0.2108 -0.0477 -0.0501
 2350POPC   C2B28462  11.158   0.982  16.394 -0.0200  0.3059  0.0343
 2350POPC   C3B28463  11.231   0.664  16.715 -0.2011 -0.0218  0.2230
 2350POPC   C4B28464  11.546   0.331  16.817  0.1679  0.3702 -0.0026
 2351POPC   NC328465  17.359  12.534  14.985  0.2385  0.0979  0.2436
 2351POPC   PO428466  17.119  12.307  15.187 -0.0890  0.2913  0.2932
 2351POPC   GL128467  17.136  12.324  15.678  0.2008 -0.5306 -0.0453
 2351POPC   GL228468  17.112  12.558  15.836  0.0056 -0.1297 -0.1381
 2351POPC   C1A28469  16.874  12.161  16.032  0.3967  0.4358  0.3765
 2351POPC   D2A28470  16.526  12.350  16.319 -0.1054 -0.2229 -0.0679
 2351POPC   C3A28471  16.591  12.512  16.752 -0.1172 -0.1288  0.0500
 2351POPC   C4A28472  16.752  12.792  17.058  0.0499 -0.1331 -0.0598
 2351POPC   C1B28473  17.258  12.963  16.071  0.1919  0.1124  0.0537
 2351POPC   C2B28474  17.118  13.011  16.506  0.1803 -0.0757 -0.0740
 2351POPC   C3B28475  17.057  13.144  16.974  0.1720  0.0588 -0.1944
 2351POPC   C4B28476  16.917  13.300  17.373 -0.0773 -0.0918  0.2725
 2352POPC   NC328477   2.965   6.846  15.464 -0.3962 -0.0020 -0.0239
 2352POPC   PO428478   2.653   7.044  15.362 -0.1587 -0.0240  0.0074
 2352POPC   GL128479   2.640   7.167  15.670 -0.4408  0.1939  0.0774
 2352POPC   GL228480   2.862   7.457  15.708  0.2307  0.1079 -0.2560
 2352POPC   C1A28481   2.504   7.377  16.102  0.1164  0.3153 -0.0912
 2352POPC   D2A28482   2.533   7.612  16.488 -0.3256 -0.0777  0.2718
 2352POPC   C3A28483   2.189   7.814  16.733  0.0213 -0.0117  0.1326
 2352POPC   C4A28484   1.974   7.693  17.128  0.0937  0.0255  0.1266
 2352POPC   C1B28485   3.033   7.597  16.101 -0.2028 -0.0401  0.3144
 2352POPC   C2B28486   3.012   7.736  16.515 -0.2695  0.2907 -0.1996
 2352POPC   C3B28487   2.787   7.867  16.925  0.3850  0.3874 -0.0313
 2352POPC   C4B28488   2.410   8.081  17.105  0.2156 -0.2565  0.2710
 2353POPC   NC328489  18.008  10.923  15.456  0.2037  0.1645 -0.0037
 2353POPC   PO428490  18.391  11.062  15.479  0.0685  0.0802 -0.0337
 2353POPC   GL128491  18.421  11.209  15.852  0.1738  0.0304  0.1302
 2353POPC   GL228492  18.179  11.009  15.948 -0.0218  0.0470  0.1976
 2353POPC   C1A28493  18.154  11.499  16.058 -0.0303 -0.2004 -0.1189
 2353POPC   D2A28494  18.160  11.900  16.239 -0.1062 -0.0323 -0.0773
 2353POPC   C3A28495  17.754  12.141  16.354 -0.3168 -0.0970 -0.1711
 2353POPC   C4A28496  17.514  12.218  16.733  0.0440  0.1318  0.2309
 2353POPC   C1B28497  18.359  11.124  16.366 -0.1396  0.0504 -0.1978
 2353POPC   C2B28498  18.402  11.048  16.818 -0.1997  0.2293 -0.2706
 2353POPC   C3B28499  18.756  11.150  17.112 -0.0286 -0.0381 -0.0745
 2353POPC   C4B28500  18.959  11.487  17.390  0.4960  0.0266 -0.0277
 2354POPC   NC328501  18.347   6.135  15.207  0.1163 -0.1659  0.3466
 2354POPC   PO428502  18.193   5.778  15.293  0.3784  0.1964 -0.0238
 2354POPC   GL128503  18.155   5.858  15.622 -0.3059  0.0120  0.0323
 2354POPC   GL228504  17.961   5.800  15.809  0.0477  0.0671 -0.0398
 2354POPC   C1A28505  18.140   6.186  15.996  0.1766 -0.0562 -0.1091
 2354POPC   D2A28506  18.227   6.257  16.399 -0.1800 -0.1340  0.1225
 2354POPC   C3A28507  17.983   6.397  16.793 -0.2435 -0.1177 -0.2855
 2354POPC   C4A28508  17.991   6.329  17.235  0.0477  0.1739 -0.1526
 2354POPC   C1B28509  17.790   5.556  16.100 -0.0180 -0.0082  0.0215
 2354POPC   C2B28510  17.450   5.538  16.382 -0.0334 -0.2004  0.0452
 2354POPC   C3B28511  17.320   5.661  16.835 -0.1386 -0.0978 -0.0640
 2354POPC   C4B28512  17.235   5.676  17.289 -0.4440 -0.0584 -0.2648
 2355POPC   NC328513  19.707   1.137  14.632  0.2777 -0.2812  0.1757
 2355POPC   PO428514  19.790   0.873  14.358 -0.1138 -0.2791 -0.1362
 2355POPC   GL128515  19.949   0.796  14.829  0.1281 -0.5137 -0.3475
 2355POPC   GL228516  20.111   1.025  14.937  0.3725  0.1456 -0.3664
 2355POPC   C1A28517  19.922   0.600  15.255 -0.0375  0.0779  0.1685
 2355POPC   D2A28518  20.088   0.413  15.723  0.1525  0.0859  0.2085
 2355POPC   C3A28519  20.562   0.440  15.832  0.0256 -0.2494  0.0303
 2355POPC   C4A28520  20.810   0.527  16.202 -0.0260  0.0393  0.1346
 2355POPC   C1B28521  20.189   1.333  15.207  0.0920  0.2307 -0.0746
 2355POPC   C2B28522  20.511   1.371  15.553  0.3200  0.0866 -0.1533
 2355POPC   C3B28523  20.920   1.190  15.628 -0.3037  0.2603  0.0240
 2355POPC   C4B28524  21.359   1.149  15.759 -0.1585 -0.2703 -0.1983
 2356POPC   NC328525  21.509  20.427  15.577  0.1469 -0.1668  0.1535
 2356POPC   PO428526  21.093  20.441  15.559 -0.1893  0.0606  0.0363
 2356POPC   GL128527  21.265  20.363  15.969 -0.1384  0.0662  0.0765
 2356POPC   GL228528  21.532  20.154  15.979 -0.0161 -0.0580  0.3623
 2356POPC   C1A28529  21.134  20.648  16.298 -0.0914  0.0834 -0.1432
 2356POPC   D2A28530  21.037  20.475  16.707 -0.2579 -0.1351 -0.2567
 2356POPC   C3A28531  20.584  20.472  16.624 -0.1900  0.1763 -0.1633
 2356POPC   C4A28532  20.081  20.544  16.749  0.3900  0.0275  0.1205
 2356POPC   C1B28533  21.416  20.074  16.394 -0.1538  0.1565  0.0285
 2356POPC   C2B28534  21.331  20.109  16.860 -0.2594 -0.0512 -0.1734
 2356POPC   C3B28535  21.514  20.235  17.250 -0.3342  0.0127 -0.1163
 2356POPC   C4B28536  21.871  20.455  17.455 -0.0035  0.0293  0.2338
 2357POPC   NC328537  23.189   5.074  15.047 -0.1251  0.0022  0.2914
 2357POPC   PO428538  22.795   5.107  15.032 -0.0401 -0.0033  0.2183
 2357POPC   GL128539  22.821   5.284  15.354  0.2118 -0.0951  0.4921
 2357POPC   GL228540  22.893   5.004  15.516  0.2085 -0.2513 -0.0091
 2357POPC   C1A28541  22.475   5.198  15.660 -0.0018 -0.2072  0.3634
 2357POPC   D2A28542  22.275   5.275  16.019 -0.1476 -0.0984 -0.1644
 2357POPC   C3A28543  22.002   4.937  16.231 -0.0944  0.1451 -0.1534
 2357POPC   C4A28544  21.882   4.726  16.634 -0.1267  0.2445  0.0832
 2357POPC   C1B28545  22.730   4.769  15.857 -0.1994 -0.0015 -0.1356
 2357POPC   C2B28546  22.472   4.852  16.228 -0.1917  0.0053  0.2065
 2357POPC   C3B28547  22.444   4.846  16.701  0.1365  0.2064 -0.1232
 2357POPC   C4B28548  22.508   4.659  17.126  0.1503  0.2042  0.2472
 2358POPC   NC328549  25.833  30.007  14.972 -0.1896  0.0656  0.1424
 2358POPC   PO428550  25.971  30.260  15.216  0.2970  0.2337 -0.1539
 2358POPC   GL128551  25.903  30.486  15.516 -0.3392  0.5449 -0.3364
 2358POPC   GL228552  25.987  30.715  15.531  0.3015  0.4873  0.1225
 2358POPC   C1A28553  25.842  30.506  15.986  0.1674  0.2817 -0.0129
 2358POPC   D2A28554  25.940  30.396  16.418  0.2198 -0.0188  0.2625
 2358POPC   C3A28555  25.993  30.686  16.800 -0.0137  0.1182  0.1555
 2358POPC   C4A28556  26.127  30.646  17.282  0.1405 -0.3279 -0.0529
 2358POPC   C1B28557  26.394  30.441  15.658  0.1070 -0.2050 -0.0177
 2358POPC   C2B28558  26.683  30.569  15.977 -0.1041  0.1421  0.0005
 2358POPC   C3B28559  27.067  30.562  16.233 -0.1913 -0.2633 -0.3415
 2358POPC   C4B28560  27.322  30.483  16.583 -0.1014 -0.1499  0.2722
 2359POPC   NC328561  18.332  16.535  15.177 -0.1104  0.0451 -0.3009
 2359POPC   PO428562  18.203  16.844  15.379  0.0319 -0.0581  0.3243
 2359POPC   GL128563  18.204  16.873  15.740  0.1878 -0.0238 -0.6263
 2359POPC   GL228564  18.450  17.084  15.731  0.0047  0.4469 -0.1593
 2359POPC   C1A28565  18.167  16.492  16.060  0.1175  0.3085  0.1297
 2359POPC   D2A28566  17.963  16.320  16.440  0.1093  0.1684  0.1607
 2359POPC   C3A28567  18.106  16.484  16.860 -0.2373  0.1172 -0.1022
 2359POPC   C4A28568  18.393  16.732  17.127  0.1756 -0.2123 -0.1988
 2359POPC   C1B28569  18.394  16.938  16.179 -0.4900 -0.1025  0.0193
 2359POPC   C2B28570  18.485  16.717  16.610  0.2020 -0.0598 -0.0318
 2359POPC   C3B28571  18.634  16.331  16.814  0.2948 -0.0671 -0.3875
 2359POPC   C4B28572  18.426  16.164  17.162  0.3341 -0.1053 -0.2850
 2360POPC   NC328573   4.931   2.364  15.542 -0.1815 -0.1404  0.0824
 2360POPC   PO428574   4.812   2.016  15.458 -0.2041  0.1273  0.0931
 2360POPC   GL128575   4.529   2.045  15.854  0.1961 -0.0645 -0.5018
 2360POPC   GL228576   4.552   1.737  15.937  0.3478  0.0727 -0.2035
 2360POPC   C1A28577   4.149   2.096  16.133  0.2352 -0.0886  0.1871
 2360POPC   D2A28578   4.101   1.997  16.556  0.1971  0.3860 -0.0011
 2360POPC   C3A28579   3.861   2.153  16.902  0.1127 -0.2450  0.3031
 2360POPC   C4A28580   3.825   2.083  17.379 -0.1100 -0.2273  0.0542
 2360POPC   C1B28581   4.363   1.542  16.311 -0.3171 -0.0179  0.1003
 2360POPC   C2B28582   4.109   1.191  16.417  0.3481 -0.0998 -0.0959
 2360POPC   C3B28583   3.871   0.857  16.676 -0.0755 -0.0218  0.0595
 2360POPC   C4B28584   3.739   0.720  17.097  0.0557  0.0740  0.0420
 2361POPC   NC328585  29.360   4.472  14.495  0.6360  0.0028 -0.0966
 2361POPC   PO428586  29.176   4.219  14.800 -0.4347 -0.2512  0.0749
 2361POPC   GL128587  29.035   4.339  15.164 -0.2663  0.0763 -0.0398
 2361POPC   GL228588  29.283   4.299  15.328 -0.1974  0.4794  0.1047
 2361POPC   C1A28589  28.913   4.608  15.498 -0.1527  0.0471 -0.0851
 2361POPC   D2A28590  28.649   4.729  15.865  0.0052  0.1743 -0.3072
 2361POPC   C3A28591  28.429   4.900  16.265 -0.0575  0.1355  0.1628
 2361POPC   C4A28592  28.392   5.361  16.375 -0.1458 -0.1573 -0.2133
 2361POPC   C1B28593  29.309   4.438  15.788  0.0264  0.2471 -0.0405
 2361POPC   C2B28594  29.006   4.534  16.112  0.0222  0.0879 -0.2625
 2361POPC   C3B28595  28.792   4.485  16.546 -0.2119 -0.0858 -0.1256
 2361POPC   C4B28596  28.416   4.630  16.771  0.0470  0.0730 -0.1418
 2362POPC   NC328597  11.593  29.126  15.061  0.0728 -0.3478 -0.1168
 2362POPC   PO428598  11.561  28.913  15.385 -0.0845 -0.1662 -0.1565
 2362POPC   GL128599  11.702  28.925  15.736 -0.3977 -0.3239 -0.1919
 2362POPC   GL228600  11.475  28.742  15.848  0.2750  0.1355 -0.0180
 2362POPC   C1A28601  11.714  29.340  15.888  0.2667 -0.2247  0.0863
 2362POPC   D2A28602  11.840  29.596  16.274 -0.3202 -0.4216 -0.2411
 2362POPC   C3A28603  11.805  29.605  16.742  0.1167  0.1092  0.2796
 2362POPC   C4A28604  11.907  29.815  17.122  0.1393 -0.0033  0.0588
 2362POPC   C1B28605  11.748  28.935  16.175  0.1159 -0.0517  0.0072
 2362POPC   C2B28606  11.889  29.122  16.558 -0.2610  0.2579 -0.3825
 2362POPC   C3B28607  12.169  29.225  16.928 -0.0461  0.4166  0.1130
 2362POPC   C4B28608  12.518  29.420  17.125  0.2698  0.1967 -0.2142
 2363POPC   NC328609   2.106   1.971  15.196 -0.0396 -0.2826  0.0134
 2363POPC   PO428610   1.799   2.237  15.159  0.0128 -0.4057  0.2517
 2363POPC   GL128611   1.692   1.921  15.404  0.0607  0.1936  0.2141
 2363POPC   GL228612   1.402   1.956  15.411 -0.3690  0.0041  0.0321
 2363POPC   C1A28613   1.683   1.767  15.859 -0.0153 -0.1180  0.0678
 2363POPC   D2A28614   1.735   1.750  16.339  0.1264 -0.0600 -0.1277
 2363POPC   C3A28615   1.873   1.493  16.690  0.0669  0.2278 -0.0824
 2363POPC   C4A28616   1.949   1.312  17.120  0.1986 -0.1387 -0.0008
 2363POPC   C1B28617   1.527   2.247  15.708 -0.0568  0.3285 -0.1898
 2363POPC   C2B28618   1.536   2.165  16.152 -0.1012  0.1242 -0.2943
 2363POPC   C3B28619   1.754   2.190  16.582 -0.1387 -0.0843 -0.0310
 2363POPC   C4B28620   1.924   2.275  17.000  0.0528  0.1006  0.0859
 2364POPC   NC328621  18.509  16.688  14.669 -0.1671  0.1607  0.0848
 2364POPC   PO428622  18.649  16.887  14.951 -0.2157 -0.1284 -0.0596
 2364POPC   GL128623  18.668  16.997  15.333  0.4033 -0.1378 -0.1333
 2364POPC   GL228624  18.730  16.713  15.451  0.0105  0.0104  0.0284
 2364POPC   C1A28625  19.046  17.141  15.505  0.1869 -0.0058  0.0386
 2364POPC   D2A28626  19.328  17.065  15.845 -0.0990 -0.1935 -0.0463
 2364POPC   C3A28627  19.564  17.373  16.042  0.0167  0.0120 -0.0355
 2364POPC   C4A28628  19.566  17.789  16.107  0.1311  0.1155  0.0149
 2364POPC   C1B28629  18.798  16.721  15.891  0.2664 -0.1230 -0.0574
 2364POPC   C2B28630  18.824  16.480  16.271  0.0643  0.2383 -0.3558
 2364POPC   C3B28631  18.964  16.676  16.702 -0.1084 -0.0020  0.0939
 2364POPC   C4B28632  19.314  16.500  17.010  0.0588  0.0481 -0.3429
 2365POPC   NC328633  12.830   3.902  15.106 -0.1720  0.3955  0.1513
 2365POPC   PO428634  12.819   3.651  15.349  0.1903 -0.1257 -0.1343
 2365POPC   GL128635  12.882   3.597  15.731  0.0880 -0.1287  0.1486
 2365POPC   GL228636  12.628   3.383  15.750  0.2194 -0.2067 -0.0364
 2365POPC   C1A28637  12.879   3.339  16.166 -0.0601 -0.1149 -0.1754
 2365POPC   D2A28638  13.210   3.127  16.471 -0.2349 -0.1162 -0.1623
 2365POPC   C3A28639  13.238   3.240  16.904 -0.3318  0.1718 -0.1543
 2365POPC   C4A28640  13.051   3.116  17.324  0.2854 -0.2152 -0.4964
 2365POPC   C1B28641  12.361   3.522  16.144  0.3443  0.1872  0.2277
 2365POPC   C2B28642  12.343   3.320  16.536  0.1219  0.2535  0.1772
 2365POPC   C3B28643  12.131   3.254  16.948  0.1267  0.2274  0.1612
 2365POPC   C4B28644  12.064   2.881  17.205 -0.2082  0.3463 -0.2300
 2366POPC   NC328645  24.883  30.458  15.681 -0.1716  0.2085  0.0757
 2366POPC   PO428646  24.596  30.417  15.440  0.1515  0.0392 -0.0447
 2366POPC   GL128647  24.262  30.597  15.543 -0.0680  0.1286 -0.1699
 2366POPC   GL228648  24.365  30.786  15.699  0.1493  0.0350  0.2094
 2366POPC   C1A28649  24.002  30.453  15.886 -0.0075 -0.0161  0.0755
 2366POPC   D2A28650  24.001  30.357  16.334  0.0681  0.3778 -0.0751
 2366POPC   C3A28651  23.801  30.776  16.539  0.0601 -0.1115  0.1503
 2366POPC   C4A28652  23.337  30.938  16.550 -0.2109  0.4126 -0.1842
 2366POPC   C1B28653  24.557  30.633  16.017 -0.0761  0.2019  0.0483
 2366POPC   C2B28654  24.885  30.507  16.308 -0.1189 -0.2726  0.0125
 2366POPC   C3B28655  24.902  30.614  16.783 -0.4225 -0.1444 -0.1602
 2366POPC   C4B28656  25.148  30.451  17.181 -0.0760 -0.4207 -0.0465
 2367POPC   NC328657  27.153   7.176  15.255  0.0973  0.3944  0.0156
 2367POPC   PO428658  27.561   7.256  15.293 -0.0480 -0.0123 -0.0281
 2367POPC   GL128659  27.767   7.318  15.549 -0.1166 -0.3536 -0.5971
 2367POPC   GL228660  28.016   7.120  15.565  0.2130 -0.1366  0.0590
 2367POPC   C1A28661  27.663   7.157  16.003  0.1256 -0.0773  0.0810
 2367POPC   D2A28662  27.765   7.171  16.453  0.2095  0.1699  0.1822
 2367POPC   C3A28663  27.726   6.863  16.757 -0.2611  0.0019  0.1080
 2367POPC   C4A28664  27.916   6.507  16.949  0.1305  0.1947 -0.2994
 2367POPC   C1B28665  28.170   7.199  15.981 -0.0563  0.2634 -0.2553
 2367POPC   C2B28666  28.405   7.313  16.388 -0.1020  0.0996  0.0554
 2367POPC   C3B28667  28.816   7.374  16.585  0.1399 -0.0090 -0.0176
 2367POPC   C4B28668  29.039   7.675  16.837  0.0855 -0.3583  0.0058
 2368POPC   NC328669  28.447   0.806  14.308 -0.0912  0.1822  0.0431
 2368POPC   PO428670  28.147   0.616  14.459 -0.2019  0.3158 -0.0269
 2368POPC   GL128671  28.156   0.517  14.805  0.4175 -0.0769 -0.1538
 2368POPC   GL228672  28.026   0.608  15.098  0.2421 -0.0350  0.2063
 2368POPC   C1A28673  28.054   0.101  14.985 -0.0659 -0.2676 -0.1006
 2368POPC   D2A28674  28.080  -0.174  15.349 -0.2686 -0.0262  0.2024
 2368POPC   C3A28675  27.997   0.025  15.766  0.0076  0.0555 -0.1558
 2368POPC   C4A28676  27.529   0.152  15.905 -0.0679  0.1832 -0.1003
 2368POPC   C1B28677  27.694   0.345  15.265  0.1048  0.0085  0.0470
 2368POPC   C2B28678  27.616  -0.056  15.454 -0.0224  0.1924  0.1304
 2368POPC   C3B28679  27.622  -0.474  15.262  0.0322 -0.2448  0.3881
 2368POPC   C4B28680  27.976  -0.682  15.147  0.3479 -0.2253 -0.0184
 2369POPC   NC328681   1.756  16.060  14.284 -0.0578  0.3514  0.0086
 2369POPC   PO428682   1.695  16.006  14.659 -0.1093  0.1031  0.0636
 2369POPC   GL128683   2.004  16.037  14.933 -0.0017 -0.1880  0.0763
 2369POPC   GL228684   2.250  16.184  14.853  0.2076  0.0091  0.0090
 2369POPC   C1A28685   1.973  16.425  15.190 -0.0998 -0.0611 -0.0565
 2369POPC   D2A28686   2.176  16.685  15.470  0.0116  0.1549 -0.2634
 2369POPC   C3A28687   2.139  16.741  15.948  0.0866 -0.0161 -0.1780
 2369POPC   C4A28688   1.989  16.580  16.352  0.2222 -0.0037 -0.2623
 2369POPC   C1B28689   2.624  16.498  14.954  0.0361  0.4212 -0.1536
 2369POPC   C2B28690   2.703  16.695  15.363 -0.0367  0.0065  0.2451
 2369POPC   C3B28691   2.538  16.950  15.724  0.0463  0.0337 -0.0723
 2369POPC   C4B28692   2.452  17.262  16.022 -0.2317  0.1008  0.2162
 2370POPC   NC328693  16.631   0.866  14.982 -0.1161 -0.1270 -0.0224
 2370POPC   PO428694  16.419   0.536  15.080 -0.2088 -0.0440 -0.0828
 2370POPC   GL128695  16.287   0.732  15.331  0.4537 -0.2667  0.4541
 2370POPC   GL228696  16.332   1.042  15.302 -0.1754  0.0280 -0.0536
 2370POPC   C1A28697  15.934   0.786  15.608 -0.0011 -0.2388  0.0747
 2370POPC   D2A28698  15.685   0.918  15.969  0.0704  0.1539  0.1739
 2370POPC   C3A28699  15.777   0.811  16.440 -0.0145 -0.0410  0.2323
 2370POPC   C4A28700  15.811   0.574  16.818  0.0969  0.0923 -0.0294
 2370POPC   C1B28701  16.202   1.195  15.652  0.4405  0.0112 -0.1435
 2370POPC   C2B28702  15.908   1.324  16.067  0.0204 -0.0816 -0.1031
 2370POPC   C3B28703  15.796   1.350  16.509  0.0199  0.0669  0.1961
 2370POPC   C4B28704  15.447   1.511  16.832  0.1019  0.0483  0.2248
 2371POPC   NC328705   5.431   7.651  14.609  0.1823 -0.0474 -0.0115
 2371POPC   PO428706   5.384   7.441  14.918 -0.1955  0.1680 -0.1585
 2371POPC   GL128707   5.563   7.631  15.136  0.2636 -0.1232 -0.1889
 2371POPC   GL228708   5.778   7.839  14.976  0.0224 -0.1120  0.1624
 2371POPC   C1A28709   5.595   7.792  15.596 -0.3164 -0.1046  0.0464
 2371POPC   D2A28710   5.466   8.155  15.867  0.0275  0.0161 -0.2986
 2371POPC   C3A28711   5.445   8.055  16.344 -0.0814  0.0336 -0.1471
 2371POPC   C4A28712   5.578   7.960  16.802  0.1135 -0.0721 -0.1231
 2371POPC   C1B28713   5.536   8.194  15.221  0.0905 -0.0547  0.0792
 2371POPC   C2B28714   5.114   8.253  15.501  0.0062  0.0723  0.3426
 2371POPC   C3B28715   5.030   8.311  15.997  0.0431  0.1251 -0.0417
 2371POPC   C4B28716   5.073   8.511  16.443 -0.0329  0.0065  0.1040
 2372POPC   NC328717  23.387   9.611  15.144 -0.1703 -0.0820  0.0130
 2372POPC   PO428718  23.392   9.240  15.304  0.3135 -0.1823 -0.0298
 2372POPC   GL128719  23.338   9.396  15.748  0.2425  0.1961  0.2707
 2372POPC   GL228720  23.124   9.461  15.973 -0.3001 -0.2820  0.0351
 2372POPC   C1A28721  23.464   9.077  16.098  0.0287 -0.0505  0.2049
 2372POPC   D2A28722  23.783   8.826  16.307  0.2252 -0.1728  0.0355
 2372POPC   C3A28723  23.629   9.128  16.643 -0.1343 -0.0378  0.2865
 2372POPC   C4A28724  23.242   9.384  16.654  0.2442 -0.2122 -0.0443
 2372POPC   C1B28725  22.877   9.595  16.350  0.0162  0.0727  0.3198
 2372POPC   C2B28726  22.712   9.675  16.771  0.2323  0.2210 -0.2983
 2372POPC   C3B28727  22.429   9.862  17.104  0.0628 -0.1585  0.0638
 2372POPC   C4B28728  22.107  10.084  17.386  0.2814  0.0089  0.1687
 2373POPC   NC328729   7.077  27.954  15.303 -0.1643 -0.2192  0.2462
 2373POPC   PO428730   6.809  27.680  15.226  0.1530  0.2978  0.1469
 2373POPC   GL128731   6.610  27.405  15.329 -0.2277 -0.3044 -0.4183
 2373POPC   GL228732   6.422  27.442  15.532  0.0328  0.1593  0.4683
 2373POPC   C1A28733   6.759  27.090  15.703 -0.0949 -0.2479 -0.1319
 2373POPC   D2A28734   6.741  26.862  16.109 -0.0340  0.1580  0.1448
 2373POPC   C3A28735   6.722  26.594  16.439  0.1757  0.4107  0.1077
 2373POPC   C4A28736   6.712  26.334  16.832  0.0285  0.3696  0.1858
 2373POPC   C1B28737   6.623  27.536  15.870 -0.0589 -0.0528  0.1569
 2373POPC   C2B28738   6.505  27.662  16.266  0.1549  0.2354 -0.0604
 2373POPC   C3B28739   6.472  27.913  16.668  0.3822 -0.1656  0.0275
 2373POPC   C4B28740   6.735  27.961  17.064 -0.3142  0.0703 -0.0135
 2374POPC   NC328741  23.819  23.932  14.735 -0.1130  0.1113  0.0865
 2374POPC   PO428742  23.751  24.213  15.020  0.2068  0.0115 -0.2941
 2374POPC   GL128743  23.984  24.030  15.370 -0.1105 -0.2252  0.1085
 2374POPC   GL228744  23.896  23.815  15.281 -0.0220  0.0289  0.0609
 2374POPC   C1A28745  23.773  23.994  15.794  0.2538  0.1368  0.0705
 2374POPC   D2A28746  23.577  23.744  16.153  0.0472 -0.1942 -0.4189
 2374POPC   C3A28747  23.479  23.981  16.534  0.1673 -0.2041  0.0882
 2374POPC   C4A28748  23.369  24.336  16.817 -0.3805  0.0771 -0.1796
 2374POPC   C1B28749  24.221  23.673  15.574 -0.1526 -0.0101 -0.0543
 2374POPC   C2B28750  24.136  23.537  16.004  0.1086 -0.1173 -0.2759
 2374POPC   C3B28751  23.857  23.414  16.358 -0.2644  0.1027  0.1807
 2374POPC   C4B28752  23.520  23.495  16.684 -0.2450  0.0860 -0.1335
 2375POPC   NC328753   1.831  14.482  15.605 -0.3757  0.2014  0.1173
 2375POPC   PO428754   1.561  14.714  15.428 -0.1106  0.0402 -0.1891
 2375POPC   GL128755   1.582  14.781  15.815  0.0118  0.0432  0.0265
 2375POPC   GL228756   1.390  14.923  15.905 -0.0693  0.2409  0.0169
 2375POPC   C1A28757   1.934  14.667  16.088  0.0324  0.3422 -0.1644
 2375POPC   D2A28758   2.376  14.600  15.965 -0.1551  0.0450 -0.1430
 2375POPC   C3A28759   2.698  14.733  16.311  0.1000 -0.1327 -0.0004
 2375POPC   C4A28760   2.913  14.844  16.680  0.0760 -0.1537  0.2518
 2375POPC   C1B28761   1.314  15.233  16.229 -0.0071 -0.0274 -0.0917
 2375POPC   C2B28762   1.326  15.080  16.689  0.1371 -0.1640  0.4080
 2375POPC   C3B28763   1.631  14.943  17.014 -0.0078 -0.0576 -0.1841
 2375POPC   C4B28764   1.769  15.263  17.313  0.0973  0.0230 -0.2146
 2376POPC   NC328765  29.265  17.087  15.465  0.1008  0.4342 -0.2181
 2376POPC   PO428766  29.624  17.145  15.280  0.0616 -0.0492  0.0762
 2376POPC   GL128767  29.644  17.363  15.644  0.5089  0.0614 -0.1047
 2376POPC   GL228768  29.537  17.605  15.601  0.5107  0.1669  0.1965
 2376POPC   C1A28769  29.844  17.502  16.055  0.0475  0.2071  0.1905
 2376POPC   D2A28770  29.794  17.554  16.512 -0.2277 -0.2038 -0.1557
 2376POPC   C3A28771  29.458  17.617  16.849  0.0405  0.0233 -0.0834
 2376POPC   C4A28772  29.354  17.292  17.113  0.1804 -0.0648  0.2151
 2376POPC   C1B28773  29.392  17.771  15.995  0.1520 -0.2487 -0.0987
 2376POPC   C2B28774  29.223  17.590  16.329  0.1567  0.1567  0.1735
 2376POPC   C3B28775  28.869  17.660  16.652  0.1324  0.0551 -0.1132
 2376POPC   C4B28776  28.575  17.667  17.007 -0.3296  0.2495  0.0759
 2377POPC   NC328777  12.140  13.038  15.434 -0.2336  0.0846  0.3625
 2377POPC   PO428778  12.186  12.919  15.786  0.0703  0.2000  0.3955
 2377POPC   GL128779  12.153  12.768  16.093  0.0475 -0.0526 -0.0490
 2377POPC   GL228780  12.308  12.994  16.258 -0.0355 -0.0876  0.1034
 2377POPC   C1A28781  11.737  12.599  16.221  0.2064  0.1793 -0.0418
 2377POPC   D2A28782  11.428  12.530  16.555 -0.0037  0.0992  0.0199
 2377POPC   C3A28783  11.014  12.657  16.795  0.0651  0.0128  0.0041
 2377POPC   C4A28784  10.869  12.553  17.222  0.0056 -0.3352 -0.0686
 2377POPC   C1B28785  12.351  12.694  16.605  0.0033 -0.2665 -0.0472
 2377POPC   C2B28786  12.377  12.584  17.067  0.4642  0.3975  0.1850
 2377POPC   C3B28787  12.536  12.336  17.437 -0.0901 -0.3714 -0.1243
 2377POPC   C4B28788  12.589  11.941  17.677  0.1813  0.0827 -0.1212
 2378POPC   NC328789  24.738   0.148  15.051 -0.1915 -0.0821  0.1514
 2378POPC   PO428790  24.731   0.500  15.246  0.0772 -0.1369  0.2288
 2378POPC   GL128791  24.914   0.324  15.584 -0.1446  0.1510  0.0098
 2378POPC   GL228792  24.803   0.036  15.601  0.1484  0.0206  0.1250
 2378POPC   C1A28793  25.135   0.226  16.006 -0.0853  0.0841  0.0153
 2378POPC   D2A28794  25.554   0.151  16.191 -0.3213  0.5527 -0.2004
 2378POPC   C3A28795  25.552  -0.000  16.615  0.0784 -0.0609  0.0176
 2378POPC   C4A28796  25.741  -0.024  16.976 -0.3604 -0.0456 -0.0651
 2378POPC   C1B28797  24.721  -0.095  16.045  0.2490 -0.0723  0.0336
 2378POPC   C2B28798  24.641  -0.011  16.510  0.2757  0.0107 -0.1907
 2378POPC   C3B28799  24.555  -0.102  16.967 -0.1460 -0.1161 -0.0028
 2378POPC   C4B28800  24.197  -0.346  17.130  0.0713  0.1629  0.1188
 2379POPC   NC328801  24.987   9.742  14.932 -0.2123 -0.2031 -0.0090
 2379POPC   PO428802  24.835   9.400  15.025  0.0226  0.0278  0.0532
 2379POPC   GL128803  25.065   9.505  15.337  0.0860 -0.3616  0.1264
 2379POPC   GL228804  25.150   9.256  15.468  0.2343  0.0076  0.0812
 2379POPC   C1A28805  25.089   9.776  15.726  0.0751  0.2000 -0.1527
 2379POPC   D2A28806  25.260   9.875  16.127 -0.1760  0.4425 -0.2698
 2379POPC   C3A28807  25.197   9.726  16.543  0.0700  0.0122 -0.1617
 2379POPC   C4A28808  25.083   9.760  16.977  0.2750 -0.2338 -0.1792
 2379POPC   C1B28809  24.911   9.344  15.881 -0.3666  0.1821 -0.0922
 2379POPC   C2B28810  24.842   9.599  16.239  0.0153  0.2086  0.3967
 2379POPC   C3B28811  24.534   9.780  16.522  0.1258  0.0923  0.0056
 2379POPC   C4B28812  24.094   9.839  16.817 -0.2333  0.0783  0.0345
 2380POPC   NC328813   6.362  14.203  15.771 -0.0498  0.0474  0.0804
 2380POPC   PO428814   6.681  14.182  15.521  0.0752 -0.2609 -0.2767
 2380POPC   GL128815   6.695  13.902  15.732  0.0408 -0.2478  0.0064
 2380POPC   GL228816   6.885  13.655  15.674  0.0921  0.2503  0.3404
 2380POPC   C1A28817   6.639  14.027  16.197 -0.0182 -0.1924 -0.1167
 2380POPC   D2A28818   6.859  13.986  16.650  0.0393  0.1941  0.0774
 2380POPC   C3A28819   6.551  13.866  16.946  0.0396  0.4540  0.0992
 2380POPC   C4A28820   6.125  13.878  17.066  0.0763 -0.0533 -0.0246
 2380POPC   C1B28821   6.691  13.527  16.048 -0.0045 -0.3639 -0.1986
 2380POPC   C2B28822   6.502  13.522  16.435 -0.2669 -0.0513 -0.1216
 2380POPC   C3B28823   6.537  13.363  16.906 -0.0299 -0.0362  0.1543
 2380POPC   C4B28824   6.511  13.503  17.405  0.0908 -0.2295 -0.2392
 2381POPC   NC328825   1.000  10.947  15.529  0.0420  0.1519 -0.0003
 2381POPC   PO428826   0.835  10.619  15.543 -0.0962  0.1054  0.1301
 2381POPC   GL128827   0.865  10.436  15.987 -0.0882  0.3359 -0.3213
 2381POPC   GL228828   0.804  10.215  16.120 -0.2558 -0.0661 -0.0804
 2381POPC   C1A28829   0.640  10.582  16.412  0.0443  0.0965  0.2105
 2381POPC   D2A28830   0.369  10.440  16.721 -0.2861  0.0441 -0.2214
 2381POPC   C3A28831   0.225  10.216  17.079  0.2200 -0.0094 -0.0620
 2381POPC   C4A28832   0.138  10.167  17.518 -0.0453 -0.0003  0.0125
 2381POPC   C1B28833   0.749  10.063  16.558 -0.1251 -0.1962 -0.1122
 2381POPC   C2B28834   0.804   9.996  17.033 -0.0497 -0.1595  0.0008
 2381POPC   C3B28835   1.153   9.831  17.236 -0.0686  0.1864 -0.0590
 2381POPC   C4B28836   1.361   9.463  17.371  0.1520 -0.0606  0.2668
 2382POPC   NC328837  26.678  23.023  15.170  0.0405  0.0902  0.3011
 2382POPC   PO428838  26.711  23.194  15.515  0.2969 -0.1194 -0.2693
 2382POPC   GL128839  26.758  23.177  15.908 -0.0040 -0.0557  0.2759
 2382POPC   GL228840  26.631  22.933  15.910 -0.2689 -0.2011 -0.0260
 2382POPC   C1A28841  26.844  23.443  16.249  0.0268 -0.0027 -0.3854
 2382POPC   D2A28842  26.941  23.530  16.699 -0.3026  0.1695 -0.1839
 2382POPC   C3A28843  27.256  23.581  16.995  0.0267 -0.0397  0.2651
 2382POPC   C4A28844  27.604  23.270  17.186  0.2236  0.0899 -0.0833
 2382POPC   C1B28845  26.524  23.040  16.330  0.1360  0.0718 -0.0232
 2382POPC   C2B28846  26.545  22.976  16.800  0.0329 -0.0387  0.2092
 2382POPC   C3B28847  26.345  22.753  17.175 -0.0360 -0.2989 -0.3297
 2382POPC   C4B28848  26.420  22.455  17.561 -0.0543 -0.1193  0.1412
 2383POPC   NC328849   4.368  22.532  15.411 -0.1460  0.1645 -0.0991
 2383POPC   PO428850   4.720  22.441  15.555 -0.1498  0.0768 -0.0716
 2383POPC   GL128851   4.939  22.547  15.920  0.0521  0.0341 -0.0558
 2383POPC   GL228852   4.924  22.747  15.905  0.1589  0.0127 -0.1424
 2383POPC   C1A28853   5.418  22.603  16.001 -0.0714  0.1034  0.1819
 2383POPC   D2A28854   5.778  22.788  16.196 -0.2086  0.0736 -0.0033
 2383POPC   C3A28855   5.694  23.042  16.527  0.0149  0.1207 -0.0738
 2383POPC   C4A28856   5.590  23.301  16.922  0.2993  0.1584  0.1139
 2383POPC   C1B28857   4.793  22.817  16.305 -0.1045  0.1770 -0.0138
 2383POPC   C2B28858   4.515  22.749  16.672  0.0653 -0.1129 -0.2161
 2383POPC   C3B28859   4.267  22.743  17.079  0.1847  0.2341 -0.0804
 2383POPC   C4B28860   4.121  22.388  17.325  0.0052  0.1178  0.0088
 2384POPC   NC328861  10.119  24.159  14.812 -0.1434 -0.0635  0.1031
 2384POPC   PO428862   9.808  24.350  14.936 -0.1518 -0.0055 -0.1861
 2384POPC   GL128863   9.769  24.329  15.303 -0.1381 -0.1446  0.2416
 2384POPC   GL228864   9.872  24.592  15.406 -0.2885 -0.0390 -0.0622
 2384POPC   C1A28865   9.892  24.081  15.691 -0.0402 -0.0244  0.1784
 2384POPC   D2A28866  10.106  24.082  16.051  0.0445 -0.0270 -0.0506
 2384POPC   C3A28867  10.183  24.226  16.531  0.0023 -0.0362 -0.1538
 2384POPC   C4A28868   9.972  24.575  16.713  0.0945 -0.0801  0.0113
 2384POPC   C1B28869  10.122  24.603  15.796  0.1626  0.0210 -0.1657
 2384POPC   C2B28870  10.108  24.664  16.255  0.1528  0.2139  0.2511
 2384POPC   C3B28871  10.183  24.986  16.598 -0.2497 -0.0388 -0.1729
 2384POPC   C4B28872  10.454  25.053  16.973  0.0790  0.1587  0.0979
 2385POPC   NC328873  22.097  28.494  15.721  0.1776  0.1533  0.1408
 2385POPC   PO428874  22.165  28.114  15.736  0.0618  0.0136  0.1347
 2385POPC   GL128875  22.277  28.067  16.059 -0.3131  0.1221 -0.0148
 2385POPC   GL228876  22.227  28.350  16.189 -0.0567 -0.0723  0.3987
 2385POPC   C1A28877  22.041  27.940  16.436  0.0469 -0.0282 -0.0929
 2385POPC   D2A28878  22.035  28.098  16.868 -0.0955 -0.0353 -0.3582
 2385POPC   C3A28879  22.271  28.447  17.041 -0.0172 -0.0201 -0.0580
 2385POPC   C4A28880  22.064  28.878  17.191 -0.0727 -0.1974  0.0343
 2385POPC   C1B28881  22.475  28.237  16.573  0.3904 -0.0262  0.1684
 2385POPC   C2B28882  22.469  27.816  16.866 -0.1048 -0.1837  0.1282
 2385POPC   C3B28883  22.504  27.433  17.222 -0.1694 -0.0452  0.0218
 2385POPC   C4B28884  22.541  27.087  17.516  0.0287 -0.0437 -0.4267
 2386POPC   NC328885  13.960   7.503  15.362  0.0296  0.1445  0.3007
 2386POPC   PO428886  14.219   7.261  15.479  0.2320  0.2992 -0.2833
 2386POPC   GL128887  14.176   7.317  15.932 -0.2258  0.0131  0.1623
 2386POPC   GL228888  14.270   7.584  15.971  0.1032  0.2097  0.0737
 2386POPC   C1A28889  14.411   7.014  16.214 -0.0207  0.0646  0.0292
 2386POPC   D2A28890  14.562   6.678  16.544  0.1562 -0.0695 -0.1893
 2386POPC   C3A28891  14.950   6.754  16.767  0.1638 -0.2466  0.1509
 2386POPC   C4A28892  15.407   6.539  16.844  0.0145  0.1677  0.1963
 2386POPC   C1B28893  14.372   7.486  16.403  0.1004  0.1552 -0.1126
 2386POPC   C2B28894  14.503   7.554  16.853  0.2391  0.1814  0.2707
 2386POPC   C3B28895  14.425   7.423  17.250 -0.2163 -0.2410  0.1556
 2386POPC   C4B28896  14.472   7.346  17.718 -0.0679  0.0952  0.1090
 2387POPC   NC328897  23.178  23.248  14.847 -0.0851  0.0253  0.0190
 2387POPC   PO428898  22.795  23.344  14.743  0.0692 -0.3387 -0.0399
 2387POPC   GL128899  22.709  23.478  15.135 -0.3488  0.0449  0.0641
 2387POPC   GL228900  22.526  23.221  15.226 -0.1471 -0.2451  0.2534
 2387POPC   C1A28901  22.920  23.567  15.530 -0.4149 -0.1374 -0.1567
 2387POPC   D2A28902  23.153  23.336  15.827  0.0805 -0.1216 -0.3958
 2387POPC   C3A28903  23.306  23.276  16.285 -0.2275 -0.0616 -0.2023
 2387POPC   C4A28904  23.328  23.011  16.666 -0.2391  0.2042 -0.2517
 2387POPC   C1B28905  22.520  23.069  15.627 -0.0892  0.2857 -0.2807
 2387POPC   C2B28906  22.677  23.410  15.983 -0.1710 -0.0547  0.2306
 2387POPC   C3B28907  22.565  23.622  16.349  0.1714 -0.1625 -0.0613
 2387POPC   C4B28908  22.347  23.652  16.761  0.2905  0.3612 -0.1322
 2388POPC   NC328909  26.591  21.361  14.994 -0.2677 -0.3753  0.0605
 2388POPC   PO428910  26.331  21.649  15.135  0.1256 -0.1029  0.0627
 2388POPC   GL128911  26.367  21.683  15.509 -0.3275 -0.4578  0.0003
 2388POPC   GL228912  26.626  21.546  15.557  0.1056 -0.1526 -0.0073
 2388POPC   C1A28913  26.039  21.738  15.850 -0.0882  0.1119 -0.1665
 2388POPC   D2A28914  25.829  21.927  16.228 -0.2526 -0.2898  0.0371
 2388POPC   C3A28915  25.703  21.652  16.583  0.2213  0.0219 -0.0883
 2388POPC   C4A28916  25.585  21.549  17.004 -0.1207 -0.2859 -0.2300
 2388POPC   C1B28917  26.478  21.607  16.002  0.1381 -0.0051  0.0789
 2388POPC   C2B28918  26.542  21.487  16.429 -0.1823  0.0596 -0.2879
 2388POPC   C3B28919  26.325  21.077  16.585  0.2443  0.1223 -0.2839
 2388POPC   C4B28920  26.174  20.649  16.717 -0.0703  0.1182 -0.2651
 2389POPC   NC328921  17.026   5.152  15.426 -0.0031  0.0383  0.2812
 2389POPC   PO428922  17.203   4.851  15.223 -0.2717 -0.0982  0.1511
 2389POPC   GL128923  17.161   4.717  15.671  0.2101  0.0227 -0.3084
 2389POPC   GL228924  17.381   4.833  15.799 -0.0158  0.3739 -0.2911
 2389POPC   C1A28925  17.036   4.581  16.114 -0.0086  0.0923  0.1133
 2389POPC   D2A28926  17.244   4.641  16.552  0.1523  0.1130 -0.0184
 2389POPC   C3A28927  17.098   4.823  16.966  0.0448  0.1677 -0.4221
 2389POPC   C4A28928  17.020   5.233  17.193  0.1598  0.3609  0.1277
 2389POPC   C1B28929  17.704   4.701  16.116 -0.2833  0.1833  0.0820
 2389POPC   C2B28930  17.863   4.636  16.539 -0.1811  0.0122  0.4321
 2389POPC   C3B28931  17.756   4.583  17.049 -0.2403  0.0234  0.3479
 2389POPC   C4B28932  17.524   4.257  17.273 -0.0427  0.0783  0.2248
 2390POPC   NC328933  25.006  15.948  15.484  0.0267 -0.2204 -0.0045
 2390POPC   PO428934  24.788  16.277  15.561  0.0831  0.1029 -0.2280
 2390POPC   GL128935  24.936  16.048  15.957  0.1269 -0.1160 -0.2072
 2390POPC   GL228936  25.137  15.832  15.953 -0.0716  0.0240  0.0464
 2390POPC   C1A28937  24.787  15.883  16.359  0.1970  0.0879  0.2736
 2390POPC   D2A28938  24.708  15.736  16.753 -0.1362  0.2921  0.1279
 2390POPC   C3A28939  24.323  15.940  16.973 -0.0165  0.1097  0.2007
 2390POPC   C4A28940  24.029  16.110  17.334 -0.2359  0.0376  0.1072
 2390POPC   C1B28941  25.056  15.423  16.194  0.0577  0.0594 -0.2033
 2390POPC   C2B28942  24.952  15.144  16.535 -0.0806  0.0927  0.0796
 2390POPC   C3B28943  24.974  14.910  16.888 -0.0427 -0.1105  0.1701
 2390POPC   C4B28944  25.199  14.935  17.274 -0.2752  0.0882 -0.0924
 2391POPC   NC328945  18.861  20.544  15.275 -0.3978 -0.1750  0.5082
 2391POPC   PO428946  18.996  20.258  15.024 -0.1387 -0.5452  0.0334
 2391POPC   GL128947  18.989  20.045  15.407  0.2300 -0.1111 -0.3326
 2391POPC   GL228948  18.799  19.901  15.394  0.1656  0.0745 -0.2283
 2391POPC   C1A28949  19.043  20.318  15.789 -0.0618  0.0820  0.0693
 2391POPC   D2A28950  19.339  20.395  16.184 -0.4409 -0.2603 -0.1123
 2391POPC   C3A28951  19.481  20.497  16.629  0.0787  0.3329 -0.3870
 2391POPC   C4A28952  19.699  20.726  17.029  0.2519  0.0651 -0.0176
 2391POPC   C1B28953  18.872  19.803  15.853  0.1735 -0.3157 -0.4910
 2391POPC   C2B28954  18.994  19.739  16.288  0.4503  0.1487  0.0761
 2391POPC   C3B28955  19.137  20.048  16.575 -0.0392  0.1572 -0.1672
 2391POPC   C4B28956  18.984  20.483  16.590  0.0567  0.1881  0.0684
 2392POPC   NC328957  16.570  16.862  14.946  0.0358  0.2334  0.1770
 2392POPC   PO428958  16.949  16.735  14.889 -0.3254  0.0218  0.0765
 2392POPC   GL128959  16.989  16.811  15.322 -0.0670  0.4149 -0.3190
 2392POPC   GL228960  16.760  16.710  15.471  0.0104 -0.0526 -0.2843
 2392POPC   C1A28961  17.076  16.955  15.747 -0.1828 -0.2572  0.0830
 2392POPC   D2A28962  17.021  17.114  16.195 -0.1955 -0.1016  0.2779
 2392POPC   C3A28963  16.711  16.928  16.429  0.0195  0.1836 -0.0912
 2392POPC   C4A28964  16.412  16.989  16.788 -0.0779  0.0324  0.1251
 2392POPC   C1B28965  17.099  16.456  15.638 -0.2429 -0.1336  0.0059
 2392POPC   C2B28966  17.524  16.199  15.613  0.5187 -0.2714 -0.1550
 2392POPC   C3B28967  17.855  16.119  15.917 -0.0987  0.0227  0.0990
 2392POPC   C4B28968  18.203  15.862  16.037 -0.0894 -0.2071  0.0638
 2393POPC   NC328969  12.817  11.656  15.370 -0.2538  0.2504 -0.2230
 2393POPC   PO428970  12.483  11.587  15.571  0.0264 -0.2828  0.3092
 2393POPC   GL128971  12.397  11.494  15.925 -0.4341  0.0292  0.1414
 2393POPC   GL228972  12.398  11.188  15.905 -0.1488 -0.3434  0.2196
 2393POPC   C1A28973  12.015  11.396  16.193  0.1302 -0.1258  0.1405
 2393POPC   D2A28974  11.981  11.143  16.641  0.3147 -0.0953 -0.0814
 2393POPC   C3A28975  11.649  11.060  16.884  0.1589  0.0542  0.0830
 2393POPC   C4A28976  11.689  11.045  17.238 -0.0527 -0.1085  0.0038
 2393POPC   C1B28977  12.561  11.290  16.359  0.0720  0.2094  0.0136
 2393POPC   C2B28978  12.533  11.301  16.773  0.3395  0.1494  0.2600
 2393POPC   C3B28979  12.773  11.089  17.127 -0.3099 -0.0175 -0.1517
 2393POPC   C4B28980  12.900  10.760  17.430 -0.0730  0.2228  0.0282
 2394POPC   NC328981   1.959   9.044  14.870 -0.0259 -0.1764  0.2452
 2394POPC   PO428982   2.002   9.109  15.242  0.0953 -0.1380 -0.1290
 2394POPC   GL128983   2.116   9.048  15.661  0.3235  0.0791 -0.3609
 2394POPC   GL228984   2.208   9.339  15.785  0.0289 -0.2382  0.2040
 2394POPC   C1A28985   2.426   8.978  16.020  0.1678 -0.0133  0.0031
 2394POPC   D2A28986   2.352   9.094  16.454 -0.0728 -0.0503 -0.2609
 2394POPC   C3A28987   2.647   9.244  16.716  0.0362 -0.2315  0.1249
 2394POPC   C4A28988   2.928   9.354  17.039 -0.1711 -0.0568 -0.0223
 2394POPC   C1B28989   2.028   9.355  16.199 -0.2582  0.1482 -0.1374
 2394POPC   C2B28990   2.058   9.515  16.611  0.1335 -0.0699  0.0528
 2394POPC   C3B28991   1.853   9.519  17.002  0.0801  0.2901  0.0797
 2394POPC   C4B28992   1.674   9.832  17.255  0.0071 -0.0818 -0.3890
 2395POPC   NC328993   7.819  22.811  15.322 -0.2102  0.2117  0.1669
 2395POPC   PO428994   7.816  22.398  15.443 -0.2263 -0.1021  0.0636
 2395POPC   GL128995   7.869  22.354  15.849 -0.2511 -0.1530 -0.1639
 2395POPC   GL228996   7.958  22.671  15.849  0.0683  0.0067  0.1665
 2395POPC   C1A28997   7.946  22.450  16.298 -0.1350  0.1624 -0.2882
 2395POPC   D2A28998   7.859  22.481  16.775  0.1133 -0.0722 -0.0017
 2395POPC   C3A28999   7.709  22.238  17.167  0.1400 -0.3472  0.0002
 2395POPC   C4A29000   7.795  22.236  17.623 -0.1504  0.2071  0.1954
 2395POPC   C1B29001   7.834  23.082  16.073  0.0001 -0.3563 -0.0987
 2395POPC   C2B29002   7.935  23.404  16.325  0.2197  0.1467  0.1921
 2395POPC   C3B29003   7.907  23.465  16.807 -0.1040 -0.1289 -0.0317
 2395POPC   C4B29004   7.913  23.726  17.219 -0.0920  0.0401  0.2092
 2396POPC   NC329005  21.011   4.202  14.728 -0.5217 -0.0954  0.0881
 2396POPC   PO429006  20.847   4.408  14.994 -0.0116 -0.0402 -0.0354
 2396POPC   GL129007  20.661   4.071  15.345 -0.4058  0.2942 -0.0118
 2396POPC   GL229008  20.653   3.883  15.047  0.1735 -0.1052  0.0446
 2396POPC   C1A29009  20.638   4.078  15.808  0.0388  0.2429  0.0066
 2396POPC   D2A29010  20.793   3.949  16.199 -0.0495 -0.2111 -0.1244
 2396POPC   C3A29011  20.569   3.997  16.564  0.1302 -0.1516  0.1132
 2396POPC   C4A29012  20.734   4.115  16.939  0.1619 -0.0710 -0.0951
 2396POPC   C1B29013  20.864   3.546  15.255 -0.1628 -0.1832 -0.0200
 2396POPC   C2B29014  20.907   3.101  15.179 -0.2271  0.0500 -0.1422
 2396POPC   C3B29015  21.105   2.816  14.929 -0.1501 -0.1338 -0.0738
 2396POPC   C4B29016  21.127   2.346  14.826 -0.1951 -0.0224  0.0251
 2397POPC   NC329017  17.169  10.705  15.222 -0.1187  0.1749  0.2221
 2397POPC   PO429018  17.424  10.842  15.442 -0.2296  0.1973  0.2374
 2397POPC   GL129019  17.224  10.850  15.795  0.2164  0.0182 -0.1349
 2397POPC   GL229020  16.975  10.724  15.760  0.0065 -0.3212  0.1993
 2397POPC   C1A29021  17.369  10.834  16.218 -0.2817  0.1270  0.1949
 2397POPC   D2A29022  17.357  11.112  16.620  0.0952 -0.3695 -0.4374
 2397POPC   C3A29023  17.410  11.499  16.887  0.0892  0.0732 -0.0067
 2397POPC   C4A29024  17.294  11.678  17.318 -0.0465  0.0227  0.1331
 2397POPC   C1B29025  16.776  10.456  16.114  0.0628  0.3712  0.2440
 2397POPC   C2B29026  16.702  10.319  16.553  0.1280 -0.0195  0.0651
 2397POPC   C3B29027  16.813  10.238  16.966  0.0288  0.3957 -0.1899
 2397POPC   C4B29028  17.151  10.404  17.269  0.0482  0.0575 -0.0507
 2398POPC   NC329029  21.081  14.042  14.645  0.0990  0.4058  0.0499
 2398POPC   PO429030  20.860  14.156  14.912 -0.3708 -0.0028  0.1149
 2398POPC   GL129031  20.629  14.305  15.107 -0.2335  0.2063 -0.0036
 2398POPC   GL229032  20.726  14.432  15.351  0.0740 -0.0130  0.0560
 2398POPC   C1A29033  20.210  14.278  15.324 -0.0909  0.4365 -0.0829
 2398POPC   D2A29034  19.922  14.549  15.559  0.0981 -0.0150 -0.0364
 2398POPC   C3A29035  19.877  14.654  15.989 -0.2237  0.0957  0.0677
 2398POPC   C4A29036  19.967  14.972  16.294 -0.0272  0.1072  0.2333
 2398POPC   C1B29037  20.665  14.147  15.721  0.2099  0.1770  0.2954
 2398POPC   C2B29038  20.460  14.119  16.163  0.0067 -0.1767  0.0040
 2398POPC   C3B29039  20.418  14.159  16.624 -0.0075  0.4495  0.2267
 2398POPC   C4B29040  20.651  14.233  16.961 -0.0514  0.1082 -0.0314
 2399POPC   NC329041   0.437  12.904  15.527  0.0683 -0.1965  0.3329
 2399POPC   PO429042   0.080  13.047  15.600  0.2670 -0.2261 -0.1461
 2399POPC   GL129043  -0.043  13.130  15.984  0.0902  0.5061  0.2789
 2399POPC   GL229044   0.145  13.364  16.040 -0.1884 -0.0685  0.1706
 2399POPC   C1A29045  -0.052  13.152  16.443  0.1181  0.1126 -0.2973
 2399POPC   D2A29046   0.005  13.339  16.846  0.0382  0.0598 -0.2100
 2399POPC   C3A29047  -0.118  13.792  16.799 -0.0571  0.0706 -0.1455
 2399POPC   C4A29048  -0.067  14.135  17.071  0.1586 -0.0681 -0.5009
 2399POPC   C1B29049   0.366  13.016  16.225 -0.0730 -0.0466 -0.2517
 2399POPC   C2B29050   0.275  12.828  16.655  0.1318  0.0732 -0.0484
 2399POPC   C3B29051   0.236  12.987  17.082 -0.0117 -0.2228 -0.1706
 2399POPC   C4B29052   0.540  12.983  17.446 -0.4456 -0.1138  0.0156
 2400POPC   NC329053  23.429  29.620  15.262  0.0574  0.0422  0.0472
 2400POPC   PO429054  23.688  29.889  15.328  0.0138 -0.0455 -0.0119
 2400POPC   GL129055  23.759  30.116  15.644  0.3712  0.3495  0.0091
 2400POPC   GL229056  23.875  29.870  15.803 -0.0978  0.0334  0.0230
 2400POPC   C1A29057  23.632  30.165  16.110  0.1440  0.0944 -0.1527
 2400POPC   D2A29058  23.607  29.925  16.529  0.1033  0.0841  0.0639
 2400POPC   C3A29059  23.584  29.605  16.937 -0.0521 -0.2492  0.1655
 2400POPC   C4A29060  23.874  29.343  17.176  0.3100  0.0586 -0.0513
 2400POPC   C1B29061  24.004  29.818  16.225  0.0722 -0.3395  0.0149
 2400POPC   C2B29062  24.040  29.691  16.671  0.3164 -0.0999 -0.1876
 2400POPC   C3B29063  24.159  29.787  17.151  0.1665 -0.2455 -0.1918
 2400POPC   C4B29064  24.442  29.933  17.485  0.2677  0.2793  0.1216
 2401POPC   NC329065  12.464  25.943  14.802 -0.0361 -0.1236 -0.2154
 2401POPC   PO429066  12.754  25.683  14.688  0.2496  0.0265  0.1831
 2401POPC   GL129067  12.847  25.740  15.037  0.0652 -0.3216  0.2296
 2401POPC   GL229068  12.672  25.797  15.249 -0.0007  0.3330  0.1594
 2401POPC   C1A29069  13.117  26.022  15.292 -0.0450  0.0316  0.0907
 2401POPC   D2A29070  13.447  26.369  15.410 -0.2099  0.2829  0.3812
 2401POPC   C3A29071  13.708  26.099  15.718  0.1378 -0.1466 -0.0419
 2401POPC   C4A29072  13.853  25.723  16.008  0.2804 -0.3678 -0.2493
 2401POPC   C1B29073  12.838  25.642  15.635 -0.0138 -0.2961 -0.3807
 2401POPC   C2B29074  13.012  25.669  16.071  0.3420  0.1064 -0.1937
 2401POPC   C3B29075  13.376  25.646  16.256 -0.2895 -0.1028  0.3841
 2401POPC   C4B29076  13.695  25.916  16.481  0.2295  0.0195 -0.0302
 2402POPC   NC329077  22.713  25.659  15.158 -0.1405  0.1216  0.2174
 2402POPC   PO429078  22.576  25.994  15.304 -0.2424 -0.0884  0.3801
 2402POPC   GL129079  22.653  25.990  15.680 -0.1049 -0.1690 -0.3690
 2402POPC   GL229080  22.353  25.952  15.761  0.2053 -0.0517 -0.1230
 2402POPC   C1A29081  22.742  25.808  16.071 -0.1247  0.1790  0.0509
 2402POPC   D2A29082  22.795  25.646  16.507  0.0600  0.1504 -0.2158
 2402POPC   C3A29083  22.862  25.327  16.809 -0.0917 -0.2233 -0.0301
 2402POPC   C4A29084  23.029  25.019  17.120 -0.2716 -0.0472 -0.0283
 2402POPC   C1B29085  22.234  25.643  16.079 -0.0024 -0.0369 -0.1519
 2402POPC   C2B29086  22.268  25.608  16.507  0.0620 -0.0794 -0.1258
 2402POPC   C3B29087  22.408  25.774  16.914 -0.1781 -0.0787  0.1122
 2402POPC   C4B29088  22.815  25.903  17.188 -0.1392  0.1872 -0.1746
 2403POPC   NC329089  28.016  11.182  15.045 -0.2354  0.0994 -0.2314
 2403POPC   PO429090  28.118  10.806  15.000 -0.4350  0.0358  0.0083
 2403POPC   GL129091  27.880  10.675  15.318  0.0219  0.0162  0.2348
 2403POPC   GL229092  28.036  10.659  15.585  0.1202  0.1266  0.3209
 2403POPC   C1A29093  27.531  10.767  15.594 -0.0257 -0.0584  0.0213
 2403POPC   D2A29094  27.397  10.883  16.064  0.3851 -0.1032  0.0487
 2403POPC   C3A29095  27.473  10.546  16.392  0.0526 -0.1242 -0.0308
 2403POPC   C4A29096  27.484  10.332  16.776 -0.3740  0.2479  0.0353
 2403POPC   C1B29097  27.901  10.617  16.031  0.1852 -0.0743  0.0472
 2403POPC   C2B29098  27.967  10.616  16.454 -0.1181  0.0172 -0.1545
 2403POPC   C3B29099  27.895  10.665  16.848 -0.1007 -0.0398  0.0110
 2403POPC   C4B29100  28.129  10.630  17.206  0.1146  0.0557  0.1322
 2404POPC   NC329101  30.180  21.571  15.394 -0.2227 -0.2203  0.1922
 2404POPC   PO429102  29.810  21.458  15.281 -0.0009  0.4082  0.0334
 2404POPC   GL129103  29.727  21.617  15.626  0.3378 -0.7005  0.0088
 2404POPC   GL229104  29.670  21.876  15.801  0.0340  0.1904 -0.2880
 2404POPC   C1A29105  30.031  21.504  15.964 -0.0395 -0.0909 -0.1770
 2404POPC   D2A29106  29.962  21.244  16.328 -0.2321 -0.1319 -0.2337
 2404POPC   C3A29107  30.183  21.343  16.737  0.0333  0.1163  0.1510
 2404POPC   C4A29108  30.166  21.599  17.047 -0.1407  0.0661 -0.1525
 2404POPC   C1B29109  29.170  21.752  15.870  0.0390  0.0400  0.0550
 2404POPC   C2B29110  28.777  21.702  16.124  0.1733  0.0358 -0.1783
 2404POPC   C3B29111  28.618  21.925  16.438 -0.0986 -0.1160 -0.3010
 2404POPC   C4B29112  28.250  21.884  16.706 -0.1104  0.0858  0.2582
 2405POPC   NC329113   9.183  10.717  15.238 -0.0554 -0.1025  0.1391
 2405POPC   PO429114   9.179  10.346  15.125  0.1577  0.0851 -0.0649
 2405POPC   GL129115   9.034  10.396  15.515 -0.2451  0.1676 -0.3726
 2405POPC   GL229116   8.942  10.112  15.578 -0.0630  0.4191  0.0807
 2405POPC   C1A29117   9.022  10.418  15.992 -0.0200  0.1166 -0.0921
 2405POPC   D2A29118   9.081  10.337  16.394  0.4203  0.0660  0.0876
 2405POPC   C3A29119   8.760  10.430  16.715 -0.0138  0.2419 -0.2394
 2405POPC   C4A29120   8.324  10.540  16.779 -0.2288  0.1791 -0.2469
 2405POPC   C1B29121   8.822   9.924  15.944  0.1163  0.2565  0.1151
 2405POPC   C2B29122   8.649   9.861  16.370  0.1835 -0.2056  0.2622
 2405POPC   C3B29123   8.397  10.032  16.641  0.2848 -0.0347  0.4231
 2405POPC   C4B29124   8.139   9.949  16.983  0.0600  0.1326  0.2978
 2406POPC   NC329125  31.067   3.936  15.322  0.0460 -0.1511  0.1701
 2406POPC   PO429126  31.436   3.891  15.381 -0.1743 -0.1043  0.0164
 2406POPC   GL129127  31.388   3.949  15.896 -0.2830  0.2939  0.0749
 2406POPC   GL229128  31.140   3.905  15.885  0.1308  0.2068 -0.0988
 2406POPC   C1A29129  31.284   4.128  16.290 -0.1753 -0.1157 -0.0381
 2406POPC   D2A29130  31.347   4.564  16.470 -0.1341 -0.1852  0.0185
 2406POPC   C3A29131  31.557   4.909  16.760 -0.2615  0.0715 -0.1386
 2406POPC   C4A29132  31.682   5.145  17.190 -0.1658  0.1638  0.3833
 2406POPC   C1B29133  31.106   3.562  16.189  0.1534  0.1027 -0.1176
 2406POPC   C2B29134  31.208   3.455  16.595  0.0186 -0.3313  0.0856
 2406POPC   C3B29135  31.482   3.415  16.943 -0.0380 -0.0291 -0.0414
 2406POPC   C4B29136  31.611   3.225  17.332 -0.1515  0.1696  0.1841
 2407POPC   NC329137   9.073   9.078  14.941 -0.1907 -0.3052  0.1554
 2407POPC   PO429138   9.292   9.115  15.276 -0.0209  0.0889  0.1416
 2407POPC   GL129139   9.214   9.052  15.702  0.3815  0.1398 -0.0061
 2407POPC   GL229140   8.925   9.020  15.650 -0.0665  0.2747  0.4161
 2407POPC   C1A29141   9.369   9.207  16.105 -0.0616 -0.1994  0.1933
 2407POPC   D2A29142   9.361   9.299  16.537  0.3286  0.0348  0.3695
 2407POPC   C3A29143   9.618   9.122  16.868  0.1581  0.0604 -0.0299
 2407POPC   C4A29144   9.427   9.042  17.225 -0.0530 -0.1448  0.0169
 2407POPC   C1B29145   8.652   9.090  15.954  0.1244 -0.0143 -0.0678
 2407POPC   C2B29146   8.592   9.018  16.396  0.2516  0.0108 -0.2178
 2407POPC   C3B29147   8.594   8.752  16.755 -0.1284  0.0493 -0.0026
 2407POPC   C4B29148   8.674   8.329  17.031 -0.3746 -0.3119  0.0211
 2408POPC   NC329149  14.527   6.548  14.887  0.0039  0.0171  0.2437
 2408POPC   PO429150  14.294   6.774  15.162 -0.1686  0.2327 -0.3958
 2408POPC   GL129151  14.288   6.792  15.575 -0.2852 -0.2745  0.0620
 2408POPC   GL229152  14.324   6.503  15.652 -0.1671  0.2740 -0.0210
 2408POPC   C1A29153  14.041   6.847  15.968  0.2196 -0.1215  0.1342
 2408POPC   D2A29154  13.964   6.848  16.449 -0.4368 -0.2128 -0.0247
 2408POPC   C3A29155  14.106   6.736  16.876  0.0818  0.0438  0.0723
 2408POPC   C4A29156  13.920   6.617  17.323  0.1758 -0.1122  0.0976
 2408POPC   C1B29157  14.572   6.550  16.013 -0.0979  0.0826 -0.3007
 2408POPC   C2B29158  14.982   6.537  16.279 -0.1375  0.0654 -0.1686
 2408POPC   C3B29159  15.336   6.751  16.375 -0.4854 -0.2935 -0.2040
 2408POPC   C4B29160  15.667   6.946  16.640 -0.0778  0.0973  0.2214
 2409POPC   NC329161  17.094  29.103  15.214  0.1606 -0.1725  0.1533
 2409POPC   PO429162  16.930  29.397  15.430 -0.2972 -0.3228  0.1060
 2409POPC   GL129163  16.794  29.324  15.843 -0.0810 -0.0148  0.2052
 2409POPC   GL229164  16.683  29.568  15.914 -0.0465  0.1984  0.1741
 2409POPC   C1A29165  17.125  29.240  16.193 -0.2754  0.1465  0.0039
 2409POPC   D2A29166  17.487  29.061  16.376  0.0061 -0.0051  0.0657
 2409POPC   C3A29167  17.587  29.144  16.850  0.3188 -0.1315 -0.0189
 2409POPC   C4A29168  18.007  29.306  17.057 -0.0787 -0.1964 -0.0401
 2409POPC   C1B29169  16.917  29.712  16.302  0.1477 -0.0291  0.0495
 2409POPC   C2B29170  16.938  29.975  16.642  0.1092 -0.1347  0.0170
 2409POPC   C3B29171  16.626  30.118  16.941  0.3100  0.0425 -0.2980
 2409POPC   C4B29172  16.467  30.430  17.263  0.1786  0.1023  0.0574
 2410POPC   NC329173  18.018  14.431  15.035 -0.1626  0.0350  0.4574
 2410POPC   PO429174  17.768  14.318  15.239  0.2329 -0.0715 -0.3620
 2410POPC   GL129175  17.718  14.267  15.625 -0.3236  0.0163 -0.3533
 2410POPC   GL229176  17.466  14.236  15.814  0.3896  0.1438  0.0808
 2410POPC   C1A29177  17.880  14.472  16.030  0.0537 -0.0999 -0.0168
 2410POPC   D2A29178  17.830  14.633  16.407 -0.2138  0.0198 -0.1810
 2410POPC   C3A29179  17.798  15.019  16.642 -0.3270  0.2488 -0.1401
 2410POPC   C4A29180  17.740  15.470  16.772  0.3020  0.2008 -0.0106
 2410POPC   C1B29181  17.509  14.299  16.271  0.1563  0.0951 -0.1044
 2410POPC   C2B29182  17.351  14.270  16.694  0.0120 -0.0894  0.0517
 2410POPC   C3B29183  17.242  14.015  17.108 -0.3867 -0.1821 -0.1460
 2410POPC   C4B29184  17.554  13.832  17.346 -0.0906  0.1895 -0.2645
 2411POPC   NC329185  19.086  10.256  15.216  0.0014 -0.1930  0.0131
 2411POPC   PO429186  18.753  10.364  15.293  0.3358 -0.3045 -0.0178
 2411POPC   GL129187  18.794  10.165  15.593  0.0193  0.2709  0.2783
 2411POPC   GL229188  19.036  10.188  15.741 -0.0721 -0.1851 -0.2461
 2411POPC   C1A29189  18.543   9.860  15.941  0.1986 -0.1163  0.2070
 2411POPC   D2A29190  18.421  10.102  16.312 -0.2497  0.0131  0.2541
 2411POPC   C3A29191  18.495   9.916  16.746  0.1457 -0.1456  0.2091
 2411POPC   C4A29192  18.791  10.110  17.049  0.1332 -0.3359  0.0834
 2411POPC   C1B29193  18.744  10.324  16.070  0.1636  0.2912 -0.1248
 2411POPC   C2B29194  18.748  10.701  16.331 -0.2312  0.1418 -0.0105
 2411POPC   C3B29195  18.861  10.770  16.765  0.2067  0.2988 -0.3146
 2411POPC   C4B29196  18.952  10.631  17.239 -0.0161 -0.0534  0.2888
 2412POPC   NC329197   9.848   2.411  15.393  0.0267  0.2111 -0.0865
 2412POPC   PO429198  10.170   2.188  15.382 -0.4927  0.2782  0.2000
 2412POPC   GL129199  10.401   1.904  15.550  0.1892 -0.1121 -0.2672
 2412POPC   GL229200  10.342   1.726  15.750 -0.0788 -0.0164  0.1807
 2412POPC   C1A29201  10.784   1.990  15.773  0.1210 -0.1541  0.3205
 2412POPC   D2A29202  10.869   1.942  16.218  0.1910 -0.2290  0.1394
 2412POPC   C3A29203  10.892   1.557  16.487  0.0388 -0.0412 -0.0102
 2412POPC   C4A29204  11.232   1.351  16.703 -0.2395  0.0502 -0.0267
 2412POPC   C1B29205  10.372   1.906  16.156  0.1623  0.0834 -0.0631
 2412POPC   C2B29206  10.133   1.970  16.562  0.0073  0.0627  0.3254
 2412POPC   C3B29207  10.107   2.067  17.024 -0.1298  0.0560  0.2013
 2412POPC   C4B29208  10.029   1.833  17.446 -0.1724 -0.2904 -0.4873
 2413POPC   NC329209  15.550   6.737  15.466  0.0049  0.3155 -0.4804
 2413POPC   PO429210  15.251   6.506  15.338  0.2508 -0.1609  0.1127
 2413POPC   GL129211  14.979   6.469  15.710  0.1037 -0.2775  0.0074
 2413POPC   GL229212  15.144   6.660  15.831  0.0223 -0.2515  0.3105
 2413POPC   C1A29213  14.803   6.135  15.991  0.1984  0.1082 -0.0217
 2413POPC   D2A29214  14.604   6.114  16.409 -0.1787 -0.1200  0.2144
 2413POPC   C3A29215  14.763   6.264  16.858  0.0527  0.1293 -0.0090
 2413POPC   C4A29216  15.018   6.516  17.154 -0.0793 -0.2886  0.3117
 2413POPC   C1B29217  15.501   6.949  15.901 -0.0482 -0.0542  0.0351
 2413POPC   C2B29218  15.760   7.288  16.083 -0.2602  0.0100 -0.1577
 2413POPC   C3B29219  15.676   7.418  16.554  0.1974 -0.1508 -0.1975
 2413POPC   C4B29220  15.704   7.363  17.032  0.1094  0.2244  0.2097
 2414POPC   NC329221  12.205  14.197  14.763 -0.2168 -0.0529  0.0557
 2414POPC   PO429222  12.188  14.141  15.148  0.0494  0.1083 -0.0765
 2414POPC   GL129223  12.156  13.948  15.499  0.0712 -0.1271  0.0971
 2414POPC   GL229224  12.398  13.907  15.676 -0.0651  0.0613 -0.3337
 2414POPC   C1A29225  11.990  14.074  15.921 -0.2137 -0.1276 -0.0548
 2414POPC   D2A29226  11.816  14.167  16.323  0.0163 -0.0456 -0.0590
 2414POPC   C3A29227  11.905  14.088  16.765  0.3700 -0.1917  0.3567
 2414POPC   C4A29228  11.868  14.135  17.231  0.2265 -0.1455  0.2926
 2414POPC   C1B29229  12.411  13.867  16.125 -0.4141  0.0715 -0.2368
 2414POPC   C2B29230  12.181  13.736  16.550 -0.1084  0.0107  0.0298
 2414POPC   C3B29231  12.096  13.706  17.066 -0.2407  0.2408  0.2758
 2414POPC   C4B29232  12.168  13.395  17.386  0.1466  0.2033  0.0851
 2415POPC   NC329233   3.353   9.952  15.115  0.0013 -0.0547 -0.0315
 2415POPC   PO429234   3.728   9.830  15.109 -0.0932 -0.0555  0.4435
 2415POPC   GL129235   3.947   9.821  15.494 -0.3455 -0.0326  0.0025
 2415POPC   GL229236   3.929  10.134  15.526  0.2968  0.1661  0.0155
 2415POPC   C1A29237   4.176   9.600  15.828 -0.1457 -0.2380 -0.1122
 2415POPC   D2A29238   4.098   9.187  16.037  0.1583 -0.2377 -0.0941
 2415POPC   C3A29239   4.206   9.210  16.472  0.0504 -0.2520  0.0146
 2415POPC   C4A29240   4.264   9.532  16.773  0.1979  0.1150 -0.4555
 2415POPC   C1B29241   4.100  10.500  15.755 -0.3918  0.0218 -0.4483
 2415POPC   C2B29242   4.194  10.571  16.163  0.1868 -0.2861  0.1802
 2415POPC   C3B29243   4.490  10.697  16.434  0.2139  0.2353 -0.1638
 2415POPC   C4B29244   4.648  10.578  16.866 -0.0079 -0.0630 -0.2380
 2416POPC   NC329245  22.901  26.359  15.457 -0.0322 -0.1807 -0.0764
 2416POPC   PO429246  23.232  26.538  15.288 -0.0736  0.4259 -0.0460
 2416POPC   GL129247  23.337  26.338  15.685 -0.2118  0.0086  0.0390
 2416POPC   GL229248  23.467  26.629  15.720 -0.0889 -0.3512  0.2501
 2416POPC   C1A29249  23.645  26.224  16.035  0.0260 -0.2374 -0.0537
 2416POPC   D2A29250  23.855  26.262  16.430 -0.0301 -0.0057 -0.1715
 2416POPC   C3A29251  24.311  26.201  16.588 -0.1722 -0.2034  0.0055
 2416POPC   C4A29252  24.764  26.243  16.505 -0.1111  0.0868 -0.1875
 2416POPC   C1B29253  23.352  26.683  16.184 -0.1804  0.2152  0.0621
 2416POPC   C2B29254  23.389  26.682  16.644  0.3139 -0.0805  0.1698
 2416POPC   C3B29255  23.465  26.355  16.906 -0.0783 -0.2575 -0.0634
 2416POPC   C4B29256  23.185  26.248  17.259 -0.1518  0.1056  0.0333
 2417POPC   NC329257  21.853  10.146  15.377 -0.0132 -0.0454 -0.2209
 2417POPC   PO429258  21.666   9.827  15.260 -0.2605  0.2604 -0.1260
 2417POPC   GL129259  21.561   9.843  15.652 -0.0303 -0.3220  0.3024
 2417POPC   GL229260  21.443  10.122  15.736 -0.4247 -0.0728  0.0188
 2417POPC   C1A29261  21.467   9.581  15.968 -0.1621  0.1512 -0.1425
 2417POPC   D2A29262  21.331   9.620  16.444 -0.0620  0.2321  0.3085
 2417POPC   C3A29263  21.055   9.355  16.738  0.1523 -0.3349  0.2040
 2417POPC   C4A29264  21.009   9.237  17.197  0.1175  0.0678 -0.1799
 2417POPC   C1B29265  21.636  10.457  16.033 -0.1562  0.1538 -0.4109
 2417POPC   C2B29266  21.685  10.529  16.470  0.1939  0.3803 -0.1588
 2417POPC   C3B29267  21.520  10.802  16.835 -0.2139  0.0315  0.3969
 2417POPC   C4B29268  21.501  10.902  17.288 -0.0281 -0.1237 -0.1188
 2418POPC   NC329269   4.929  25.594  15.365  0.0233 -0.0448  0.3966
 2418POPC   PO429270   5.102  25.292  15.236 -0.0310  0.0221 -0.2085
 2418POPC   GL129271   5.469  25.329  15.551 -0.1350  0.0337  0.1726
 2418POPC   GL229272   5.341  25.191  15.741  0.1280  0.1880  0.3885
 2418POPC   C1A29273   5.648  25.576  15.915 -0.0472  0.2623  0.0395
 2418POPC   D2A29274   5.872  25.569  16.293 -0.0560 -0.2611  0.1429
 2418POPC   C3A29275   6.018  25.682  16.683 -0.1319  0.0692 -0.1019
 2418POPC   C4A29276   6.414  25.544  16.860  0.0487 -0.1701 -0.3241
 2418POPC   C1B29277   5.340  25.321  16.217 -0.2358  0.0329 -0.2964
 2418POPC   C2B29278   5.488  25.464  16.623  0.0347 -0.0479  0.1450
 2418POPC   C3B29279   5.314  25.659  16.994  0.0721  0.0093 -0.1300
 2418POPC   C4B29280   5.582  25.665  17.364  0.1401  0.2801  0.1705
 2419POPC   NC329281   3.697   8.824  14.549 -0.0303 -0.1919 -0.0244
 2419POPC   PO429282   3.912   9.097  14.759 -0.1427 -0.1430 -0.0546
 2419POPC   GL129283   4.136   9.047  15.119 -0.2093 -0.2920  0.0587
 2419POPC   GL229284   4.415   9.027  15.226  0.0184 -0.0813 -0.3746
 2419POPC   C1A29285   3.945   9.231  15.519 -0.3578  0.0947 -0.0704
 2419POPC   D2A29286   3.641   9.366  15.847 -0.0579 -0.2258 -0.1048
 2419POPC   C3A29287   3.711   9.794  15.904 -0.0468  0.1713  0.2489
 2419POPC   C4A29288   4.110  10.047  15.969  0.4224  0.0606  0.1636
 2419POPC   C1B29289   4.462   9.237  15.641  0.2136 -0.3863 -0.1851
 2419POPC   C2B29290   4.532   9.312  16.115  0.0575 -0.1303  0.1563
 2419POPC   C3B29291   4.653   9.356  16.550  0.1685 -0.2146  0.2619
 2419POPC   C4B29292   4.735   9.589  16.973 -0.2336  0.2970  0.1357
 2420POPC   NC329293  21.070  18.836  15.312 -0.1178 -0.3531  0.3488
 2420POPC   PO429294  21.038  19.132  15.555 -0.0242  0.0555 -0.1097
 2420POPC   GL129295  21.110  19.038  15.890  0.3806  0.2711  0.1818
 2420POPC   GL229296  21.087  18.813  16.070  0.2345 -0.2793  0.2309
 2420POPC   C1A29297  21.396  19.215  16.201 -0.3825  0.0758 -0.1069
 2420POPC   D2A29298  21.494  19.113  16.618  0.1696  0.1995  0.1087
 2420POPC   C3A29299  21.264  19.209  16.995  0.2298  0.1617  0.1215
 2420POPC   C4A29300  21.225  19.432  17.407  0.1809 -0.3237  0.2359
 2420POPC   C1B29301  20.882  19.006  16.448  0.2777 -0.1642 -0.0258
 2420POPC   C2B29302  20.798  19.242  16.817 -0.3018  0.0667 -0.0561
 2420POPC   C3B29303  20.733  19.249  17.270  0.0197 -0.2292 -0.1537
 2420POPC   C4B29304  20.568  18.895  17.503 -0.1783  0.0194  0.0637
 2421POPC   NC329305  13.701  10.209  14.569 -0.0419 -0.4726  0.1613
 2421POPC   PO429306  13.502  10.176  14.928 -0.0224 -0.1527 -0.0860
 2421POPC   GL129307  13.838  10.127  15.146  0.3212 -0.2278 -0.2936
 2421POPC   GL229308  14.055   9.965  14.937  0.3094  0.0064 -0.1695
 2421POPC   C1A29309  13.920  10.318  15.554  0.0093  0.3445  0.0678
 2421POPC   D2A29310  13.750  10.432  16.020 -0.1196 -0.3702 -0.0707
 2421POPC   C3A29311  13.988  10.300  16.410  0.1106  0.1627 -0.0602
 2421POPC   C4A29312  14.324  10.015  16.347 -0.0092  0.1263  0.1540
 2421POPC   C1B29313  14.297  10.182  15.288  0.1602 -0.2524 -0.3429
 2421POPC   C2B29314  14.445  10.483  15.618 -0.4095  0.2892 -0.0795
 2421POPC   C3B29315  14.819  10.682  15.848  0.1884 -0.0078 -0.0160
 2421POPC   C4B29316  14.867  10.739  16.284  0.0393  0.0682 -0.1065
 2422POPC   NC329317  30.281  17.972  15.226  0.0855  0.1490 -0.1208
 2422POPC   PO429318  30.036  17.917  15.539 -0.2330  0.0616 -0.2757
 2422POPC   GL129319  30.043  17.966  15.842  0.0752  0.0130  0.0509
 2422POPC   GL229320  30.196  18.151  16.065  0.1356  0.1904 -0.3512
 2422POPC   C1A29321  29.760  17.968  16.245 -0.0770 -0.1744  0.2173
 2422POPC   D2A29322  29.553  18.085  16.644  0.0017  0.1407  0.1139
 2422POPC   C3A29323  29.159  18.018  16.836  0.0814 -0.0552  0.1454
 2422POPC   C4A29324  29.064  17.686  17.150  0.1921 -0.3541 -0.1537
 2422POPC   C1B29325  30.165  18.120  16.527  0.0048  0.0303 -0.0629
 2422POPC   C2B29326  29.951  17.873  16.881  0.0350  0.0583  0.4870
 2422POPC   C3B29327  29.635  18.062  17.187 -0.0050  0.1635  0.2021
 2422POPC   C4B29328  29.592  18.091  17.681 -0.0856  0.0906  0.1800
 2423POPC   NC329329  11.601  19.828  14.999  0.2323 -0.0100  0.2032
 2423POPC   PO429330  11.828  20.094  15.137  0.0205 -0.4049 -0.0693
 2423POPC   GL129331  11.668  19.939  15.456  0.4781  0.1064  0.2087
 2423POPC   GL229332  11.784  19.678  15.527 -0.0182  0.0387  0.1082
 2423POPC   C1A29333  11.566  20.066  15.900  0.0273  0.0420 -0.1068
 2423POPC   D2A29334  11.708  20.162  16.356 -0.2459  0.0991  0.2138
 2423POPC   C3A29335  11.696  19.868  16.736  0.1133  0.0290 -0.2004
 2423POPC   C4A29336  12.004  19.882  17.082  0.2884 -0.1274  0.1833
 2423POPC   C1B29337  12.141  19.501  15.730 -0.2856  0.2105  0.0545
 2423POPC   C2B29338  12.213  19.156  16.095 -0.0576  0.1289 -0.2482
 2423POPC   C3B29339  12.337  18.840  16.307  0.1377  0.1820 -0.0974
 2423POPC   C4B29340  12.611  18.712  16.628  0.3587  0.0657  0.1003
 2424POPC   NC329341  17.399  13.456  15.033 -0.4318 -0.0852 -0.1644
 2424POPC   PO429342  17.466  13.307  15.374 -0.3576  0.0220  0.0882
 2424POPC   GL129343  17.412  13.156  15.686  0.1369  0.1712  0.1760
 2424POPC   GL229344  17.534  13.337  15.884  0.2439  0.1738  0.1504
 2424POPC   C1A29345  17.713  12.904  15.937  0.0689  0.0619  0.3647
 2424POPC   D2A29346  17.794  12.791  16.298  0.2587 -0.1977  0.0200
 2424POPC   C3A29347  17.802  12.614  16.746  0.0639 -0.3332  0.0185
 2424POPC   C4A29348  17.809  12.321  17.115 -0.2210 -0.1013  0.2845
 2424POPC   C1B29349  17.537  13.307  16.344 -0.0468  0.1020 -0.1679
 2424POPC   C2B29350  17.595  13.035  16.703 -0.0908  0.1977 -0.2964
 2424POPC   C3B29351  17.575  12.844  17.114  0.1615  0.1470 -0.1165
 2424POPC   C4B29352  17.225  12.926  17.397 -0.0474  0.0361 -0.2204
 2425POPC   NC329353  26.561  12.994  14.681 -0.1909  0.1605 -0.3594
 2425POPC   PO429354  26.256  12.945  14.887 -0.1075 -0.2143 -0.2807
 2425POPC   GL129355  26.159  13.034  15.305  0.3398 -0.3111  0.4166
 2425POPC   GL229356  26.232  13.279  15.435  0.1321 -0.0506  0.0078
 2425POPC   C1A29357  26.330  12.893  15.728  0.1087  0.0460 -0.1130
 2425POPC   D2A29358  26.553  12.565  16.001  0.1306  0.1131  0.6051
 2425POPC   C3A29359  26.318  12.601  16.438 -0.0212  0.0381 -0.1236
 2425POPC   C4A29360  25.998  12.315  16.540  0.3595 -0.0483  0.1150
 2425POPC   C1B29361  26.088  13.312  15.877  0.1119 -0.2512  0.1811
 2425POPC   C2B29362  25.977  13.428  16.331 -0.2387  0.1292 -0.1227
 2425POPC   C3B29363  25.905  13.351  16.856 -0.0256 -0.0831  0.0016
 2425POPC   C4B29364  25.834  13.270  17.327 -0.0524  0.0799 -0.0714
 2426POPC   NC329365  10.215  19.245  15.444  0.1962  0.6033  0.1776
 2426POPC   PO429366  10.135  18.822  15.424  0.0572 -0.4385  0.0585
 2426POPC   GL129367  10.126  18.892  15.788 -0.1487 -0.0880 -0.1303
 2426POPC   GL229368  10.430  18.905  15.921 -0.0306 -0.0151  0.0015
 2426POPC   C1A29369   9.853  18.721  16.147  0.1921 -0.0476 -0.3311
 2426POPC   D2A29370   9.752  18.814  16.603  0.2246 -0.2351 -0.0514
 2426POPC   C3A29371   9.819  18.637  17.033 -0.0125 -0.4774 -0.1828
 2426POPC   C4A29372   9.561  18.444  17.378 -0.1447  0.0771  0.0797
 2426POPC   C1B29373  10.402  18.630  16.261  0.1274 -0.1033 -0.2713
 2426POPC   C2B29374  10.550  18.410  16.614  0.1762  0.1110  0.1806
 2426POPC   C3B29375  10.747  18.143  16.899  0.1055  0.0754  0.0946
 2426POPC   C4B29376  10.926  18.042  17.294  0.2791  0.0610  0.1867
 2427POPC   NC329377   4.766   6.318  15.619  0.2776 -0.0282  0.6067
 2427POPC   PO429378   4.391   6.150  15.469  0.2787 -0.0258 -0.0995
 2427POPC   GL129379   4.270   6.278  15.837 -0.2787  0.2004  0.2929
 2427POPC   GL229380   4.364   6.143  15.990  0.0863 -0.0963 -0.0584
 2427POPC   C1A29381   4.473   6.655  16.162  0.4058 -0.3292 -0.1679
 2427POPC   D2A29382   4.575   6.788  16.555 -0.2179  0.0007 -0.3175
 2427POPC   C3A29383   4.698   6.557  16.909  0.1510  0.2287  0.0462
 2427POPC   C4A29384   4.800   6.166  17.191  0.0829 -0.2380 -0.0173
 2427POPC   C1B29385   4.554   5.859  16.318 -0.1730 -0.0304  0.3026
 2427POPC   C2B29386   4.595   5.838  16.763  0.0439 -0.0682 -0.0937
 2427POPC   C3B29387   4.605   5.674  17.209 -0.0423 -0.0068  0.2106
 2427POPC   C4B29388   4.561   5.591  17.621  0.0636  0.0197 -0.4945
 2428POPC   NC329389  31.411  23.278  14.429 -0.0247  0.1952 -0.2399
 2428POPC   PO429390  31.649  23.100  14.668 -0.2562 -0.0438 -0.1068
 2428POPC   GL129391  31.486  23.081  15.095  0.0639  0.2558  0.3117
 2428POPC   GL229392  31.181  23.040  15.252  0.0390 -0.3605  0.0518
 2428POPC   C1A29393  31.657  23.127  15.538  0.0089  0.3227 -0.2006
 2428POPC   D2A29394  31.644  23.156  15.985 -0.1170 -0.0969  0.4174
 2428POPC   C3A29395  31.891  23.023  16.362 -0.0814  0.1554  0.1003
 2428POPC   C4A29396  31.968  23.032  16.788 -0.0525 -0.0294  0.0831
 2428POPC   C1B29397  31.150  23.123  15.654  0.1755  0.1909 -0.0462
 2428POPC   C2B29398  30.927  23.428  15.889  0.2688  0.3422  0.0324
 2428POPC   C3B29399  30.911  23.851  16.047 -0.2312 -0.0253  0.0544
 2428POPC   C4B29400  30.853  24.297  15.931 -0.0908 -0.0160 -0.0010
 2429POPC   NC329401  14.030  29.745  15.350  0.0373 -0.1321  0.0263
 2429POPC   PO429402  13.988  29.420  15.158 -0.1174 -0.0828  0.1229
 2429POPC   GL129403  13.764  29.327  15.461 -0.0373  0.3505  0.2780
 2429POPC   GL229404  13.945  29.371  15.717  0.1000  0.1976 -0.2374
 2429POPC   C1A29405  13.517  29.648  15.592 -0.1100 -0.3305 -0.0555
 2429POPC   D2A29406  13.168  29.935  15.778  0.4201 -0.0177  0.0500
 2429POPC   C3A29407  13.093  29.854  16.207  0.2036 -0.0104 -0.0870
 2429POPC   C4A29408  13.239  29.914  16.632 -0.1451  0.2536 -0.0899
 2429POPC   C1B29409  14.085  29.758  15.948 -0.1064  0.2689  0.2733
 2429POPC   C2B29410  14.312  29.922  16.323 -0.2483  0.2033 -0.1108
 2429POPC   C3B29411  14.310  30.133  16.685 -0.2925  0.0714  0.0345
 2429POPC   C4B29412  14.412  29.939  17.114  0.0234 -0.0340  0.3735
 2430POPC   NC329413  19.717  24.925  15.444  0.0207  0.3304 -0.1419
 2430POPC   PO429414  20.011  24.950  15.209 -0.2057  0.1118  0.3603
 2430POPC   GL129415  20.169  24.860  15.562  0.0478 -0.0974  0.0954
 2430POPC   GL229416  20.174  24.615  15.553 -0.0502  0.1791  0.1406
 2430POPC   C1A29417  20.249  25.071  15.978  0.1227 -0.0468 -0.2535
 2430POPC   D2A29418  20.268  25.501  16.280  0.0446 -0.0461  0.0099
 2430POPC   C3A29419  20.094  25.893  16.375  0.0189  0.1696 -0.2324
 2430POPC   C4A29420  20.113  26.306  16.597 -0.0651  0.1891  0.4831
 2430POPC   C1B29421  20.119  24.539  15.964  0.2442 -0.1883 -0.2812
 2430POPC   C2B29422  20.152  24.666  16.398  0.2772  0.0581  0.1751
 2430POPC   C3B29423  20.038  24.621  16.833 -0.5301  0.0230  0.1077
 2430POPC   C4B29424  19.842  24.382  17.157  0.2806 -0.2022 -0.0880
 2431POPC   NC329425  20.226   0.352  14.890 -0.0109  0.2718 -0.1889
 2431POPC   PO429426  20.497   0.213  14.644  0.1328  0.0263 -0.2592
 2431POPC   GL129427  20.867   0.319  14.645 -0.6130 -0.6401  0.1338
 2431POPC   GL229428  20.913   0.566  14.821 -0.0114  0.0726 -0.1411
 2431POPC   C1A29429  21.214   0.451  14.344  0.2288  0.1631  0.0885
 2431POPC   D2A29430  21.654   0.608  14.141 -0.2487  0.0003 -0.1741
 2431POPC   C3A29431  21.490   0.993  13.946  0.0919  0.1238  0.2285
 2431POPC   C4A29432  21.532   1.484  13.928  0.1560  0.4723  0.1543
 2431POPC   C1B29433  20.948   0.613  15.310  0.0416 -0.2497 -0.1884
 2431POPC   C2B29434  20.963   0.754  15.770  0.2809 -0.0713 -0.1053
 2431POPC   C3B29435  21.045   0.975  16.158  0.1250  0.0958 -0.0660
 2431POPC   C4B29436  21.094   1.237  16.545 -0.1062 -0.0260 -0.2985
 2432POPC   NC329437   0.949  26.960  15.284 -0.0092  0.1201 -0.1192
 2432POPC   PO429438   1.128  26.621  15.195 -0.1854 -0.0641  0.1162
 2432POPC   GL129439   0.926  26.595  15.535 -0.0029 -0.1386  0.3724
 2432POPC   GL229440   1.047  26.352  15.647  0.1030  0.0537  0.1753
 2432POPC   C1A29441   0.664  26.469  15.953  0.1645  0.2466 -0.1261
 2432POPC   D2A29442   0.756  26.343  16.400  0.0321 -0.0628  0.0917
 2432POPC   C3A29443   1.157  26.352  16.609  0.2405 -0.1204 -0.0966
 2432POPC   C4A29444   1.391  26.494  17.015  0.0811 -0.1506  0.5165
 2432POPC   C1B29445   1.134  26.176  16.050 -0.1566 -0.2814 -0.2547
 2432POPC   C2B29446   1.099  25.897  16.335  0.1417  0.0231  0.0370
 2432POPC   C3B29447   1.408  25.524  16.443  0.0578 -0.0165 -0.0640
 2432POPC   C4B29448   1.428  25.249  16.778  0.1552 -0.2697 -0.0530
 2433POPC   NC329449  31.718  14.288  15.438 -0.1938  0.1311  0.1267
 2433POPC   PO429450  31.945  13.979  15.426 -0.1809 -0.0689  0.1224
 2433POPC   GL129451  32.038  14.014  15.816 -0.1064  0.1084  0.0337
 2433POPC   GL229452  31.841  13.978  15.992  0.0647 -0.1505 -0.3827
 2433POPC   C1A29453  32.390  13.886  16.075 -0.1724 -0.3287  0.2704
 2433POPC   D2A29454  32.440  13.867  16.526 -0.1211  0.2249  0.0497
 2433POPC   C3A29455  32.761  14.221  16.752  0.0223  0.2447  0.3051
 2433POPC   C4A29456  33.062  14.509  16.848 -0.3195 -0.0042 -0.3638
 2433POPC   C1B29457  31.845  14.227  16.375  0.2012  0.0066  0.2639
 2433POPC   C2B29458  32.057  14.107  16.777 -0.0087 -0.0167  0.0467
 2433POPC   C3B29459  32.385  13.882  17.012 -0.0888 -0.2621  0.0600
 2433POPC   C4B29460  32.703  13.777  17.343  0.0925 -0.1485  0.1678
 2434POPC   NC329461   6.975  28.388  14.972  0.1123 -0.2641 -0.0005
 2434POPC   PO429462   6.677  28.164  15.110 -0.1960 -0.2349  0.0323
 2434POPC   GL129463   6.730  28.220  15.472 -0.4859  0.1086 -0.0076
 2434POPC   GL229464   6.703  27.942  15.668  0.0841  0.0864 -0.0169
 2434POPC   C1A29465   6.611  28.531  15.790 -0.1143  0.2340  0.0547
 2434POPC   D2A29466   6.587  28.934  15.916  0.0473  0.0504  0.2743
 2434POPC   C3A29467   6.460  29.162  16.257 -0.0463 -0.1129 -0.0280
 2434POPC   C4A29468   6.177  29.222  16.601  0.1785  0.2928  0.0680
 2434POPC   C1B29469   6.325  28.058  15.895 -0.2659  0.3212  0.1875
 2434POPC   C2B29470   6.190  28.100  16.295 -0.2489 -0.1637  0.4173
 2434POPC   C3B29471   6.106  28.284  16.733  0.3177  0.1217  0.2981
 2434POPC   C4B29472   6.148  28.055  17.122  0.1680  0.0390 -0.0025
 2435POPC   NC329473  28.282  12.957  15.060 -0.0304 -0.1266 -0.3091
 2435POPC   PO429474  28.034  12.685  15.037  0.0154 -0.4265 -0.0658
 2435POPC   GL129475  27.942  12.665  15.454  0.2839  0.0087 -0.0755
 2435POPC   GL229476  27.643  12.580  15.397 -0.0145  0.0296  0.2306
 2435POPC   C1A29477  27.956  12.472  15.913 -0.0881 -0.2371  0.1508
 2435POPC   D2A29478  27.763  12.507  16.365 -0.1741 -0.2039 -0.1301
 2435POPC   C3A29479  27.576  12.810  16.689  0.1882  0.0336 -0.0840
 2435POPC   C4A29480  27.403  12.680  17.136 -0.2282  0.1200  0.2754
 2435POPC   C1B29481  27.550  12.808  15.756  0.1047 -0.0040 -0.0012
 2435POPC   C2B29482  27.264  12.786  16.120  0.0573  0.1987  0.0613
 2435POPC   C3B29483  27.170  12.607  16.492  0.0835 -0.1312  0.2056
 2435POPC   C4B29484  26.778  12.539  16.767 -0.2381 -0.1435 -0.3386
 2436POPC   NC329485   4.741  10.834  14.998 -0.0216 -0.1209 -0.0103
 2436POPC   PO429486   4.392  10.870  15.235 -0.0355  0.0797 -0.2664
 2436POPC   GL129487   4.617  10.839  15.558  0.1228  0.0669 -0.1170
 2436POPC   GL229488   4.689  11.067  15.749 -0.1578 -0.1690  0.1377
 2436POPC   C1A29489   4.690  10.568  15.954 -0.1761  0.0770  0.1542
 2436POPC   D2A29490   4.838  10.369  16.342 -0.2204  0.0554  0.1742
 2436POPC   C3A29491   5.046   9.999  16.279 -0.4207  0.2031 -0.0796
 2436POPC   C4A29492   5.009   9.483  16.181 -0.1524 -0.0622 -0.3903
 2436POPC   C1B29493   4.948  10.913  16.142 -0.1098 -0.1173 -0.1011
 2436POPC   C2B29494   5.012  10.793  16.589  0.0444  0.2161  0.1402
 2436POPC   C3B29495   5.208  10.378  16.614 -0.0266 -0.0152 -0.1505
 2436POPC   C4B29496   5.538  10.073  16.769  0.2212  0.0897 -0.1542
 2437POPC   NC329497  25.502  10.189  14.811  0.3346  0.2552  0.1049
 2437POPC   PO429498  25.405   9.974  15.109  0.0196 -0.0118  0.0004
 2437POPC   GL129499  25.348  10.071  15.449 -0.2888  0.0482 -0.3699
 2437POPC   GL229500  25.051  10.239  15.590  0.0240  0.0673  0.0792
 2437POPC   C1A29501  25.636   9.904  15.753  0.2435 -0.0402 -0.2127
 2437POPC   D2A29502  25.863   9.569  15.938 -0.1636  0.0340 -0.2192
 2437POPC   C3A29503  26.107   9.697  16.317 -0.2690  0.1885 -0.2474
 2437POPC   C4A29504  26.099   9.876  16.717 -0.2234  0.0193 -0.0777
 2437POPC   C1B29505  25.075  10.356  16.019 -0.1821  0.2567  0.2418
 2437POPC   C2B29506  25.164  10.250  16.436  0.0406  0.4016  0.0565
 2437POPC   C3B29507  25.129  10.313  16.869  0.0782  0.2146  0.2762
 2437POPC   C4B29508  25.241  10.713  17.145 -0.0080 -0.0375  0.0684
 2438POPC   NC329509  26.401  12.114  15.017 -0.2666 -0.1058  0.2305
 2438POPC   PO429510  26.513  12.442  14.792 -0.0991 -0.1815  0.1896
 2438POPC   GL129511  26.587  12.520  15.192 -0.2588  0.3248 -0.1007
 2438POPC   GL229512  26.514  12.743  15.270  0.2198 -0.0094  0.1544
 2438POPC   C1A29513  26.589  12.137  15.532  0.2955 -0.1176 -0.1407
 2438POPC   D2A29514  26.363  12.034  15.937 -0.0741  0.1520 -0.2523
 2438POPC   C3A29515  26.435  12.130  16.367  0.3217 -0.1201  0.3627
 2438POPC   C4A29516  26.367  12.247  16.825  0.0249 -0.2099 -0.0019
 2438POPC   C1B29517  26.870  12.548  15.533  0.0872  0.0250 -0.0312
 2438POPC   C2B29518  27.018  12.280  15.922  0.0052 -0.0356  0.1186
 2438POPC   C3B29519  26.942  12.171  16.387 -0.2209 -0.0795 -0.1950
 2438POPC   C4B29520  26.851  12.071  16.846  0.0668  0.1089  0.0117
 2439POPC   NC329521  22.322  24.608  14.567 -0.1819  0.2082  0.0083
 2439POPC   PO429522  22.557  24.814  14.830  0.0311  0.2081 -0.1801
 2439POPC   GL129523  22.790  24.829  15.203  0.0192  0.3876  0.2254
 2439POPC   GL229524  22.752  25.091  15.256 -0.0454  0.0255  0.0615
 2439POPC   C1A29525  23.108  24.670  15.459 -0.0241  0.1591  0.0046
 2439POPC   D2A29526  23.395  24.436  15.707 -0.1357 -0.0643  0.1580
 2439POPC   C3A29527  23.572  24.338  16.129 -0.0507  0.3480  0.1460
 2439POPC   C4A29528  23.790  24.431  16.528 -0.0040  0.3228  0.0931
 2439POPC   C1B29529  22.878  25.050  15.706  0.1658 -0.0357  0.0035
 2439POPC   C2B29530  22.702  24.759  16.063  0.2467 -0.0041  0.2443
 2439POPC   C3B29531  22.530  24.520  16.388  0.0778 -0.2867  0.0759
 2439POPC   C4B29532  22.251  24.101  16.447  0.1193 -0.2072 -0.2683
 2440POPC   NC329533  28.481  10.486  15.233 -0.2121  0.1092  0.1108
 2440POPC   PO429534  28.817  10.424  15.411  0.3772  0.0198 -0.0111
 2440POPC   GL129535  28.971  10.222  15.697  0.1169 -0.4030  0.3609
 2440POPC   GL229536  29.125  10.366  15.917 -0.2256 -0.0982  0.0684
 2440POPC   C1A29537  28.690  10.101  16.108 -0.2263 -0.1539 -0.0070
 2440POPC   D2A29538  28.653   9.931  16.549 -0.0402 -0.0888 -0.0300
 2440POPC   C3A29539  28.605  10.169  16.922  0.0327  0.0693 -0.2671
 2440POPC   C4A29540  28.541  10.402  17.275  0.0519 -0.0716 -0.0678
 2440POPC   C1B29541  29.228  10.258  16.391  0.1099 -0.1095  0.0974
 2440POPC   C2B29542  29.085   9.966  16.760  0.2874 -0.3069  0.2715
 2440POPC   C3B29543  28.809   9.664  16.964  0.0411  0.1656 -0.0525
 2440POPC   C4B29544  28.566   9.335  17.177  0.1502 -0.0466  0.2578
 2441POPC   NC329545  26.936   5.223  15.151  0.0563 -0.1902 -0.0999
 2441POPC   PO429546  26.757   4.979  15.403  0.0917  0.3839  0.1068
 2441POPC   GL129547  26.816   4.958  15.784 -0.2420  0.0784 -0.2757
 2441POPC   GL229548  26.823   4.755  15.908 -0.1443  0.1992  0.0177
 2441POPC   C1A29549  27.090   5.096  16.110 -0.0967  0.3964 -0.0972
 2441POPC   D2A29550  27.450   5.236  15.936  0.0345  0.2183 -0.2126
 2441POPC   C3A29551  27.863   5.187  16.229  0.0400 -0.3220  0.1295
 2441POPC   C4A29552  27.964   5.493  16.554 -0.3041  0.2536 -0.0645
 2441POPC   C1B29553  26.390   4.855  16.133  0.0194 -0.0077  0.1279
 2441POPC   C2B29554  26.321   4.815  16.545 -0.0716 -0.1122  0.1357
 2441POPC   C3B29555  26.220   5.067  16.916 -0.0829 -0.0964 -0.2019
 2441POPC   C4B29556  26.404   5.215  17.313 -0.0527  0.2123 -0.1268
 2442POPC   NC329557  16.137  29.902  15.470 -0.0721 -0.0305 -0.0158
 2442POPC   PO429558  15.837  30.088  15.261  0.0471  0.1570 -0.0660
 2442POPC   GL129559  15.997  30.353  15.564  0.0933 -0.1114  0.1664
 2442POPC   GL229560  16.159  30.265  15.817 -0.0427  0.0126  0.1658
 2442POPC   C1A29561  15.728  30.543  15.848  0.3192  0.0181 -0.2730
 2442POPC   D2A29562  15.624  30.902  16.133  0.2115  0.1259 -0.0551
 2442POPC   C3A29563  15.451  30.805  16.574 -0.1907  0.2121 -0.1242
 2442POPC   C4A29564  15.647  30.704  16.983 -0.2021  0.1650 -0.3296
 2442POPC   C1B29565  16.153  30.283  16.263  0.1180  0.1834 -0.0054
 2442POPC   C2B29566  16.385  30.427  16.640 -0.0149 -0.2276  0.1122
 2442POPC   C3B29567  16.790  30.563  16.704 -0.3501 -0.2289 -0.2470
 2442POPC   C4B29568  17.215  30.358  16.836  0.1317  0.0279  0.1772
 2443POPC   NC329569   8.572  28.900  15.358 -0.2629  0.1092  0.1397
 2443POPC   PO429570   8.778  28.578  15.226 -0.0722  0.1103  0.3018
 2443POPC   GL129571   8.684  28.434  15.553 -0.1485  0.5866  0.1283
 2443POPC   GL229572   9.016  28.309  15.609 -0.1634  0.1287  0.0309
 2443POPC   C1A29573   8.607  28.457  16.003  0.0632 -0.1896 -0.1685
 2443POPC   D2A29574   8.279  28.524  16.333 -0.2527  0.1411 -0.1144
 2443POPC   C3A29575   8.160  28.928  16.605 -0.0882 -0.1027 -0.2885
 2443POPC   C4A29576   7.870  29.299  16.416 -0.0518  0.1054 -0.1895
 2443POPC   C1B29577   8.954  28.084  16.049  0.0522  0.2537  0.2921
 2443POPC   C2B29578   8.786  28.065  16.494  0.3555  0.1666  0.3443
 2443POPC   C3B29579   8.879  27.907  16.867  0.1052  0.0628 -0.0191
 2443POPC   C4B29580   8.936  27.787  17.303  0.0011  0.1061 -0.0205
 2444POPC   NC329581  10.455   7.158  15.064 -0.1090 -0.1195  0.1996
 2444POPC   PO429582  10.820   7.240  15.229  0.1563 -0.0807  0.4017
 2444POPC   GL129583  10.882   7.162  15.554 -0.6398  0.1806 -0.0698
 2444POPC   GL229584  10.770   6.933  15.592  0.1241 -0.0248 -0.0145
 2444POPC   C1A29585  10.884   7.317  15.984 -0.1118  0.2871 -0.1091
 2444POPC   D2A29586  10.996   7.253  16.436  0.3758 -0.2052 -0.0346
 2444POPC   C3A29587  11.220   7.388  16.770  0.1766 -0.0161 -0.2477
 2444POPC   C4A29588  11.138   7.462  17.203  0.1734  0.1756  0.0833
 2444POPC   C1B29589  10.820   6.796  16.021  0.2859 -0.0645  0.3189
 2444POPC   C2B29590  10.825   6.572  16.381 -0.1971 -0.1522 -0.2598
 2444POPC   C3B29591  10.847   6.357  16.802  0.0867 -0.1619  0.0402
 2444POPC   C4B29592  11.188   6.169  16.933 -0.1830 -0.1225 -0.0014
 2445POPC   NC329593  26.839  25.886  15.184  0.0946  0.0615 -0.0844
 2445POPC   PO429594  26.668  25.646  15.488  0.3904  0.3544  0.2023
 2445POPC   GL129595  26.320  25.528  15.789 -0.1123  0.0313  0.1338
 2445POPC   GL229596  26.074  25.555  15.966  0.0353 -0.0084 -0.3089
 2445POPC   C1A29597  26.460  25.378  16.190 -0.0500  0.1032  0.1110
 2445POPC   D2A29598  26.632  25.609  16.523 -0.1471 -0.0614  0.1215
 2445POPC   C3A29599  27.015  25.905  16.559  0.3816  0.0824  0.3319
 2445POPC   C4A29600  27.340  26.244  16.483  0.0335 -0.2868  0.0789
 2445POPC   C1B29601  26.016  25.872  16.234 -0.0508 -0.0447  0.2074
 2445POPC   C2B29602  25.724  26.048  16.525 -0.0779 -0.0563  0.1695
 2445POPC   C3B29603  25.685  26.093  16.992  0.0528  0.1578  0.0944
 2445POPC   C4B29604  25.379  26.009  17.299 -0.0165 -0.5355 -0.1648
 2446POPC   NC329605  29.412  15.417  15.054  0.6791 -0.1167 -0.1394
 2446POPC   PO429606  29.350  15.082  15.282  0.1661  0.2224 -0.1271
 2446POPC   GL129607  29.269  15.038  15.637 -0.4625 -0.1446  0.2159
 2446POPC   GL229608  29.217  15.265  15.773  0.1860  0.3624 -0.0244
 2446POPC   C1A29609  29.243  14.942  16.135  0.1969 -0.1790  0.2393
 2446POPC   D2A29610  29.445  15.117  16.523 -0.0538 -0.0512 -0.2857
 2446POPC   C3A29611  29.174  15.099  16.871 -0.2525 -0.0271 -0.1550
 2446POPC   C4A29612  28.708  15.130  17.006 -0.1271 -0.1087 -0.3506
 2446POPC   C1B29613  29.318  15.440  16.213 -0.1565  0.2169 -0.2461
 2446POPC   C2B29614  29.265  15.611  16.652  0.0307  0.3465  0.2674
 2446POPC   C3B29615  28.878  15.578  16.946  0.0683 -0.1073  0.2135
 2446POPC   C4B29616  28.531  15.817  17.077 -0.1661 -0.2546  0.2900
 2447POPC   NC329617  31.527  27.465  15.826 -0.0824 -0.1168  0.0621
 2447POPC   PO429618  31.154  27.378  15.731  0.0128 -0.3823 -0.2706
 2447POPC   GL129619  31.057  27.395  16.059 -0.2727 -0.0382 -0.4653
 2447POPC   GL229620  31.194  27.688  16.158 -0.0479  0.1960 -0.0438
 2447POPC   C1A29621  31.070  27.061  16.360  0.1449 -0.2707  0.0531
 2447POPC   D2A29622  31.095  26.774  16.719 -0.2943  0.2599  0.0848
 2447POPC   C3A29623  31.263  26.398  16.897 -0.1707  0.3003 -0.0198
 2447POPC   C4A29624  31.574  26.103  17.041 -0.1383 -0.1682 -0.1719
 2447POPC   C1B29625  31.261  27.693  16.568 -0.0577 -0.0895  0.1707
 2447POPC   C2B29626  31.150  27.628  17.010  0.1936  0.0860  0.2595
 2447POPC   C3B29627  31.319  27.249  17.213 -0.1247  0.2119 -0.0910
 2447POPC   C4B29628  31.528  26.821  17.119 -0.2746  0.0551  0.1239
 2448POPC   NC329629  31.565   6.594  15.832 -0.0874  0.0915  0.2018
 2448POPC   PO429630  31.704   6.290  15.629  0.1051 -0.4281 -0.1439
 2448POPC   GL129631  31.584   6.085  16.023  0.1477  0.0623 -0.0377
 2448POPC   GL229632  31.744   6.275  16.147 -0.1790 -0.1313  0.0443
 2448POPC   C1A29633  31.267   6.384  16.202  0.1499 -0.0796 -0.2645
 2448POPC   D2A29634  31.104   6.785  16.304  0.0602 -0.2051 -0.2301
 2448POPC   C3A29635  30.973   6.721  16.762  0.4183 -0.1536 -0.0442
 2448POPC   C4A29636  30.716   6.580  17.122  0.2747 -0.2139  0.3889
 2448POPC   C1B29637  31.833   6.340  16.629  0.0169 -0.3069  0.2584
 2448POPC   C2B29638  32.145   6.254  16.941 -0.0874 -0.1206 -0.1011
 2448POPC   C3B29639  32.290   5.897  17.162 -0.2686  0.2022 -0.4013
 2448POPC   C4B29640  32.333   5.548  17.497 -0.1563  0.1880 -0.2423
 2449POPC   NC329641   8.989  25.864  15.477 -0.2743  0.1806 -0.1068
 2449POPC   PO429642   9.340  25.789  15.387 -0.0554  0.0351 -0.1916
 2449POPC   GL129643   9.389  25.795  15.722  0.0541 -0.1192  0.0224
 2449POPC   GL229644   9.564  26.090  15.807 -0.3251  0.0407  0.3596
 2449POPC   C1A29645   9.532  25.382  15.909  0.2090  0.1741 -0.4299
 2449POPC   D2A29646   9.422  25.119  16.276 -0.1772  0.0760 -0.1983
 2449POPC   C3A29647   9.551  24.710  16.457  0.0011 -0.1264  0.2160
 2449POPC   C4A29648   9.452  24.326  16.716 -0.0065 -0.1912  0.0543
 2449POPC   C1B29649   9.485  25.843  16.193  0.4465 -0.1377 -0.1078
 2449POPC   C2B29650   9.518  25.606  16.602 -0.0391 -0.2101  0.0918
 2449POPC   C3B29651   9.502  25.239  16.830 -0.0651 -0.2092 -0.0106
 2449POPC   C4B29652   9.909  25.004  17.004  0.3418  0.1390 -0.0468
 2450POPC   NC329653   3.745   7.185  15.134  0.0384 -0.1357 -0.2105
 2450POPC   PO429654   3.958   6.992  15.425  0.2871  0.2021  0.1540
 2450POPC   GL129655   3.799   7.268  15.708 -0.3983  0.5997 -0.0452
 2450POPC   GL229656   3.728   7.046  15.947  0.0418 -0.1409 -0.0740
 2450POPC   C1A29657   3.928   7.403  16.189 -0.1447  0.0056 -0.2940
 2450POPC   D2A29658   4.001   7.643  16.553 -0.0528 -0.1161  0.0901
 2450POPC   C3A29659   3.763   7.377  16.962 -0.1439  0.0072 -0.0301
 2450POPC   C4A29660   3.728   6.949  17.021  0.0637 -0.0480 -0.3225
 2450POPC   C1B29661   3.817   7.021  16.434  0.0133 -0.3180  0.2865
 2450POPC   C2B29662   4.116   7.032  16.783 -0.4315 -0.2287  0.3737
 2450POPC   C3B29663   4.204   6.799  17.144  0.0916  0.2948 -0.0239
 2450POPC   C4B29664   4.318   6.362  17.062 -0.1231  0.0469 -0.2794
 2451POPC   NC329665  30.520  10.515  15.540  0.0061  0.1292  0.1984
 2451POPC   PO429666  30.757  10.845  15.533 -0.2397 -0.0861 -0.0027
 2451POPC   GL129667  30.851  10.913  15.772  0.3334 -0.0609  0.0187
 2451POPC   GL229668  30.899  11.204  15.940  0.0442 -0.1148  0.0990
 2451POPC   C1A29669  30.851  10.704  16.187 -0.3038  0.1913  0.2072
 2451POPC   D2A29670  30.810  10.720  16.659 -0.1720  0.1410 -0.0660
 2451POPC   C3A29671  31.109  10.410  16.883 -0.0858 -0.0872  0.0980
 2451POPC   C4A29672  31.189  10.352  17.302 -0.1011  0.2893 -0.0975
 2451POPC   C1B29673  30.913  11.117  16.395 -0.0729  0.0556 -0.1458
 2451POPC   C2B29674  30.768  11.262  16.787  0.1397 -0.0345  0.2266
 2451POPC   C3B29675  30.712  11.205  17.219 -0.2039 -0.1828 -0.1605
 2451POPC   C4B29676  30.610  10.966  17.593  0.0008 -0.1391 -0.2662
 2452POPC   NC329677  16.573  31.475  14.893 -0.2086  0.3640 -0.0970
 2452POPC   PO429678  16.440  31.256  15.175 -0.0908 -0.0837  0.2194
 2452POPC   GL129679  16.266  31.439  15.375  0.2181  0.1635  0.1311
 2452POPC   GL229680  16.491  31.757  15.338 -0.1635 -0.0176 -0.0353
 2452POPC   C1A29681  15.844  31.471  15.531  0.4497 -0.2277 -0.2171
 2452POPC   D2A29682  15.579  31.858  15.513 -0.0399  0.1407  0.1673
 2452POPC   C3A29683  15.539  32.127  15.916 -0.0537 -0.2082  0.0799
 2452POPC   C4A29684  15.303  32.386  16.221 -0.1793  0.0067 -0.0001
 2452POPC   C1B29685  16.602  32.078  15.718 -0.0984 -0.1537  0.1242
 2452POPC   C2B29686  16.916  31.910  16.003  0.0778  0.1930  0.0666
 2452POPC   C3B29687  17.228  31.758  16.343 -0.1064 -0.2779 -0.0070
 2452POPC   C4B29688  17.236  31.417  16.656 -0.0051 -0.0997 -0.3169
 2453POPC   NC329689  10.921  22.954  14.968  0.2989  0.1807 -0.0891
 2453POPC   PO429690  10.586  22.733  14.936  0.0636 -0.4767  0.1056
 2453POPC   GL129691  10.665  22.574  15.355 -0.1481 -0.1539 -0.1355
 2453POPC   GL229692  10.652  22.875  15.372  0.2518  0.2922  0.0918
 2453POPC   C1A29693  10.776  22.590  15.834  0.1890 -0.2563  0.1737
 2453POPC   D2A29694  10.602  22.669  16.209  0.1725 -0.1110 -0.1235
 2453POPC   C3A29695  10.480  23.064  16.388 -0.0229  0.2108 -0.2615
 2453POPC   C4A29696  10.569  23.365  16.707 -0.3454 -0.0669 -0.1252
 2453POPC   C1B29697  10.930  23.015  15.688 -0.0807  0.2484  0.0389
 2453POPC   C2B29698  11.003  22.962  16.154 -0.1612 -0.0202  0.0372
 2453POPC   C3B29699  10.943  22.941  16.610 -0.3716 -0.0896 -0.2306
 2453POPC   C4B29700  11.065  23.138  17.064  0.0948  0.0463  0.2030
 2454POPC   NC329701   9.051  20.069  15.504  0.1312  0.1562  0.2883
 2454POPC   PO429702   9.070  20.441  15.484  0.0152  0.0026 -0.0342
 2454POPC   GL129703   9.296  20.434  15.745 -0.2495 -0.2080 -0.0286
 2454POPC   GL229704   9.161  20.443  15.964 -0.0815  0.1247 -0.0652
 2454POPC   C1A29705   9.611  20.195  16.011  0.0522  0.0039 -0.1240
 2454POPC   D2A29706   9.703  20.067  16.431 -0.2907 -0.1375  0.0200
 2454POPC   C3A29707   9.687  20.377  16.847 -0.0620  0.2232 -0.0308
 2454POPC   C4A29708   9.378  20.368  17.205  0.0115  0.0235  0.1279
 2454POPC   C1B29709   9.147  19.962  16.017 -0.0036 -0.1334 -0.0276
 2454POPC   C2B29710   8.977  19.630  15.802  0.0872 -0.1739  0.1596
 2454POPC   C3B29711   8.590  19.417  15.643 -0.0754 -0.2710  0.1645
 2454POPC   C4B29712   8.154  19.251  15.775 -0.3828  0.1557 -0.1135
 2455POPC   NC329713   0.966  12.580  15.115  0.0124  0.1493 -0.1877
 2455POPC   PO429714   0.780  12.514  15.437  0.1928 -0.1413 -0.1593
 2455POPC   GL129715   0.891  12.574  15.747  0.2536  0.2325  0.0582
 2455POPC   GL229716   0.771  12.848  15.903  0.0777  0.0184  0.1689
 2455POPC   C1A29717   1.071  12.473  16.152  0.1745  0.0154 -0.0266
 2455POPC   D2A29718   1.124  12.534  16.590 -0.0314 -0.3010 -0.3384
 2455POPC   C3A29719   1.435  12.763  16.888 -0.0493 -0.0665 -0.0757
 2455POPC   C4A29720   1.743  12.856  17.231 -0.0490  0.1269  0.0423
 2455POPC   C1B29721   0.838  12.915  16.305 -0.0008 -0.3043  0.0606
 2455POPC   C2B29722   0.797  12.995  16.761  0.1921  0.1499  0.0583
 2455POPC   C3B29723   0.987  12.865  17.129  0.0912 -0.0981  0.1680
 2455POPC   C4B29724   1.275  12.513  17.321  0.1854 -0.0233 -0.0290
 2456POPC   NC329725   5.646  30.059  14.801  0.0695 -0.1266 -0.1585
 2456POPC   PO429726   5.987  30.250  14.900  0.0072  0.3855 -0.0335
 2456POPC   GL129727   6.133  30.291  15.301  0.1302 -0.1682 -0.0453
 2456POPC   GL229728   6.061  30.110  15.471  0.2622  0.3299 -0.1110
 2456POPC   C1A29729   6.413  30.272  15.721 -0.0258 -0.2335  0.0223
 2456POPC   D2A29730   6.427  30.268  16.174  0.2921 -0.1885  0.1147
 2456POPC   C3A29731   6.309  30.252  16.593  0.0118  0.2730  0.1699
 2456POPC   C4A29732   6.535  30.518  16.906  0.2342  0.2013  0.4060
 2456POPC   C1B29733   6.211  29.870  15.840 -0.0907  0.2800  0.0749
 2456POPC   C2B29734   6.306  29.798  16.306 -0.0985 -0.0313  0.1507
 2456POPC   C3B29735   6.113  29.705  16.678 -0.0080  0.4667 -0.2223
 2456POPC   C4B29736   5.859  29.755  17.043  0.0806  0.0310  0.0239
 2457POPC   NC329737  18.807   2.462  14.986  0.3670  0.2516 -0.1471
 2457POPC   PO429738  18.992   2.138  15.190  0.2025 -0.4388 -0.0094
 2457POPC   GL129739  19.081   2.325  15.637 -0.0019  0.0061  0.0655
 2457POPC   GL229740  19.292   2.453  15.541 -0.0234  0.0566 -0.1540
 2457POPC   C1A29741  19.362   2.268  15.977  0.0610 -0.3636  0.1534
 2457POPC   D2A29742  19.538   2.413  16.305 -0.0621  0.0260  0.1408
 2457POPC   C3A29743  19.509   2.272  16.715  0.0509  0.0868 -0.0084
 2457POPC   C4A29744  19.428   1.893  17.006  0.1541 -0.1123  0.2131
 2457POPC   C1B29745  19.172   2.803  15.866  0.0597 -0.3782 -0.1125
 2457POPC   C2B29746  19.173   2.734  16.378 -0.2480 -0.1871 -0.0021
 2457POPC   C3B29747  19.090   2.585  16.787  0.0256  0.0724 -0.0581
 2457POPC   C4B29748  19.392   2.560  17.154  0.0634  0.0321 -0.2329
 2458POPC   NC329749  18.942  21.398  15.462 -0.2483 -0.1034 -0.0587
 2458POPC   PO429750  19.126  21.093  15.284 -0.0903  0.1773 -0.1661
 2458POPC   GL129751  18.923  21.001  15.652  0.2174 -0.1021 -0.0767
 2458POPC   GL229752  19.172  21.024  15.858 -0.1952  0.0368 -0.1093
 2458POPC   C1A29753  18.694  21.191  16.050  0.0460  0.0812  0.2410
 2458POPC   D2A29754  18.440  21.378  16.372 -0.0872  0.0547  0.2691
 2458POPC   C3A29755  18.198  21.329  16.804 -0.1431  0.0061 -0.0406
 2458POPC   C4A29756  17.710  21.190  16.843  0.2010 -0.1995  0.1760
 2458POPC   C1B29757  19.310  20.922  16.325  0.1954  0.0178  0.1450
 2458POPC   C2B29758  19.211  20.919  16.803 -0.1251  0.2177  0.0386
 2458POPC   C3B29759  19.248  20.645  17.170 -0.3076  0.3111 -0.1714
 2458POPC   C4B29760  19.489  20.396  17.468 -0.0035 -0.0204 -0.3807
 2459POPC   NC329761  10.364  11.661  15.010  0.1971 -0.0677 -0.1923
 2459POPC   PO429762  10.271  12.068  15.045  0.0348 -0.2201 -0.1483
 2459POPC   GL129763  10.071  11.932  15.278  0.0524  0.1145 -0.0258
 2459POPC   GL229764  10.123  11.708  15.443 -0.2131  0.0320  0.2143
 2459POPC   C1A29765   9.983  12.022  15.759  0.0971  0.1803 -0.2161
 2459POPC   D2A29766   9.913  12.022  16.294  0.4122  0.0435 -0.1985
 2459POPC   C3A29767  10.081  11.824  16.661  0.3269  0.0367  0.1068
 2459POPC   C4A29768   9.957  11.667  17.078  0.1918 -0.0250 -0.1833
 2459POPC   C1B29769   9.873  11.535  15.731  0.2861  0.1190 -0.1028
 2459POPC   C2B29770   9.528  11.341  15.928 -0.1244 -0.1563 -0.1358
 2459POPC   C3B29771   9.614  11.118  16.345 -0.0569  0.0118 -0.3326
 2459POPC   C4B29772   9.796  11.128  16.752  0.0638  0.1596 -0.1492
 2460POPC   NC329773  23.824  20.680  15.247  0.1614  0.2068  0.3112
 2460POPC   PO429774  23.451  20.666  15.447 -0.0476  0.1361  0.1386
 2460POPC   GL129775  23.616  20.474  15.692  0.0192  0.0656 -0.1820
 2460POPC   GL229776  23.365  20.429  15.869 -0.2491 -0.0824 -0.2394
 2460POPC   C1A29777  23.840  20.637  16.053 -0.0989  0.1831  0.0121
 2460POPC   D2A29778  23.775  20.982  16.387  0.3487 -0.0287 -0.0002
 2460POPC   C3A29779  23.656  21.142  16.808 -0.0835  0.0001 -0.0064
 2460POPC   C4A29780  23.458  20.958  17.235  0.2542  0.0774 -0.1642
 2460POPC   C1B29781  23.457  20.303  16.351 -0.1180  0.0521 -0.0318
 2460POPC   C2B29782  23.346  20.141  16.809 -0.0608  0.2168 -0.2071
 2460POPC   C3B29783  23.396  19.851  17.161  0.1490  0.2080  0.1717
 2460POPC   C4B29784  23.626  19.565  17.469 -0.0215 -0.1432 -0.2353
 2461POPC   NC329785   8.735   8.008  15.132  0.1000  0.2854  0.0676
 2461POPC   PO429786   9.139   8.112  15.137 -0.0353 -0.0395 -0.0443
 2461POPC   GL129787   9.113   8.257  15.458 -0.1481 -0.2530  0.2380
 2461POPC   GL229788   8.995   8.049  15.584 -0.0852  0.1801 -0.0708
 2461POPC   C1A29789   9.332   8.467  15.812  0.3326 -0.2009 -0.0819
 2461POPC   D2A29790   9.096   8.822  16.071  0.2206  0.1443 -0.1317
 2461POPC   C3A29791   9.096   8.926  16.552 -0.2165  0.1497  0.3355
 2461POPC   C4A29792   8.949   9.229  16.851 -0.2017 -0.1930  0.0129
 2461POPC   C1B29793   8.855   7.685  15.861 -0.0588  0.3435 -0.0423
 2461POPC   C2B29794   8.818   7.692  16.323  0.1710 -0.1285 -0.0008
 2461POPC   C3B29795   8.753   8.044  16.582 -0.0003  0.0229  0.1673
 2461POPC   C4B29796   8.369   8.299  16.656 -0.1791  0.2690  0.0173
 2462POPC   NC329797  15.208  15.409  15.103  0.1064  0.1239  0.2420
 2462POPC   PO429798  15.433  15.154  15.269  0.0576  0.2888 -0.0357
 2462POPC   GL129799  15.467  15.089  15.584  0.2303  0.0527 -0.0118
 2462POPC   GL229800  15.484  14.823  15.694 -0.0882 -0.2756 -0.1082
 2462POPC   C1A29801  15.224  15.033  15.986  0.2677 -0.1409 -0.1124
 2462POPC   D2A29802  15.132  15.131  16.452 -0.0386 -0.2227  0.1581
 2462POPC   C3A29803  14.860  15.377  16.741  0.0806  0.1177  0.0755
 2462POPC   C4A29804  14.628  15.483  17.170  0.0864 -0.0040 -0.0125
 2462POPC   C1B29805  15.795  15.011  15.923  0.0722  0.0610 -0.1121
 2462POPC   C2B29806  16.058  15.141  16.288  0.0064  0.1382 -0.3435
 2462POPC   C3B29807  16.336  15.415  16.445  0.0787  0.0073 -0.2775
 2462POPC   C4B29808  16.796  15.428  16.558  0.2534  0.2448  0.1159
 2463POPC   NC329809   2.079  18.425  14.913  0.0336  0.2053 -0.1109
 2463POPC   PO429810   1.918  18.659  15.192  0.3620 -0.4811 -0.0979
 2463POPC   GL129811   1.967  18.840  15.521  0.1613  0.2775 -0.1020
 2463POPC   GL229812   1.706  18.758  15.630 -0.0982 -0.4685 -0.1077
 2463POPC   C1A29813   2.136  18.778  15.934 -0.1085  0.0052 -0.1374
 2463POPC   D2A29814   2.396  18.859  16.258  0.0935  0.0901 -0.1081
 2463POPC   C3A29815   2.703  18.674  16.500 -0.0251  0.2800  0.1700
 2463POPC   C4A29816   2.861  18.488  16.825  0.0295 -0.1356  0.1326
 2463POPC   C1B29817   1.711  18.464  15.953  0.4257  0.0593  0.3482
 2463POPC   C2B29818   2.199  18.336  16.143 -0.3492 -0.0115  0.0530
 2463POPC   C3B29819   2.595  18.146  16.325 -0.1491 -0.0154  0.0562
 2463POPC   C4B29820   2.641  18.076  16.795  0.0432 -0.0617 -0.1847
 2464POPC   NC329821  23.117  19.172  15.534  0.1496 -0.0844  0.0589
 2464POPC   PO429822  23.170  19.563  15.461  0.1741 -0.1892  0.1404
 2464POPC   GL129823  23.052  19.723  15.804 -0.3553  0.3645  0.3462
 2464POPC   GL229824  23.192  19.971  15.823  0.0498 -0.1540 -0.1721
 2464POPC   C1A29825  22.879  19.869  16.182  0.1455 -0.0697  0.2959
 2464POPC   D2A29826  22.996  19.639  16.559 -0.0517  0.0687 -0.3764
 2464POPC   C3A29827  22.865  19.658  16.999  0.1299 -0.1933 -0.1522
 2464POPC   C4A29828  22.964  20.065  17.123 -0.0616 -0.1397 -0.0083
 2464POPC   C1B29829  23.404  19.746  16.133 -0.0063  0.0682 -0.0370
 2464POPC   C2B29830  23.551  19.780  16.626 -0.1285  0.0384 -0.0052
 2464POPC   C3B29831  23.853  20.073  16.832  0.4511  0.2418  0.0166
 2464POPC   C4B29832  23.848  20.181  17.286 -0.2155  0.3065  0.0927
 2465POPC   NC329833  18.094  11.343  15.180  0.0362  0.1511  0.1280
 2465POPC   PO429834  17.722  11.311  15.276  0.2243 -0.1285 -0.4904
 2465POPC   GL129835  17.764  11.236  15.691 -0.1615 -0.1699  0.0756
 2465POPC   GL229836  17.646  11.008  15.847 -0.3485 -0.3551 -0.1410
 2465POPC   C1A29837  17.632  11.536  16.071  0.3020  0.1862 -0.0970
 2465POPC   D2A29838  17.810  11.611  16.532 -0.1280 -0.1874 -0.1784
 2465POPC   C3A29839  18.236  11.556  16.662  0.0674 -0.0709 -0.0607
 2465POPC   C4A29840  18.552  11.521  16.982  0.0595 -0.0741 -0.0910
 2465POPC   C1B29841  17.793  11.085  16.267  0.1129 -0.0695 -0.1301
 2465POPC   C2B29842  17.879  11.117  16.784  0.0024 -0.2783  0.0500
 2465POPC   C3B29843  17.984  10.726  17.013 -0.3140  0.3960 -0.3162
 2465POPC   C4B29844  17.849  10.298  17.119  0.2399 -0.1268  0.2570
 2466POPC   NC329845  19.566   7.581  14.978  0.1122  0.2731  0.0539
 2466POPC   PO429846  19.352   7.878  15.091 -0.1775  0.0124 -0.0320
 2466POPC   GL129847  19.262   7.775  15.447  0.1078  0.0903  0.0769
 2466POPC   GL229848  19.303   8.000  15.707  0.0110  0.2932 -0.1157
 2466POPC   C1A29849  19.266   7.499  15.804  0.0036  0.1653 -0.2847
 2466POPC   D2A29850  19.253   7.278  16.222  0.2204  0.0624  0.1233
 2466POPC   C3A29851  19.309   7.287  16.702 -0.0317 -0.1423  0.1650
 2466POPC   C4A29852  19.341   7.234  17.118 -0.0640  0.0741  0.1514
 2466POPC   C1B29853  19.322   7.847  16.160 -0.1191 -0.1137  0.0810
 2466POPC   C2B29854  19.341   7.781  16.643  0.0893 -0.2532  0.2674
 2466POPC   C3B29855  19.304   7.713  17.066  0.0283  0.1645 -0.0620
 2466POPC   C4B29856  19.497   7.554  17.431  0.0230  0.2800  0.0877
 2467POPC   NC329857  20.658  20.186  15.657 -0.0629 -0.1865  0.1408
 2467POPC   PO429858  20.877  19.828  15.606 -0.2417 -0.1219 -0.2766
 2467POPC   GL129859  20.879  19.854  16.026  0.4175 -0.1204 -0.1262
 2467POPC   GL229860  20.568  19.794  16.043 -0.3458 -0.1221  0.1816
 2467POPC   C1A29861  20.914  20.053  16.460 -0.0690 -0.0025  0.2615
 2467POPC   D2A29862  20.724  20.084  16.872  0.1429 -0.0641  0.0069
 2467POPC   C3A29863  20.562  19.646  17.074 -0.2875 -0.1636  0.4990
 2467POPC   C4A29864  20.284  19.273  16.935 -0.1779 -0.0702  0.0688
 2467POPC   C1B29865  20.395  20.033  16.418 -0.2349 -0.0287  0.2551
 2467POPC   C2B29866  20.146  19.963  16.825 -0.2539 -0.1375 -0.0491
 2467POPC   C3B29867  20.043  19.750  17.196  0.2864  0.0058  0.0850
 2467POPC   C4B29868  20.265  19.365  17.386 -0.0859 -0.1616 -0.4894
 2468POPC   NC329869  19.033   5.817  14.972 -0.2230 -0.2557  0.0334
 2468POPC   PO429870  18.826   5.954  15.311 -0.1703  0.1178  0.1909
 2468POPC   GL129871  18.839   5.714  15.580 -0.1627  0.2715 -0.2108
 2468POPC   GL229872  19.024   5.875  15.798 -0.1604  0.1993 -0.2503
 2468POPC   C1A29873  18.597   5.711  15.931  0.4397 -0.1999  0.3543
 2468POPC   D2A29874  18.237   5.772  16.237 -0.2098  0.1146 -0.1040
 2468POPC   C3A29875  18.248   5.886  16.714 -0.2204  0.0292  0.1064
 2468POPC   C4A29876  18.231   5.872  17.177 -0.1033 -0.1378 -0.1199
 2468POPC   C1B29877  19.000   5.697  16.225  0.0198 -0.1907 -0.4189
 2468POPC   C2B29878  19.166   5.494  16.602 -0.2160 -0.1813  0.1104
 2468POPC   C3B29879  19.024   5.397  17.046 -0.0025  0.0674  0.0303
 2468POPC   C4B29880  19.127   5.717  17.380 -0.1527 -0.0014 -0.1018
 2469POPC   NC329881  13.253  25.685  14.727 -0.2465  0.0536  0.0680
 2469POPC   PO429882  13.141  25.332  14.892  0.2254 -0.3328 -0.0844
 2469POPC   GL129883  12.991  25.047  15.252  0.0784 -0.2834  0.2255
 2469POPC   GL229884  12.793  25.212  15.387  0.1075 -0.3833 -0.1531
 2469POPC   C1A29885  12.892  24.736  15.612 -0.3282  0.2579  0.2816
 2469POPC   D2A29886  12.898  24.458  15.983 -0.0425  0.1865 -0.2926
 2469POPC   C3A29887  12.882  24.460  16.458 -0.0724  0.1903 -0.1677
 2469POPC   C4A29888  12.991  24.362  16.886  0.1347  0.1560 -0.3367
 2469POPC   C1B29889  12.928  25.182  15.805  0.1737  0.0832 -0.0798
 2469POPC   C2B29890  13.019  25.018  16.217  0.1162  0.1871 -0.0791
 2469POPC   C3B29891  12.884  24.941  16.682 -0.0796  0.1201  0.0240
 2469POPC   C4B29892  12.625  25.143  16.962  0.0666  0.0185  0.3713
 2470POPC   NC329893   4.999  15.889  15.020 -0.1868 -0.1388 -0.5289
 2470POPC   PO429894   4.751  15.998  15.309 -0.0269 -0.0057  0.0210
 2470POPC   GL129895   4.643  16.176  15.741  0.0958  0.4947  0.2366
 2470POPC   GL229896   4.330  16.182  15.648 -0.0850  0.2737 -0.1223
 2470POPC   C1A29897   4.607  16.483  16.041  0.0133  0.0703  0.0670
 2470POPC   D2A29898   4.738  16.700  16.454  0.0323 -0.0142  0.2430
 2470POPC   C3A29899   4.502  16.773  16.841  0.1099 -0.2195 -0.1643
 2470POPC   C4A29900   4.137  16.593  16.957  0.2202 -0.0408 -0.0201
 2470POPC   C1B29901   4.146  16.474  15.938 -0.1766  0.2060  0.0664
 2470POPC   C2B29902   3.732  16.494  16.147 -0.2544 -0.0553  0.0540
 2470POPC   C3B29903   3.346  16.674  16.338 -0.0237  0.1019  0.0857
 2470POPC   C4B29904   3.132  16.694  16.710 -0.0587  0.1285 -0.1785
 2471POPC   NC329905   2.172   5.808  15.592  0.1031 -0.1335  0.3192
 2471POPC   PO429906   1.836   5.741  15.754  0.0236 -0.1252 -0.1269
 2471POPC   GL129907   1.956   5.629  16.217 -0.0748  0.2737  0.2058
 2471POPC   GL229908   1.640   5.641  16.206  0.0919 -0.1536 -0.0800
 2471POPC   C1A29909   2.181   5.612  16.648 -0.0233 -0.1885 -0.1414
 2471POPC   D2A29910   2.082   5.785  16.987  0.1370 -0.1436 -0.2038
 2471POPC   C3A29911   1.918   5.842  17.402  0.1929  0.0292 -0.0799
 2471POPC   C4A29912   1.912   6.151  17.746 -0.0169  0.0565 -0.1421
 2471POPC   C1B29913   1.274   5.633  16.459 -0.0777  0.0859  0.4916
 2471POPC   C2B29914   1.133   6.039  16.717  0.2308  0.0854  0.0785
 2471POPC   C3B29915   0.960   6.227  17.085 -0.1016  0.2031  0.1196
 2471POPC   C4B29916   0.672   6.565  17.238  0.0145  0.0553  0.2318
 2472POPC   NC329917  24.113  31.295  15.067 -0.1682  0.0048  0.0894
 2472POPC   PO429918  24.051  30.961  15.292 -0.2486 -0.0214  0.1026
 2472POPC   GL129919  24.067  31.184  15.658  0.0711 -0.0067  0.4032
 2472POPC   GL229920  23.910  30.973  15.795  0.3545 -0.2578 -0.0557
 2472POPC   C1A29921  24.441  31.219  15.966 -0.1259 -0.0860 -0.2557
 2472POPC   D2A29922  24.651  31.231  16.333  0.3524 -0.1944  0.1622
 2472POPC   C3A29923  25.006  30.994  16.478  0.2927 -0.0197  0.0321
 2472POPC   C4A29924  25.227  30.977  16.886  0.1376 -0.1053  0.4097
 2472POPC   C1B29925  24.149  30.876  16.182  0.0416 -0.0818  0.0716
 2472POPC   C2B29926  24.414  30.798  16.575  0.1652 -0.0241 -0.2479
 2472POPC   C3B29927  24.366  30.715  17.068 -0.1989  0.0974 -0.0672
 2472POPC   C4B29928  24.626  30.639  17.453 -0.0011 -0.3614  0.2907
 2473POPC   NC329929   8.777  14.160  15.410  0.1070 -0.0403  0.4227
 2473POPC   PO429930   8.962  13.865  15.187 -0.1091  0.1204 -0.3311
 2473POPC   GL129931   8.881  13.777  15.622 -0.2371 -0.0952 -0.1294
 2473POPC   GL229932   8.750  13.487  15.616  0.4312  0.0673 -0.2304
 2473POPC   C1A29933   8.878  14.099  15.965  0.0487  0.0280 -0.1091
 2473POPC   D2A29934   8.661  13.996  16.335 -0.1308 -0.3202 -0.0629
 2473POPC   C3A29935   8.308  14.017  16.582  0.1232  0.0366  0.0359
 2473POPC   C4A29936   8.210  14.229  17.011 -0.0286  0.3748  0.0258
 2473POPC   C1B29937   8.597  13.207  15.895 -0.2729  0.0372  0.1098
 2473POPC   C2B29938   8.539  13.094  16.316 -0.4582 -0.1518 -0.1151
 2473POPC   C3B29939   8.322  12.911  16.695 -0.1025 -0.1168 -0.0273
 2473POPC   C4B29940   8.177  12.696  17.052  0.0364  0.1450 -0.1786
 2474POPC   NC329941   1.165  24.303  14.796 -0.1084 -0.3299  0.0914
 2474POPC   PO429942   0.879  24.055  14.702 -0.0423 -0.1358  0.1569
 2474POPC   GL129943   0.987  23.878  15.050 -0.0949  0.4044 -0.1805
 2474POPC   GL229944   0.841  24.100  15.183 -0.1794  0.1969 -0.1309
 2474POPC   C1A29945   0.963  23.690  15.505  0.2670  0.0713  0.0837
 2474POPC   D2A29946   0.754  23.484  15.868 -0.4519  0.2788  0.0842
 2474POPC   C3A29947   0.822  23.470  16.334 -0.3916 -0.0342 -0.3047
 2474POPC   C4A29948   0.987  23.206  16.732  0.1245 -0.0898  0.2278
 2474POPC   C1B29949   0.506  23.871  15.461 -0.1270  0.2969  0.0698
 2474POPC   C2B29950   0.281  23.616  15.772  0.1004  0.0035 -0.3499
 2474POPC   C3B29951   0.344  23.469  16.188  0.0496  0.0757 -0.2227
 2474POPC   C4B29952   0.439  23.475  16.623  0.1575 -0.1049  0.2498
 2475POPC   NC329953  24.364  15.348  15.510 -0.2386  0.0003  0.0997
 2475POPC   PO429954  24.163  15.072  15.321  0.0958 -0.1166 -0.1156
 2475POPC   GL129955  23.938  15.147  15.569 -0.2354  0.1231 -0.2566
 2475POPC   GL229956  24.049  14.992  15.809 -0.1996 -0.2258  0.1704
 2475POPC   C1A29957  23.724  15.298  15.976  0.0776  0.1339  0.3209
 2475POPC   D2A29958  23.867  15.394  16.374  0.1805 -0.0984 -0.0391
 2475POPC   C3A29959  23.870  15.761  16.624 -0.0271  0.4192  0.2220
 2475POPC   C4A29960  23.509  15.976  16.741 -0.3569 -0.3007  0.0055
 2475POPC   C1B29961  23.998  14.600  16.048 -0.0756 -0.2168  0.0757
 2475POPC   C2B29962  24.056  14.520  16.513 -0.0240 -0.1756 -0.1286
 2475POPC   C3B29963  23.910  14.472  16.959  0.4303 -0.0497  0.3060
 2475POPC   C4B29964  23.781  14.834  17.212  0.1970 -0.3840  0.0447
 2476POPC   NC329965  15.137  17.232  15.485  0.0544 -0.1029  0.1330
 2476POPC   PO429966  15.374  17.567  15.383  0.1578 -0.0028  0.0447
 2476POPC   GL129967  15.368  17.777  15.762  0.0460 -0.3153  0.0734
 2476POPC   GL229968  15.586  18.026  15.777  0.1057  0.0539 -0.5876
 2476POPC   C1A29969  14.987  17.871  16.031 -0.0057  0.2959  0.0575
 2476POPC   D2A29970  14.579  17.601  16.002  0.2077  0.2703 -0.1852
 2476POPC   C3A29971  14.617  17.314  16.414 -0.1814 -0.0203  0.2098
 2476POPC   C4A29972  14.588  17.113  16.848 -0.2349 -0.1905 -0.2309
 2476POPC   C1B29973  15.779  17.651  15.992 -0.0429 -0.0487  0.1133
 2476POPC   C2B29974  16.037  17.520  16.381 -0.0166  0.1534  0.0568
 2476POPC   C3B29975  16.144  17.396  16.727 -0.3500 -0.2196  0.0593
 2476POPC   C4B29976  16.373  17.549  17.086 -0.2071  0.1317  0.0032
 2477POPC   NC329977   3.207  20.054  14.885 -0.0955  0.0814  0.0572
 2477POPC   PO429978   2.939  20.247  15.070 -0.2670  0.0566 -0.0799
 2477POPC   GL129979   3.078  19.973  15.364 -0.4413  0.0894  0.0263
 2477POPC   GL229980   2.834  20.017  15.572  0.2593 -0.0432  0.0624
 2477POPC   C1A29981   2.986  19.581  15.674 -0.2816  0.1033  0.1715
 2477POPC   D2A29982   3.026  19.484  16.150 -0.2031 -0.0050 -0.1984
 2477POPC   C3A29983   3.429  19.501  16.246  0.3874 -0.1716  0.0520
 2477POPC   C4A29984   3.755  19.333  15.977 -0.0964 -0.4278  0.0435
 2477POPC   C1B29985   2.679  19.933  15.980  0.0325  0.3101  0.2003
 2477POPC   C2B29986   2.674  19.652  16.386 -0.0546 -0.0118  0.2758
 2477POPC   C3B29987   2.427  19.584  16.807  0.0840 -0.0332  0.1399
 2477POPC   C4B29988   2.386  19.282  17.122 -0.2827 -0.1248 -0.2123
 2478POPC   NC329989  25.634  19.161  15.011 -0.1205  0.1209 -0.0973
 2478POPC   PO429990  25.415  19.458  14.957 -0.0516 -0.2304  0.3438
 2478POPC   GL129991  25.471  19.610  15.372 -0.0405 -0.1560 -0.1745
 2478POPC   GL229992  25.760  19.646  15.379 -0.0541 -0.0686 -0.0160
 2478POPC   C1A29993  25.236  19.933  15.612 -0.0647 -0.2558  0.2688
 2478POPC   D2A29994  25.318  20.286  15.834  0.0037  0.1881  0.0479
 2478POPC   C3A29995  25.278  20.414  16.250  0.0100 -0.0499 -0.1853
 2478POPC   C4A29996  25.056  20.473  16.610  0.4024  0.1339 -0.2732
 2478POPC   C1B29997  26.001  19.466  15.775  0.0730 -0.2633  0.2920
 2478POPC   C2B29998  26.033  19.406  16.173 -0.0360  0.0052  0.2549
 2478POPC   C3B29999  26.133  19.315  16.567 -0.1639 -0.3728  0.1504
 2478POPC   C4B30000  26.051  19.358  16.994 -0.1627  0.3023  0.1706
 2479POPC   NC330001  20.740   8.480  15.402  0.0442 -0.0021 -0.0880
 2479POPC   PO430002  21.059   8.706  15.511  0.1623 -0.1220  0.3165
 2479POPC   GL130003  21.055   8.704  16.003 -0.3766  0.2445 -0.1179
 2479POPC   GL230004  21.353   8.573  16.149 -0.3191 -0.1828 -0.0088
 2479POPC   C1A30005  20.933   8.456  16.361 -0.0771  0.4118  0.0883
 2479POPC   D2A30006  21.101   8.255  16.690  0.2350 -0.0197  0.2442
 2479POPC   C3A30007  21.248   8.468  17.053 -0.1785  0.2335  0.0774
 2479POPC   C4A30008  20.992   8.597  17.420  0.1087 -0.1216  0.0902
 2479POPC   C1B30009  21.476   8.560  16.572  0.0157 -0.0750 -0.0747
 2479POPC   C2B30010  21.708   8.514  17.007 -0.2982 -0.1678  0.0505
 2479POPC   C3B30011  21.948   8.588  17.405 -0.2449 -0.2319  0.2546
 2479POPC   C4B30012  22.007   8.419  17.817  0.0939  0.1825  0.1777
 2480POPC   NC330013   9.694  20.385  15.101  0.1150 -0.0824 -0.1282
 2480POPC   PO430014   9.426  20.088  15.167  0.0953  0.0836  0.2677
 2480POPC   GL130015   9.505  20.063  15.539  0.1433 -0.0232  0.2415
 2480POPC   GL230016   9.799  20.102  15.585  0.0699  0.2210  0.2558
 2480POPC   C1A30017   9.508  19.705  15.828 -0.2642 -0.1187 -0.0469
 2480POPC   D2A30018   9.755  19.611  16.164  0.2338  0.1894 -0.0930
 2480POPC   C3A30019   9.777  19.486  16.588 -0.1819  0.1140 -0.3789
 2480POPC   C4A30020   9.827  19.239  16.981  0.2953  0.0228  0.2422
 2480POPC   C1B30021  10.089  20.032  15.918 -0.1741 -0.0869  0.1713
 2480POPC   C2B30022  10.218  19.873  16.308  0.2495  0.1526 -0.0507
 2480POPC   C3B30023  10.281  19.617  16.726  0.0239  0.0723 -0.1153
 2480POPC   C4B30024  10.403  19.281  17.056  0.4465  0.2427 -0.2968
 2481POPC   NC330025  23.150   8.354  15.202 -0.0823  0.1023 -0.1601
 2481POPC   PO430026  22.776   8.193  15.144  0.0176 -0.1961 -0.0133
 2481POPC   GL130027  22.749   7.995  15.520 -0.2524  0.1914  0.2039
 2481POPC   GL230028  22.969   7.924  15.584 -0.1094  0.0215  0.1830
 2481POPC   C1A30029  22.677   8.153  15.954  0.2569 -0.1011  0.2306
 2481POPC   D2A30030  22.528   8.466  16.195 -0.1132  0.1842 -0.0092
 2481POPC   C3A30031  22.583   8.288  16.576  0.0614 -0.1392 -0.0898
 2481POPC   C4A30032  22.689   8.140  17.021 -0.0030 -0.1157  0.1763
 2481POPC   C1B30033  23.196   7.971  15.968  0.0065 -0.2960  0.1249
 2481POPC   C2B30034  23.022   8.278  16.287  0.3772 -0.1628  0.0415
 2481POPC   C3B30035  23.133   8.394  16.749  0.1682 -0.1145  0.0812
 2481POPC   C4B30036  23.248   8.345  17.165 -0.1347 -0.0503  0.0167
 2482POPC   NC330037  23.021  28.518  15.519 -0.1241  0.0398 -0.3122
 2482POPC   PO430038  23.136  28.422  15.887 -0.3772 -0.0084 -0.0742
 2482POPC   GL130039  23.393  28.478  16.211  0.0148  0.2065 -0.0854
 2482POPC   GL230040  23.433  28.754  16.155  0.1721  0.0159 -0.3466
 2482POPC   C1A30041  23.582  28.466  16.641  0.1057  0.1367  0.1585
 2482POPC   D2A30042  23.605  28.692  17.073 -0.0631  0.1775 -0.0239
 2482POPC   C3A30043  23.711  28.983  17.432 -0.1971 -0.0610  0.0917
 2482POPC   C4A30044  24.095  29.143  17.631 -0.1098 -0.5327 -0.0997
 2482POPC   C1B30045  23.198  28.836  16.555  0.0656  0.3480 -0.1240
 2482POPC   C2B30046  23.068  29.186  16.844  0.3030 -0.1796 -0.2114
 2482POPC   C3B30047  23.080  29.613  17.024  0.0655 -0.2229 -0.0980
 2482POPC   C4B30048  22.856  29.910  17.281 -0.2738  0.1879 -0.0295
 2483POPC   NC330049  10.090  14.436  15.451 -0.0007  0.0130  0.0797
 2483POPC   PO430050  10.329  14.590  15.181  0.0603 -0.3720 -0.1251
 2483POPC   GL130051  10.526  14.446  15.453  0.4387 -0.1608 -0.1892
 2483POPC   GL230052  10.486  14.588  15.719  0.2649 -0.2760 -0.0961
 2483POPC   C1A30053  10.910  14.306  15.662 -0.3390 -0.0563 -0.0057
 2483POPC   D2A30054  11.277  14.110  15.877  0.0302 -0.2227  0.2088
 2483POPC   C3A30055  11.169  13.816  16.197 -0.0577 -0.2019 -0.1010
 2483POPC   C4A30056  10.977  13.603  16.551 -0.0425  0.0672 -0.1317
 2483POPC   C1B30057  10.311  14.232  16.011  0.2333 -0.3354  0.0694
 2483POPC   C2B30058  10.343  14.147  16.547 -0.0047 -0.1429 -0.1340
 2483POPC   C3B30059  10.386  14.219  17.049 -0.1553 -0.0692  0.3318
 2483POPC   C4B30060  10.112  14.153  17.423  0.1509 -0.1991 -0.0806
 2484POPC   NC330061  10.381  22.336  15.654 -0.0410 -0.0679  0.1497
 2484POPC   PO430062  10.640  22.122  15.446  0.2435  0.1278  0.4325
 2484POPC   GL130063  10.741  22.050  15.855  0.0382 -0.2799  0.0254
 2484POPC   GL230064  10.741  21.789  16.084  0.2759  0.0056  0.0691
 2484POPC   C1A30065  10.942  22.296  16.192  0.0712  0.0626  0.3370
 2484POPC   D2A30066  11.021  22.311  16.595 -0.1553 -0.0965  0.4812
 2484POPC   C3A30067  10.897  22.488  16.928  0.0771 -0.0896  0.0611
 2484POPC   C4A30068  10.999  22.708  17.377  0.0541  0.2105  0.0020
 2484POPC   C1B30069  10.896  21.750  16.510 -0.1294 -0.0278 -0.3849
 2484POPC   C2B30070  10.840  21.568  16.962 -0.0681 -0.1275  0.1575
 2484POPC   C3B30071  10.722  21.493  17.396 -0.1022 -0.1002 -0.3194
 2484POPC   C4B30072  10.695  21.254  17.806 -0.0094  0.1397 -0.1265
 2485POPC   NC330073  11.503  24.510  14.778 -0.1139 -0.0628 -0.0969
 2485POPC   PO430074  11.880  24.481  14.872  0.1479  0.0524  0.4792
 2485POPC   GL130075  11.725  24.560  15.246 -0.1182 -0.1622  0.0014
 2485POPC   GL230076  11.554  24.743  15.189 -0.1714 -0.1408 -0.1563
 2485POPC   C1A30077  11.677  24.334  15.649  0.2423  0.0843 -0.0077
 2485POPC   D2A30078  11.522  24.174  16.063 -0.0052  0.3177 -0.2244
 2485POPC   C3A30079  11.173  24.305  16.321  0.1117  0.0281  0.2019
 2485POPC   C4A30080  11.055  24.370  16.783 -0.0352 -0.0330 -0.1138
 2485POPC   C1B30081  11.502  24.804  15.667  0.1853  0.1969 -0.1427
 2485POPC   C2B30082  11.602  24.660  16.104 -0.2441  0.0161 -0.0453
 2485POPC   C3B30083  11.605  24.401  16.513 -0.1964  0.0242  0.3175
 2485POPC   C4B30084  11.918  24.368  16.870 -0.2845 -0.0338 -0.1458
 2486POPC   NC330085  29.103  28.429  15.831 -0.0141  0.1042  0.0009
 2486POPC   PO430086  29.332  28.159  15.724  0.0189  0.0818  0.2609
 2486POPC   GL130087  29.478  28.202  16.135 -0.4908  0.3096 -0.0770
 2486POPC   GL230088  29.492  27.950  16.129 -0.1583  0.2831 -0.0390
 2486POPC   C1A30089  29.395  28.202  16.590 -0.4988  0.0343  0.0717
 2486POPC   D2A30090  29.086  28.122  16.928 -0.1807 -0.1749 -0.4477
 2486POPC   C3A30091  29.053  28.350  17.309  0.0577  0.0316 -0.1035
 2486POPC   C4A30092  29.116  28.727  17.509 -0.2955 -0.3662 -0.1737
 2486POPC   C1B30093  29.597  27.698  16.491 -0.0057 -0.1996  0.5570
 2486POPC   C2B30094  29.313  27.645  16.831 -0.2321  0.0956 -0.3370
 2486POPC   C3B30095  29.156  27.551  17.194 -0.2218 -0.0962 -0.1408
 2486POPC   C4B30096  28.920  27.190  17.341 -0.1140 -0.1417 -0.2723
 2487POPC   NC330097  19.303   6.151  15.320  0.2196  0.0455 -0.1950
 2487POPC   PO430098  19.051   6.404  15.121 -0.3898 -0.3164  0.0555
 2487POPC   GL130099  18.800   6.595  15.400 -0.2804 -0.2648 -0.3745
 2487POPC   GL230100  18.602   6.409  15.553 -0.2156 -0.2204  0.2141
 2487POPC   C1A30101  18.769   6.766  15.847 -0.2172  0.0553  0.3045
 2487POPC   D2A30102  18.835   6.943  16.286 -0.1793  0.0272  0.0346
 2487POPC   C3A30103  18.907   6.844  16.720  0.1626  0.0729 -0.2550
 2487POPC   C4A30104  18.918   6.756  17.205  0.0136  0.1099  0.2274
 2487POPC   C1B30105  18.631   6.200  15.928  0.0958 -0.1647 -0.1724
 2487POPC   C2B30106  18.706   6.102  16.394 -0.1734  0.0039  0.1885
 2487POPC   C3B30107  18.888   5.889  16.770  0.0099  0.0753 -0.2547
 2487POPC   C4B30108  18.723   5.880  17.158 -0.1893  0.1285 -0.2101
 2488POPC   NC330109   0.876   3.531  15.351  0.4450 -0.0799  0.2773
 2488POPC   PO430110   0.590   3.794  15.396  0.0459 -0.1022 -0.1575
 2488POPC   GL130111   0.336   3.921  15.728 -0.1005  0.3194 -0.0697
 2488POPC   GL230112   0.051   3.880  15.685  0.2326 -0.1344 -0.3202
 2488POPC   C1A30113   0.458   3.739  16.115 -0.0434 -0.1527 -0.3056
 2488POPC   D2A30114   0.807   3.496  16.333  0.1733  0.0811 -0.2291
 2488POPC   C3A30115   1.215   3.233  16.225  0.5916 -0.0078  0.2330
 2488POPC   C4A30116   1.466   3.033  15.895 -0.1067 -0.2196  0.2539
 2488POPC   C1B30117  -0.068   3.651  16.124 -0.0966 -0.0304 -0.1790
 2488POPC   C2B30118  -0.112   3.783  16.561 -0.1285 -0.0519 -0.0130
 2488POPC   C3B30119   0.070   3.866  16.959  0.0133 -0.1210  0.0979
 2488POPC   C4B30120   0.353   4.216  17.094  0.1084  0.1441 -0.1262
 2489POPC   NC330121   0.700   7.361  15.556  0.1532 -0.1315  0.1245
 2489POPC   PO430122   1.052   7.203  15.438  0.1048 -0.0980 -0.3213
 2489POPC   GL130123   1.252   7.157  15.897 -0.1177 -0.1891  0.0259
 2489POPC   GL230124   0.930   7.206  15.954 -0.2595 -0.1597  0.0924
 2489POPC   C1A30125   1.661   7.407  15.936 -0.1931 -0.1243 -0.1716
 2489POPC   D2A30126   2.042   7.678  15.992 -0.4056 -0.3504 -0.0011
 2489POPC   C3A30127   2.149   8.069  15.767  0.2348 -0.0181 -0.0142
 2489POPC   C4A30128   2.117   8.536  15.681 -0.0496 -0.1880  0.3206
 2489POPC   C1B30129   1.008   7.445  16.337  0.0239 -0.1854  0.1708
 2489POPC   C2B30130   1.346   7.594  16.635 -0.0021  0.4900  0.0371
 2489POPC   C3B30131   1.686   7.881  16.793 -0.0600  0.0221 -0.0194
 2489POPC   C4B30132   1.971   8.224  16.963  0.1224 -0.4393  0.3286
 2490POPC   NC330133  25.137  21.280  14.821  0.0645  0.0903 -0.1489
 2490POPC   PO430134  25.020  21.592  14.955  0.1204 -0.0510 -0.1164
 2490POPC   GL130135  24.898  21.624  15.321  0.0781 -0.1838  0.0532
 2490POPC   GL230136  25.074  21.427  15.531  0.1825 -0.3631 -0.1997
 2490POPC   C1A30137  24.617  21.683  15.665  0.3334 -0.1839  0.3347
 2490POPC   D2A30138  24.335  21.847  16.008 -0.2850 -0.0213  0.1987
 2490POPC   C3A30139  24.275  21.737  16.452 -0.0326  0.2071  0.2033
 2490POPC   C4A30140  24.124  21.415  16.750 -0.0799  0.0499  0.1528
 2490POPC   C1B30141  25.092  21.487  15.971 -0.0424 -0.0858  0.0585
 2490POPC   C2B30142  24.833  21.506  16.354 -0.2479 -0.3833  0.0792
 2490POPC   C3B30143  25.112  21.430  16.737 -0.3352 -0.1894 -0.0323
 2490POPC   C4B30144  25.371  21.096  16.917 -0.1313  0.2271  0.0565
 2491POPC   NC330145   1.570   4.375  14.966 -0.2002  0.0424 -0.0096
 2491POPC   PO430146   1.473   4.018  15.070 -0.2761  0.0545  0.1998
 2491POPC   GL130147   1.631   3.963  15.395 -0.0890  0.2802  0.3096
 2491POPC   GL230148   1.795   4.187  15.428 -0.4597  0.1644 -0.1918
 2491POPC   C1A30149   1.702   3.676  15.708 -0.1689 -0.0441 -0.1292
 2491POPC   D2A30150   1.643   3.465  16.085  0.0352 -0.0699 -0.0462
 2491POPC   C3A30151   1.734   3.429  16.522 -0.2337 -0.2451  0.1529
 2491POPC   C4A30152   2.023   3.382  16.869  0.0802 -0.0957 -0.0358
 2491POPC   C1B30153   1.927   4.446  15.801 -0.0275 -0.0083 -0.2091
 2491POPC   C2B30154   1.907   4.705  16.246 -0.1327 -0.2801 -0.1600
 2491POPC   C3B30155   1.849   4.659  16.705  0.0949 -0.0111  0.1933
 2491POPC   C4B30156   1.877   4.515  17.167  0.0314  0.0724  0.0372
 2492POPC   NC330157  19.225   1.633  15.235  0.2077  0.2025 -0.0212
 2492POPC   PO430158  19.305   1.264  15.205  0.3651  0.4301  0.0691
 2492POPC   GL130159  19.612   1.154  15.426 -0.0662 -0.2602 -0.2413
 2492POPC   GL230160  19.428   1.225  15.666 -0.2655 -0.4158  0.0836
 2492POPC   C1A30161  20.044   0.986  15.493 -0.3445  0.1730 -0.1104
 2492POPC   D2A30162  20.443   0.894  15.736  0.0411  0.3681  0.0262
 2492POPC   C3A30163  20.442   0.924  16.208 -0.2447  0.1470  0.0847
 2492POPC   C4A30164  20.606   1.275  16.563 -0.0583 -0.0256 -0.1754
 2492POPC   C1B30165  19.671   1.285  16.083 -0.1099 -0.0782  0.1369
 2492POPC   C2B30166  19.996   1.160  16.422  0.0814 -0.1597  0.1586
 2492POPC   C3B30167  20.284   1.091  16.837  0.0139  0.1126  0.3228
 2492POPC   C4B30168  20.174   0.715  17.082  0.1110 -0.1954 -0.0213
 2493POPC   NC330169  26.871   4.558  15.135 -0.2424 -0.1118  0.0672
 2493POPC   PO430170  27.050   4.196  15.153 -0.2903 -0.2436 -0.3673
 2493POPC   GL130171  27.268   4.436  15.400  0.1239 -0.1821  0.0044
 2493POPC   GL230172  27.231   4.718  15.577  0.0050  0.2672 -0.0517
 2493POPC   C1A30173  27.421   4.291  15.833 -0.1004 -0.0164  0.2393
 2493POPC   D2A30174  27.753   4.271  16.092  0.0656 -0.2562  0.0984
 2493POPC   C3A30175  27.838   3.937  16.357  0.0651  0.2042 -0.0953
 2493POPC   C4A30176  28.191   3.942  16.600  0.0786  0.3439  0.0977
 2493POPC   C1B30177  27.477   4.727  16.023 -0.1770 -0.1634 -0.3234
 2493POPC   C2B30178  27.584   4.732  16.480 -0.1717  0.0645 -0.1011
 2493POPC   C3B30179  28.037   4.894  16.665  0.1686  0.1190  0.1283
 2493POPC   C4B30180  28.345   5.115  16.898  0.1517  0.2980  0.0705
 2494POPC   NC330181   2.062  23.508  15.503  0.0638 -0.0419  0.0673
 2494POPC   PO430182   1.884  23.830  15.376 -0.1525  0.3322 -0.0146
 2494POPC   GL130183   1.797  24.115  15.682  0.1883  0.6592  0.0529
 2494POPC   GL230184   1.705  24.365  15.665  0.1859  0.1181 -0.0851
 2494POPC   C1A30185   1.893  24.095  16.116 -0.0380  0.0601  0.0833
 2494POPC   D2A30186   1.917  24.421  16.438 -0.0578 -0.1153  0.0773
 2494POPC   C3A30187   1.656  24.484  16.841 -0.0248  0.0602  0.2092
 2494POPC   C4A30188   1.635  24.239  17.222 -0.4216  0.0046 -0.3438
 2494POPC   C1B30189   1.707  24.644  16.070 -0.2561 -0.1427  0.0243
 2494POPC   C2B30190   1.312  24.779  16.310  0.1466  0.0756 -0.1316
 2494POPC   C3B30191   1.100  24.877  16.711  0.3293 -0.0356 -0.0622
 2494POPC   C4B30192   0.725  25.111  16.881 -0.1118 -0.1301 -0.0603
 2495POPC   NC330193   0.056   5.813  15.376  0.1178 -0.0024 -0.1160
 2495POPC   PO430194   0.421   5.831  15.264  0.0862  0.0349  0.0441
 2495POPC   GL130195   0.350   6.063  15.713  0.1188  0.2057  0.0278
 2495POPC   GL230196   0.172   5.876  15.848  0.0354  0.1728  0.1039
 2495POPC   C1A30197   0.497   6.300  16.128 -0.0844  0.0287  0.0737
 2495POPC   D2A30198   0.375   6.679  16.292 -0.1573  0.4695 -0.0999
 2495POPC   C3A30199   0.297   6.745  16.745  0.1965 -0.0103 -0.0954
 2495POPC   C4A30200   0.300   6.997  17.146 -0.2937 -0.1381 -0.0466
 2495POPC   C1B30201   0.234   5.850  16.316  0.1756 -0.1600 -0.0995
 2495POPC   C2B30202   0.303   5.699  16.734  0.0606  0.1067  0.1420
 2495POPC   C3B30203   0.173   5.569  17.184 -0.1734  0.0188 -0.1588
 2495POPC   C4B30204   0.127   5.349  17.607 -0.2779 -0.2493 -0.1062
 2496POPC   NC330205  27.693   1.004  15.113  0.0356  0.1196 -0.0383
 2496POPC   PO430206  27.560   1.417  15.128  0.3691 -0.0102 -0.1689
 2496POPC   GL130207  27.579   1.235  15.497 -0.2058  0.1552 -0.1814
 2496POPC   GL230208  27.365   1.421  15.658  0.1291  0.2002  0.1188
 2496POPC   C1A30209  27.962   0.896  15.497 -0.0332  0.1995 -0.1940
 2496POPC   D2A30210  28.072   0.469  15.624  0.1642 -0.2239  0.2027
 2496POPC   C3A30211  27.940   0.440  16.061  0.3901  0.1152  0.0393
 2496POPC   C4A30212  27.712   0.171  16.335 -0.1538  0.0425 -0.1121
 2496POPC   C1B30213  27.465   1.126  15.968  0.0365 -0.1481 -0.1153
 2496POPC   C2B30214  27.829   0.979  16.136  0.1810 -0.1933  0.1536
 2496POPC   C3B30215  28.120   1.228  16.400 -0.1771 -0.0760 -0.3190
 2496POPC   C4B30216  28.476   1.104  16.614 -0.0685  0.0653 -0.2447
 2497POPC   NC330217   0.577  18.459  15.636  0.0275 -0.0965  0.0939
 2497POPC   PO430218   0.365  18.683  15.384 -0.2484  0.1260  0.0179
 2497POPC   GL130219   0.093  18.634  15.722  0.2263 -0.2909  0.1880
 2497POPC   GL230220  -0.063  18.882  15.783 -0.0345 -0.1028 -0.1133
 2497POPC   C1A30221   0.098  18.383  16.107 -0.1256  0.0086 -0.2108
 2497POPC   D2A30222  -0.145  18.305  16.431  0.2414 -0.2807 -0.0812
 2497POPC   C3A30223   0.070  18.173  16.844  0.1989 -0.0313  0.1861
 2497POPC   C4A30224   0.273  17.891  17.152  0.1624 -0.0169  0.3898
 2497POPC   C1B30225  -0.199  19.016  16.202 -0.3107 -0.0231  0.1909
 2497POPC   C2B30226  -0.017  19.031  16.618  0.0718  0.0423 -0.1082
 2497POPC   C3B30227  -0.023  18.907  17.021  0.0285 -0.1506  0.0062
 2497POPC   C4B30228  -0.326  18.923  17.392  0.2831  0.2583 -0.4071
 2498POPC   NC330229  26.446   6.847  15.356 -0.2009 -0.0688  0.0562
 2498POPC   PO430230  26.834   6.764  15.265 -0.0646  0.1240 -0.0710
 2498POPC   GL130231  26.823   6.467  15.669 -0.4450  0.2187 -0.1056
 2498POPC   GL230232  27.128   6.361  15.764  0.1221  0.0959  0.3183
 2498POPC   C1A30233  26.670   6.586  16.097 -0.0022  0.0748 -0.1112
 2498POPC   D2A30234  26.840   6.933  16.379 -0.0154  0.1554  0.1462
 2498POPC   C3A30235  26.912   6.708  16.782 -0.1693 -0.0795  0.0394
 2498POPC   C4A30236  27.178   6.771  17.182  0.1101  0.0773  0.1906
 2498POPC   C1B30237  27.407   6.458  16.047 -0.1827  0.1181 -0.1285
 2498POPC   C2B30238  27.807   6.672  16.206 -0.2676  0.0180 -0.0529
 2498POPC   C3B30239  28.165   6.909  16.397 -0.0448  0.2424  0.0839
 2498POPC   C4B30240  28.590   6.842  16.596 -0.1288  0.0525 -0.0170
 2499POPC   NC330241  26.519  15.689  15.125 -0.0422 -0.0413 -0.2795
 2499POPC   PO430242  26.264  15.389  15.149 -0.0784  0.0184  0.1711
 2499POPC   GL130243  26.304  15.064  15.406  0.1815  0.1622  0.0534
 2499POPC   GL230244  26.561  14.998  15.314  0.1366 -0.1704 -0.0201
 2499POPC   C1A30245  26.268  15.238  15.812  0.4505 -0.0120 -0.2972
 2499POPC   D2A30246  26.018  15.592  15.995  0.3183 -0.0888 -0.2222
 2499POPC   C3A30247  26.069  15.669  16.457  0.0419 -0.1844 -0.0286
 2499POPC   C4A30248  26.346  15.706  16.867  0.0682 -0.1337  0.0140
 2499POPC   C1B30249  26.643  14.853  15.716  0.1734  0.0299 -0.1160
 2499POPC   C2B30250  26.705  14.943  16.205 -0.0484 -0.2932  0.3322
 2499POPC   C3B30251  26.895  14.918  16.684 -0.1191 -0.0154  0.1414
 2499POPC   C4B30252  26.764  15.055  17.124 -0.2925 -0.7137  0.2210
 2500POPC   NC330253  16.558  26.227  14.942  0.3440  0.1933 -0.1721
 2500POPC   PO430254  16.677  26.240  15.331 -0.0161  0.2944  0.2285
 2500POPC   GL130255  16.696  26.109  15.665 -0.0475  0.2056 -0.3188
 2500POPC   GL230256  16.946  26.237  15.810 -0.2096  0.0497 -0.0097
 2500POPC   C1A30257  16.314  25.961  15.929  0.0190 -0.0239 -0.0309
 2500POPC   D2A30258  16.112  26.062  16.354 -0.0695 -0.1134  0.2058
 2500POPC   C3A30259  15.812  25.803  16.629  0.1873  0.1808 -0.1198
 2500POPC   C4A30260  15.676  25.848  17.067  0.2204  0.0152  0.2006
 2500POPC   C1B30261  16.717  26.423  16.148  0.1829 -0.0895  0.3468
 2500POPC   C2B30262  16.802  26.540  16.605  0.0287  0.0262 -0.2460
 2500POPC   C3B30263  16.745  26.535  17.110  0.1861  0.1520 -0.1734
 2500POPC   C4B30264  16.689  26.572  17.599  0.2052  0.1978  0.3333
 2501POPC   NC330265  28.210  14.336  15.384 -0.0431 -0.0635 -0.6485
 2501POPC   PO430266  28.123  13.946  15.295  0.1392 -0.3461 -0.2271
 2501POPC   GL130267  28.257  13.953  15.773  0.2653 -0.3866 -0.0090
 2501POPC   GL230268  27.997  13.879  15.838  0.1104 -0.1172  0.0985
 2501POPC   C1A30269  28.448  13.821  16.204  0.0888  0.0026 -0.0219
 2501POPC   D2A30270  28.500  13.741  16.652  0.1038 -0.1700  0.0652
 2501POPC   C3A30271  28.260  13.409  16.775 -0.6165 -0.3259 -0.1370
 2501POPC   C4A30272  28.324  13.074  17.078 -0.2186 -0.2724  0.0491
 2501POPC   C1B30273  27.760  13.942  16.238  0.4388 -0.1504  0.2484
 2501POPC   C2B30274  27.826  13.751  16.628  0.0927  0.1864  0.1251
 2501POPC   C3B30275  27.815  13.335  16.902  0.1720 -0.1340  0.0222
 2501POPC   C4B30276  27.929  13.219  17.340  0.2536  0.0903 -0.3476
 2502POPC   NC330277  14.203  26.592  14.908 -0.1426  0.1603  0.2837
 2502POPC   PO430278  13.797  26.576  14.936 -0.2327 -0.2379  0.0845
 2502POPC   GL130279  13.893  26.757  15.261 -0.2719 -0.0284 -0.2888
 2502POPC   GL230280  14.124  26.760  15.386 -0.2338 -0.2096  0.0797
 2502POPC   C1A30281  13.802  26.659  15.735  0.1104  0.4067 -0.0491
 2502POPC   D2A30282  13.761  26.853  16.185 -0.0252 -0.2982 -0.0551
 2502POPC   C3A30283  13.500  26.646  16.441  0.3478  0.4158 -0.4497
 2502POPC   C4A30284  13.389  26.279  16.719  0.0368 -0.2793 -0.3166
 2502POPC   C1B30285  14.173  26.955  15.800 -0.0447  0.1100  0.0444
 2502POPC   C2B30286  14.293  26.723  16.175 -0.0454  0.0944 -0.4202
 2502POPC   C3B30287  14.396  26.449  16.531 -0.1789  0.1737 -0.3144
 2502POPC   C4B30288  14.335  25.979  16.773 -0.0247 -0.0672 -0.1858
 2503POPC   NC330289  22.720   7.249  14.972  0.2044  0.3573  0.1554
 2503POPC   PO430290  23.075   7.327  15.069 -0.6327  0.1160 -0.2590
 2503POPC   GL130291  22.886   7.227  15.419 -0.0880  0.0362 -0.2443
 2503POPC   GL230292  22.582   7.168  15.508  0.0866 -0.1620  0.0090
 2503POPC   C1A30293  23.085   7.448  15.825 -0.0551  0.0748  0.0703
 2503POPC   D2A30294  23.152   7.065  16.079 -0.1095 -0.0401 -0.1845
 2503POPC   C3A30295  23.429   7.048  16.519  0.0049 -0.0305 -0.0786
 2503POPC   C4A30296  23.782   6.948  16.723  0.1397  0.5493 -0.1959
 2503POPC   C1B30297  22.657   7.120  15.972  0.0268  0.1992  0.1543
 2503POPC   C2B30298  22.801   7.080  16.405  0.0307 -0.1638 -0.3116
 2503POPC   C3B30299  22.951   7.414  16.704 -0.0765 -0.2699  0.1787
 2503POPC   C4B30300  23.102   7.889  16.837  0.0472  0.2064  0.2835
 2504POPC   NC330301   0.206   3.580  15.265  0.3256 -0.1452  0.0762
 2504POPC   PO430302   0.443   3.263  15.296  0.0782  0.0148  0.0777
 2504POPC   GL130303   0.531   3.408  15.658  0.1155  0.0863  0.0538
 2504POPC   GL230304   0.264   3.420  15.744  0.1390  0.1036 -0.0352
 2504POPC   C1A30305   0.807   3.150  15.974 -0.1809  0.0631 -0.2895
 2504POPC   D2A30306   0.799   3.014  16.415  0.0091 -0.0112 -0.0211
 2504POPC   C3A30307   1.118   2.955  16.728 -0.0162  0.0311 -0.0457
 2504POPC   C4A30308   1.370   2.662  16.967 -0.2925  0.0057 -0.1997
 2504POPC   C1B30309   0.340   3.230  16.178  0.2659 -0.0368 -0.0868
 2504POPC   C2B30310   0.269   2.916  16.471 -0.1813 -0.0492  0.1887
 2504POPC   C3B30311   0.230   2.884  16.914  0.1667  0.0805  0.4999
 2504POPC   C4B30312   0.196   2.921  17.377 -0.0925 -0.0159 -0.1714
 2505POPC   NC330313  16.397  21.704  15.146  0.1319 -0.1508 -0.1641
 2505POPC   PO430314  16.037  21.863  15.152  0.1769 -0.1566  0.0049
 2505POPC   GL130315  15.892  21.880  15.513 -0.0135  0.1993 -0.2720
 2505POPC   GL230316  15.622  21.914  15.534  0.1282 -0.1891 -0.0688
 2505POPC   C1A30317  16.239  21.959  15.863 -0.1968 -0.0507 -0.1030
 2505POPC   D2A30318  16.543  22.065  16.244 -0.2350  0.2188  0.0232
 2505POPC   C3A30319  16.596  21.800  16.588  0.0267 -0.0648  0.2239
 2505POPC   C4A30320  16.756  21.751  17.046  0.1025 -0.4451 -0.0289
 2505POPC   C1B30321  15.305  21.945  15.861  0.0253  0.0564  0.1848
 2505POPC   C2B30322  15.334  21.950  16.271 -0.2663 -0.2669  0.0331
 2505POPC   C3B30323  15.228  22.188  16.645  0.1028 -0.2676 -0.0893
 2505POPC   C4B30324  15.085  22.249  17.079  0.2154  0.1881 -0.0775
 2506POPC   NC330325  30.406  18.869  15.344  0.1531  0.1392  0.1414
 2506POPC   PO430326  30.141  18.922  15.030  0.0441  0.1744 -0.1666
 2506POPC   GL130327  29.965  19.054  15.322  0.1635  0.1971 -0.2013
 2506POPC   GL230328  30.097  19.342  15.291 -0.2204 -0.0534  0.0932
 2506POPC   C1A30329  29.497  19.182  15.450 -0.0894  0.0238  0.2101
 2506POPC   D2A30330  29.175  19.403  15.711  0.0615  0.1169 -0.1694
 2506POPC   C3A30331  28.818  19.203  15.999 -0.0521  0.1307 -0.1359
 2506POPC   C4A30332  28.891  19.138  16.440 -0.0302  0.0595 -0.2119
 2506POPC   C1B30333  30.136  19.106  15.735 -0.0650 -0.1322  0.1994
 2506POPC   C2B30334  30.377  19.055  16.097  0.0498  0.0494  0.2331
 2506POPC   C3B30335  30.262  19.128  16.572  0.1824 -0.0063 -0.0082
 2506POPC   C4B30336  29.918  19.000  16.890 -0.0550  0.2442  0.0355
 2507POPC   NC330337  15.471  16.139  15.380 -0.0730  0.0218 -0.0327
 2507POPC   PO430338  15.149  16.373  15.301 -0.2504  0.0792 -0.1770
 2507POPC   GL130339  15.168  16.462  15.686  0.1620 -0.1299 -0.1027
 2507POPC   GL230340  15.225  16.165  15.766  0.1727  0.3479 -0.1917
 2507POPC   C1A30341  15.327  16.423  16.139 -0.0065 -0.2258 -0.0990
 2507POPC   D2A30342  15.375  16.277  16.567  0.1758  0.0997  0.1877
 2507POPC   C3A30343  15.153  16.604  16.838 -0.2034 -0.0187  0.3145
 2507POPC   C4A30344  15.300  16.795  17.253 -0.0141 -0.1448  0.3805
 2507POPC   C1B30345  15.260  15.842  16.151 -0.1606 -0.0197  0.4644
 2507POPC   C2B30346  15.337  15.592  16.495  0.1154 -0.1839 -0.0986
 2507POPC   C3B30347  15.326  15.528  16.952 -0.1843  0.0942  0.1654
 2507POPC   C4B30348  15.066  15.816  17.253  0.1599 -0.3253 -0.1171
 2508POPC   NC330349   8.845  31.264  15.086  0.0516 -0.2769  0.2522
 2508POPC   PO430350   8.968  31.652  15.117 -0.1563  0.0945  0.0896
 2508POPC   GL130351   8.987  31.446  15.477 -0.1035 -0.1215 -0.0887
 2508POPC   GL230352   8.706  31.521  15.556  0.1053 -0.0071 -0.3929
 2508POPC   C1A30353   9.042  31.649  15.862  0.4553 -0.0559  0.0066
 2508POPC   D2A30354   9.291  31.525  16.275 -0.1866 -0.0438  0.1689
 2508POPC   C3A30355   9.161  31.790  16.690  0.1635 -0.1415  0.0514
 2508POPC   C4A30356   9.066  31.887  17.101  0.0159 -0.0025  0.0922
 2508POPC   C1B30357   8.676  31.283  15.977  0.2363 -0.0584  0.3231
 2508POPC   C2B30358   8.701  30.989  16.319 -0.2105  0.1517 -0.0549
 2508POPC   C3B30359   8.903  30.808  16.663  0.1975  0.0446 -0.0782
 2508POPC   C4B30360   9.263  30.813  16.998 -0.2218 -0.1820  0.1099
 2509POPC   NC330361  26.138   9.155  15.565  0.1541  0.1588 -0.3787
 2509POPC   PO430362  26.142   8.759  15.606  0.0603  0.1446  0.0527
 2509POPC   GL130363  26.142   8.958  15.998 -0.3103  0.1672  0.1941
 2509POPC   GL230364  26.351   8.780  16.059 -0.0390  0.2112  0.0959
 2509POPC   C1A30365  26.101   9.050  16.475  0.1553 -0.1560  0.2514
 2509POPC   D2A30366  25.968   9.403  16.761 -0.0557 -0.0529 -0.1324
 2509POPC   C3A30367  26.081   9.579  17.132  0.3358 -0.1314  0.0590
 2509POPC   C4A30368  26.280  10.006  17.172 -0.0571 -0.1644  0.3913
 2509POPC   C1B30369  26.132   8.516  16.343 -0.1769 -0.2748  0.0342
 2509POPC   C2B30370  25.708   8.407  16.564 -0.3149 -0.0927  0.1238
 2509POPC   C3B30371  25.398   8.426  16.908 -0.0729  0.1357  0.0736
 2509POPC   C4B30372  25.121   8.014  17.062  0.1951  0.0981 -0.0580
 2510POPC   NC330373  18.209  24.706  15.321  0.0179 -0.2701  0.1534
 2510POPC   PO430374  18.592  24.646  15.235  0.1727  0.0957 -0.4918
 2510POPC   GL130375  18.543  24.488  15.629  0.2383  0.1514  0.2122
 2510POPC   GL230376  18.510  24.766  15.741  0.2630  0.3808  0.1785
 2510POPC   C1A30377  18.663  24.492  16.092 -0.1083  0.1673 -0.1605
 2510POPC   D2A30378  18.904  24.246  16.375  0.2845  0.2172 -0.0663
 2510POPC   C3A30379  18.657  24.015  16.675  0.0704  0.1232 -0.1525
 2510POPC   C4A30380  18.462  23.854  17.058 -0.0528  0.2673 -0.1247
 2510POPC   C1B30381  18.759  25.061  15.932 -0.1969  0.1798 -0.1687
 2510POPC   C2B30382  18.596  25.195  16.340 -0.0641  0.0695 -0.3536
 2510POPC   C3B30383  18.524  25.022  16.818 -0.3504 -0.0521 -0.3181
 2510POPC   C4B30384  18.659  25.121  17.204 -0.0567  0.0945  0.3771
 2511POPC   NC330385  20.901  15.460  14.512  0.1001  0.3013 -0.2106
 2511POPC   PO430386  21.271  15.551  14.615  0.3904  0.1733  0.0655
 2511POPC   GL130387  21.386  15.425  14.929 -0.3782 -0.0907 -0.1858
 2511POPC   GL230388  21.618  15.608  15.088  0.3877  0.1350 -0.1337
 2511POPC   C1A30389  21.356  15.280  15.343 -0.0994 -0.2470  0.3731
 2511POPC   D2A30390  21.306  15.125  15.804 -0.1778  0.0607 -0.3123
 2511POPC   C3A30391  21.127  14.909  16.154  0.1530 -0.2063  0.2009
 2511POPC   C4A30392  20.864  14.654  16.461  0.1412  0.0975 -0.2320
 2511POPC   C1B30393  21.439  15.783  15.494  0.0349 -0.1339  0.1139
 2511POPC   C2B30394  21.443  15.657  15.923  0.1778  0.1403 -0.0270
 2511POPC   C3B30395  21.439  15.429  16.342  0.1603 -0.0004 -0.3503
 2511POPC   C4B30396  21.491  15.627  16.742 -0.0119 -0.0974  0.0188
 2512POPC   NC330397  23.382  31.522  14.966  0.1112  0.0067  0.2337
 2512POPC   PO430398  23.611  31.232  15.117 -0.0080 -0.0324  0.3201
 2512POPC   GL130399  23.598  31.257  15.472 -0.2161  0.1822  0.2685
 2512POPC   GL230400  23.275  31.376  15.551 -0.5339  0.1074 -0.1772
 2512POPC   C1A30401  23.719  31.498  15.806  0.0740 -0.0330 -0.2534
 2512POPC   D2A30402  23.663  31.757  16.172  0.1155 -0.0845 -0.0139
 2512POPC   C3A30403  23.546  31.814  16.562  0.0912  0.0162  0.0797
 2512POPC   C4A30404  23.519  31.707  17.033  0.1466  0.2686 -0.0791
 2512POPC   C1B30405  23.253  31.550  15.997 -0.0013 -0.0168 -0.0903
 2512POPC   C2B30406  23.219  31.442  16.437 -0.1192 -0.0313 -0.3051
 2512POPC   C3B30407  23.208  31.300  16.936  0.1683  0.2315 -0.0064
 2512POPC   C4B30408  22.923  31.236  17.308 -0.1918  0.3466  0.5750
 2513POPC   NC330409   7.666  15.038  14.968 -0.2153 -0.0714  0.1515
 2513POPC   PO430410   7.536  14.989  15.340  0.4777 -0.0153 -0.0020
 2513POPC   GL130411   7.402  14.932  15.663 -0.1476 -0.0738  0.5813
 2513POPC   GL230412   7.551  14.856  15.853 -0.2240  0.0053 -0.2476
 2513POPC   C1A30413   7.116  14.628  15.848  0.0317 -0.2589 -0.2717
 2513POPC   D2A30414   7.111  14.351  16.312  0.1035 -0.0780  0.3075
 2513POPC   C3A30415   7.069  14.502  16.782 -0.1355  0.3278  0.0538
 2513POPC   C4A30416   6.796  14.220  17.121 -0.1671 -0.1533  0.0659
 2513POPC   C1B30417   7.562  14.635  16.239 -0.2492 -0.0489  0.0519
 2513POPC   C2B30418   7.602  14.644  16.700 -0.2690 -0.2147  0.0063
 2513POPC   C3B30419   7.449  14.662  17.100  0.2245 -0.1179 -0.0311
 2513POPC   C4B30420   7.130  14.545  17.427 -0.2725  0.1351  0.1228
 2514POPC   NC330421  11.184   5.280  14.855 -0.0152 -0.3778 -0.1882
 2514POPC   PO430422  11.368   4.973  15.017  0.1123  0.0847 -0.0355
 2514POPC   GL130423  11.556   5.147  15.299 -0.1693  0.0147 -0.1674
 2514POPC   GL230424  11.341   5.307  15.368  0.0675 -0.0613 -0.1282
 2514POPC   C1A30425  11.775   4.952  15.682 -0.3278 -0.2296 -0.2840
 2514POPC   D2A30426  12.018   4.704  16.010 -0.0688 -0.0008 -0.0018
 2514POPC   C3A30427  11.863   4.525  16.436 -0.0088  0.0687 -0.2008
 2514POPC   C4A30428  11.931   4.653  16.863 -0.2525 -0.2327 -0.2204
 2514POPC   C1B30429  11.537   5.434  15.791  0.1038  0.0465  0.2954
 2514POPC   C2B30430  11.677   5.228  16.141  0.0560 -0.0078 -0.0995
 2514POPC   C3B30431  12.028   5.080  16.479  0.0242  0.0280 -0.0939
 2514POPC   C4B30432  12.307   5.167  16.866 -0.2665  0.4479  0.0915
 2515POPC   NC330433  18.865  17.963  14.885  0.0414 -0.2005 -0.4089
 2515POPC   PO430434  18.619  17.806  15.208 -0.0020 -0.0456 -0.1560
 2515POPC   GL130435  18.520  18.017  15.566  0.1134  0.2778 -0.4611
 2515POPC   GL230436  18.276  18.086  15.707 -0.1999 -0.2612  0.1794
 2515POPC   C1A30437  18.683  18.352  15.891  0.0004  0.0656 -0.1418
 2515POPC   D2A30438  18.865  18.471  16.302 -0.1703  0.0349 -0.3662
 2515POPC   C3A30439  18.962  18.315  16.776  0.0042 -0.2613 -0.2018
 2515POPC   C4A30440  18.801  18.085  17.121 -0.3019 -0.1953  0.1060
 2515POPC   C1B30441  18.251  17.893  16.153  0.1963  0.1451 -0.0211
 2515POPC   C2B30442  18.336  17.794  16.615 -0.0422  0.2410  0.3230
 2515POPC   C3B30443  18.315  17.541  16.971 -0.0140 -0.1300  0.1687
 2515POPC   C4B30444  18.421  17.295  17.325  0.2172  0.0644  0.0595
 2516POPC   NC330445  17.147  30.337  15.672 -0.0366 -0.0366 -0.1060
 2516POPC   PO430446  17.318  30.683  15.675  0.2374  0.0271 -0.1081
 2516POPC   GL130447  17.365  30.850  16.022 -0.1266 -0.0684  0.1211
 2516POPC   GL230448  17.137  31.061  16.000 -0.0649  0.1027  0.0738
 2516POPC   C1A30449  17.138  30.855  16.442 -0.1042 -0.0020 -0.4373
 2516POPC   D2A30450  17.101  30.901  16.929 -0.0535  0.0317  0.1767
 2516POPC   C3A30451  16.907  31.321  17.068 -0.2498 -0.1202  0.0064
 2516POPC   C4A30452  16.923  31.574  17.498 -0.2458 -0.2489 -0.0131
 2516POPC   C1B30453  16.852  31.346  16.247  0.1324  0.0774  0.0367
 2516POPC   C2B30454  16.706  31.722  16.475 -0.3058 -0.1058  0.6135
 2516POPC   C3B30455  16.465  31.892  16.855  0.0220 -0.0980 -0.1143
 2516POPC   C4B30456  16.049  31.923  16.999  0.2604 -0.0809 -0.1104
 2517POPC   NC330457  26.227  31.408  14.907 -0.1785  0.0801  0.0453
 2517POPC   PO430458  26.134  31.612  15.240 -0.1355  0.2756  0.1497
 2517POPC   GL130459  26.183  31.581  15.581 -0.1837  0.2116 -0.5108
 2517POPC   GL230460  26.063  31.357  15.711 -0.3107  0.0045 -0.0255
 2517POPC   C1A30461  26.531  31.611  15.833 -0.1977 -0.0503 -0.0381
 2517POPC   D2A30462  26.916  31.632  16.067 -0.0346 -0.0154  0.1621
 2517POPC   C3A30463  27.160  31.299  16.195 -0.2379  0.2252 -0.0574
 2517POPC   C4A30464  27.390  30.957  16.394 -0.2236 -0.1510 -0.1285
 2517POPC   C1B30465  26.244  31.312  16.078 -0.2253  0.2646 -0.0173
 2517POPC   C2B30466  26.526  31.600  16.345 -0.2105  0.0153  0.0215
 2517POPC   C3B30467  26.951  31.589  16.548 -0.0459  0.1353 -0.1752
 2517POPC   C4B30468  27.388  31.584  16.528 -0.3924  0.0320 -0.0423
 2518POPC   NC330469  11.262  14.030  15.194  0.0662  0.0361  0.1166
 2518POPC   PO430470  11.371  13.729  15.013  0.0721  0.3358 -0.1719
 2518POPC   GL130471  11.279  13.485  15.331  0.0434  0.0662 -0.1100
 2518POPC   GL230472  11.227  13.683  15.550  0.1241 -0.0322 -0.1089
 2518POPC   C1A30473  11.511  13.253  15.751  0.1297 -0.2441 -0.1507
 2518POPC   D2A30474  11.760  13.089  16.097  0.2604  0.2232 -0.1646
 2518POPC   C3A30475  11.541  13.044  16.497  0.0479  0.0397 -0.2836
 2518POPC   C4A30476  11.211  13.164  16.721 -0.2191  0.1648 -0.1810
 2518POPC   C1B30477  11.547  13.715  15.869 -0.6147  0.0691 -0.2704
 2518POPC   C2B30478  11.895  13.608  16.175  0.0015 -0.0977  0.0645
 2518POPC   C3B30479  11.969  13.273  16.491 -0.0186  0.0239 -0.0631
 2518POPC   C4B30480  12.245  13.253  16.860  0.0259 -0.0774  0.1530
 2519POPC   NC330481  21.851  14.140  15.173 -0.0786 -0.0476 -0.2557
 2519POPC   PO430482  21.893  13.798  15.347  0.0578 -0.1452 -0.0313
 2519POPC   GL130483  21.696  13.975  15.623 -0.1173 -0.4743  0.0128
 2519POPC   GL230484  21.986  14.103  15.731  0.1673  0.3712 -0.0043
 2519POPC   C1A30485  21.569  14.025  16.067 -0.1342 -0.2439  0.0650
 2519POPC   D2A30486  21.202  13.841  16.361  0.2514 -0.0652  0.0806
 2519POPC   C3A30487  21.010  14.183  16.566 -0.0947 -0.2580 -0.1485
 2519POPC   C4A30488  21.040  14.481  16.911 -0.0128  0.3584  0.2648
 2519POPC   C1B30489  22.077  14.059  16.192 -0.0538  0.2788 -0.0877
 2519POPC   C2B30490  21.969  14.057  16.661 -0.0014 -0.1803  0.2089
 2519POPC   C3B30491  21.804  14.216  17.093  0.0225  0.2550 -0.0314
 2519POPC   C4B30492  21.911  14.518  17.455 -0.1181  0.0910  0.1785
 2520POPC   NC330493  15.037   8.311  14.786  0.1556  0.0259  0.2060
 2520POPC   PO430494  15.206   8.375  15.127  0.0500 -0.0145  0.0782
 2520POPC   GL130495  15.453   8.445  15.424  0.2640  0.1999  0.0745
 2520POPC   GL230496  15.708   8.370  15.269 -0.1487 -0.0571 -0.0384
 2520POPC   C1A30497  15.291   8.375  15.852  0.2857 -0.4888  0.1099
 2520POPC   D2A30498  15.310   8.622  16.251  0.0426  0.2037 -0.0396
 2520POPC   C3A30499  15.396   9.108  16.252 -0.0142 -0.0058 -0.2523
 2520POPC   C4A30500  15.424   9.390  15.901 -0.2442 -0.5096 -0.1103
 2520POPC   C1B30501  15.756   8.548  15.718  0.4140  0.2885  0.0628
 2520POPC   C2B30502  15.745   8.794  16.066  0.0156  0.1710 -0.0635
 2520POPC   C3B30503  15.888   8.834  16.537  0.0448  0.0662  0.0755
 2520POPC   C4B30504  15.628   8.708  16.927  0.1862 -0.2005 -0.0803
 2521POPC   NC330505   6.044   7.542  15.297  0.3596  0.1192  0.2688
 2521POPC   PO430506   5.916   7.362  14.972  0.3268  0.0992 -0.0616
 2521POPC   GL130507   5.832   7.019  15.216  0.0095  0.1722 -0.0422
 2521POPC   GL230508   5.592   6.948  15.397 -0.2715 -0.2466  0.1148
 2521POPC   C1A30509   6.085   6.676  15.459 -0.2263 -0.1240  0.1708
 2521POPC   D2A30510   6.295   6.460  15.847  0.1360 -0.2793  0.3036
 2521POPC   C3A30511   6.637   6.677  16.150  0.0621  0.0749 -0.0084
 2521POPC   C4A30512   6.853   6.762  16.527 -0.1627 -0.1501 -0.0743
 2521POPC   C1B30513   5.760   7.300  15.681  0.0023  0.0556 -0.0720
 2521POPC   C2B30514   5.822   7.204  16.151 -0.3152  0.0884 -0.0091
 2521POPC   C3B30515   5.882   7.104  16.617 -0.1251 -0.0311  0.0390
 2521POPC   C4B30516   6.135   6.862  16.963 -0.1986 -0.0432  0.2431
 2522POPC   NC330517   2.836  14.060  14.992 -0.0145 -0.1080 -0.0792
 2522POPC   PO430518   2.603  14.382  15.120  0.0253 -0.0018 -0.2756
 2522POPC   GL130519   2.778  14.207  15.420 -0.1131  0.4242  0.3320
 2522POPC   GL230520   2.579  14.252  15.640 -0.1121  0.1946  0.1175
 2522POPC   C1A30521   2.950  14.018  15.829  0.2257  0.3430  0.2028
 2522POPC   D2A30522   3.101  14.084  16.257  0.1067 -0.1948 -0.0097
 2522POPC   C3A30523   2.812  14.262  16.627 -0.2931 -0.0566  0.0877
 2522POPC   C4A30524   2.717  13.939  16.938 -0.0764 -0.1834  0.0489
 2522POPC   C1B30525   2.576  14.188  16.124 -0.1561 -0.0120 -0.1578
 2522POPC   C2B30526   2.538  13.843  16.482  0.0049  0.1386  0.0490
 2522POPC   C3B30527   2.661  13.492  16.830  0.0681 -0.0297  0.2586
 2522POPC   C4B30528   2.517  13.439  17.304  0.2633 -0.4987 -0.1159
 2523POPC   NC330529  24.034  19.736  15.233  0.0494  0.2427  0.0996
 2523POPC   PO430530  23.635  19.822  15.097 -0.3211  0.2084  0.0268
 2523POPC   GL130531  23.593  19.838  15.523  0.2161 -0.2916  0.2104
 2523POPC   GL230532  23.610  19.599  15.661  0.0146 -0.2337 -0.0326
 2523POPC   C1A30533  23.742  20.050  15.915  0.3188  0.2133  0.2363
 2523POPC   D2A30534  23.983  20.210  16.307 -0.2914  0.0670 -0.0842
 2523POPC   C3A30535  23.825  20.556  16.586 -0.0444  0.0631  0.2046
 2523POPC   C4A30536  23.789  20.645  17.046  0.5590  0.3588  0.2355
 2523POPC   C1B30537  23.763  19.285  15.910  0.2502  0.0446  0.1325
 2523POPC   C2B30538  23.868  19.123  16.300 -0.0173  0.1033  0.0672
 2523POPC   C3B30539  23.853  19.228  16.824 -0.0341  0.0094 -0.2189
 2523POPC   C4B30540  23.943  19.604  17.093 -0.3172  0.0985 -0.1313
 2524POPC   NC330541  23.275  12.973  15.476  0.0856 -0.3051  0.0575
 2524POPC   PO430542  23.603  13.164  15.548 -0.2066  0.3224  0.2927
 2524POPC   GL130543  23.640  12.842  15.845 -0.1261 -0.2865  0.0985
 2524POPC   GL230544  23.402  12.690  15.864 -0.1008 -0.2607  0.3938
 2524POPC   C1A30545  23.807  12.458  16.079 -0.1955 -0.1819 -0.1348
 2524POPC   D2A30546  24.154  12.314  16.410 -0.0005 -0.1665 -0.0150
 2524POPC   C3A30547  24.065  12.452  16.825  0.1041  0.0534  0.0365
 2524POPC   C4A30548  23.980  12.673  17.232  0.2559  0.2885 -0.0849
 2524POPC   C1B30549  23.523  12.949  16.244  0.0012  0.2691 -0.2061
 2524POPC   C2B30550  23.773  12.944  16.626  0.0336  0.1862  0.1996
 2524POPC   C3B30551  23.742  13.070  17.052  0.2281 -0.0869  0.1336
 2524POPC   C4B30552  23.511  13.301  17.382  0.2251  0.1317 -0.2170
 2525POPC   NC330553   6.820   7.739  14.898 -0.2392  0.1043  0.0858
 2525POPC   PO430554   7.204   7.629  15.042 -0.0893 -0.2478  0.0404
 2525POPC   GL130555   6.929   7.709  15.408  0.3364 -0.4318  0.3339
 2525POPC   GL230556   6.955   7.993  15.427  0.2400 -0.0350  0.0416
 2525POPC   C1A30557   7.170   7.648  15.797 -0.0691  0.0561 -0.0185
 2525POPC   D2A30558   7.256   7.521  16.249  0.2805  0.2076  0.0214
 2525POPC   C3A30559   7.081   7.660  16.679  0.0997 -0.0530  0.1090
 2525POPC   C4A30560   7.028   7.547  17.140  0.2273 -0.0547 -0.5103
 2525POPC   C1B30561   6.869   8.135  15.915  0.2201  0.2677  0.0865
 2525POPC   C2B30562   7.041   8.074  16.369  0.3113  0.1964  0.0120
 2525POPC   C3B30563   7.301   8.255  16.678 -0.1259  0.0568  0.1031
 2525POPC   C4B30564   7.476   8.529  17.067 -0.0447 -0.0487  0.6127
 2526POPC   NC330565   6.264  15.972  15.302  0.1459 -0.0581 -0.1517
 2526POPC   PO430566   5.898  15.942  15.464  0.2992 -0.2351  0.1903
 2526POPC   GL130567   5.852  15.673  15.767 -0.0958 -0.1759  0.0509
 2526POPC   GL230568   5.719  15.445  15.723 -0.2841 -0.1876 -0.2862
 2526POPC   C1A30569   5.734  15.652  16.215 -0.2048 -0.1384  0.3911
 2526POPC   D2A30570   5.682  15.668  16.665 -0.1866  0.0790  0.2388
 2526POPC   C3A30571   5.489  15.454  16.979 -0.1328  0.0937 -0.2142
 2526POPC   C4A30572   5.663  15.145  17.305  0.3231  0.0038  0.1895
 2526POPC   C1B30573   5.423  15.311  16.045 -0.3393  0.3699 -0.3443
 2526POPC   C2B30574   5.528  15.231  16.494  0.2172  0.0098  0.0458
 2526POPC   C3B30575   5.865  15.154  16.800  0.1956 -0.4034  0.0125
 2526POPC   C4B30576   6.099  15.406  17.115 -0.1127  0.1526 -0.0135
 2527POPC   NC330577   6.495   8.567  14.944  0.1115 -0.0288 -0.0681
 2527POPC   PO430578   6.151   8.418  15.021  0.0244  0.1560  0.0516
 2527POPC   GL130579   5.974   8.466  15.316  0.0719  0.1238 -0.0863
 2527POPC   GL230580   5.719   8.647  15.342  0.3722 -0.1647  0.1479
 2527POPC   C1A30581   5.906   8.308  15.768  0.0568 -0.0348  0.0427
 2527POPC   D2A30582   5.837   8.284  16.192  0.2528  0.0884  0.0746
 2527POPC   C3A30583   6.042   8.490  16.537  0.0793  0.1730 -0.1946
 2527POPC   C4A30584   6.392   8.589  16.870 -0.2147 -0.0107  0.4011
 2527POPC   C1B30585   5.709   8.941  15.692 -0.1000  0.0870 -0.0852
 2527POPC   C2B30586   5.629   9.320  15.937 -0.3718 -0.0992  0.4399
 2527POPC   C3B30587   5.520   9.489  16.341 -0.0296  0.1865  0.1234
 2527POPC   C4B30588   5.405   9.371  16.784 -0.0703  0.3097 -0.2182
 2528POPC   NC330589  13.625  21.745  15.321  0.1159 -0.2333  0.1633
 2528POPC   PO430590  13.948  21.784  15.105 -0.0716 -0.1378 -0.2083
 2528POPC   GL130591  14.027  21.754  15.523  0.2613  0.5330 -0.0002
 2528POPC   GL230592  14.182  21.917  15.701  0.0437  0.2282  0.0613
 2528POPC   C1A30593  13.735  22.010  15.820 -0.2393  0.0553  0.2202
 2528POPC   D2A30594  13.576  22.309  16.150 -0.0070 -0.0368  0.3450
 2528POPC   C3A30595  13.744  22.297  16.573 -0.1800 -0.1146 -0.0512
 2528POPC   C4A30596  13.977  22.435  16.925  0.3016  0.0311 -0.3021
 2528POPC   C1B30597  14.031  21.696  16.115  0.2097  0.2118  0.2249
 2528POPC   C2B30598  13.843  21.821  16.506 -0.0244  0.0476  0.2711
 2528POPC   C3B30599  13.774  21.921  16.940  0.1214  0.1818  0.3644
 2528POPC   C4B30600  13.692  21.778  17.356  0.3431 -0.4223 -0.1334
 2529POPC   NC330601  14.602   2.691  15.501  0.0307 -0.1744  0.0866
 2529POPC   PO430602  14.946   2.819  15.435 -0.2672 -0.2437 -0.1753
 2529POPC   GL130603  15.158   2.874  15.823 -0.3811  0.1136  0.2886
 2529POPC   GL230604  14.911   2.809  15.969  0.0851 -0.1614 -0.0998
 2529POPC   C1A30605  15.288   3.083  16.176 -0.1105 -0.1054  0.0551
 2529POPC   D2A30606  15.465   3.389  16.523 -0.0212  0.1706  0.1475
 2529POPC   C3A30607  15.558   3.190  16.956  0.2284  0.1436 -0.0275
 2529POPC   C4A30608  15.594   3.074  17.414 -0.0119  0.0421 -0.3349
 2529POPC   C1B30609  14.811   2.566  16.379  0.1605  0.5765  0.2189
 2529POPC   C2B30610  14.721   2.496  16.824  0.1228  0.1390 -0.3496
 2529POPC   C3B30611  15.096   2.492  17.100 -0.0929 -0.0113 -0.1425
 2529POPC   C4B30612  15.567   2.641  17.080  0.0039 -0.0129 -0.0417
 2530POPC   NC330613   0.098  29.004  14.835  0.2443  0.1275 -0.0505
 2530POPC   PO430614  -0.023  28.901  15.210  0.0347  0.1900  0.0382
 2530POPC   GL130615   0.073  28.831  15.634 -0.1087  0.2125  0.1251
 2530POPC   GL230616   0.308  28.672  15.570  0.3104  0.0641 -0.0279
 2530POPC   C1A30617   0.093  29.042  16.084 -0.0732 -0.0866  0.2098
 2530POPC   D2A30618   0.196  29.037  16.542 -0.0214  0.3032 -0.2524
 2530POPC   C3A30619   0.270  28.717  16.844  0.1109  0.1983  0.0358
 2530POPC   C4A30620   0.309  28.505  17.266  0.0536 -0.1571 -0.0734
 2530POPC   C1B30621   0.524  28.655  15.925  0.1665  0.0872  0.0907
 2530POPC   C2B30622   0.530  28.636  16.397 -0.0809  0.3052  0.1049
 2530POPC   C3B30623   0.767  28.747  16.787  0.2684 -0.0755  0.0852
 2530POPC   C4B30624   0.786  28.530  17.177 -0.0290  0.1968 -0.0771
 2531POPC   NC330625   6.924   6.424  14.676  0.1190  0.5686  0.0392
 2531POPC   PO430626   7.058   6.578  15.014 -0.2751 -0.1949  0.1202
 2531POPC   GL130627   6.954   6.811  15.317 -0.0899  0.1493  0.1648
 2531POPC   GL230628   7.034   6.656  15.519  0.0889  0.2010  0.0765
 2531POPC   C1A30629   6.584   6.852  15.650 -0.0957  0.0000  0.1249
 2531POPC   D2A30630   6.159   6.955  15.851  0.0552  0.3589 -0.1149
 2531POPC   C3A30631   6.185   6.824  16.249 -0.0663 -0.0731  0.2460
 2531POPC   C4A30632   6.415   7.042  16.577 -0.0110 -0.3064  0.0165
 2531POPC   C1B30633   7.079   6.510  15.968  0.0446 -0.2951 -0.3769
 2531POPC   C2B30634   7.252   6.641  16.348 -0.0089 -0.3233 -0.3725
 2531POPC   C3B30635   7.283   6.992  16.654  0.3080 -0.3160 -0.0587
 2531POPC   C4B30636   7.504   7.346  16.922  0.0350 -0.2649  0.1474
 2532POPC   NC330637  18.196  30.846  15.450 -0.2015  0.0175  0.4201
 2532POPC   PO430638  17.965  31.122  15.248 -0.1081  0.0724  0.0839
 2532POPC   GL130639  18.073  31.337  15.465 -0.4490 -0.1291 -0.2013
 2532POPC   GL230640  18.170  31.210  15.740  0.0497 -0.2291  0.0009
 2532POPC   C1A30641  17.742  31.522  15.753 -0.0358  0.3694 -0.0872
 2532POPC   D2A30642  17.466  31.337  16.116 -0.1963  0.2694  0.0097
 2532POPC   C3A30643  17.641  31.062  16.419  0.1164 -0.2290  0.1135
 2532POPC   C4A30644  18.031  31.177  16.722  0.2311  0.1433 -0.0697
 2532POPC   C1B30645  18.020  31.288  16.136  0.3032 -0.1484 -0.2258
 2532POPC   C2B30646  17.873  31.606  16.466 -0.1117  0.1581  0.2953
 2532POPC   C3B30647  17.783  31.609  16.890  0.1950  0.1156  0.0724
 2532POPC   C4B30648  17.723  31.921  17.220  0.3190  0.2777  0.0258
 2533POPC   NC330649   4.282  21.654  15.378  0.0053  0.0857  0.0613
 2533POPC   PO430650   4.421  22.027  15.337  0.2107 -0.1707  0.1164
 2533POPC   GL130651   4.517  22.044  15.725 -0.1188  0.0585  0.3596
 2533POPC   GL230652   4.346  22.200  15.897 -0.0065 -0.0079  0.0191
 2533POPC   C1A30653   4.561  21.850  16.175  0.3964  0.3403 -0.0744
 2533POPC   D2A30654   4.478  21.916  16.653 -0.2045  0.0585  0.2287
 2533POPC   C3A30655   4.553  22.331  16.917 -0.2791  0.1343  0.0338
 2533POPC   C4A30656   4.635  22.475  17.355  0.4005 -0.4029  0.0730
 2533POPC   C1B30657   4.630  22.364  16.223 -0.0921 -0.1638 -0.2176
 2533POPC   C2B30658   4.980  22.435  16.568  0.0683 -0.0763 -0.0593
 2533POPC   C3B30659   5.079  22.496  17.013  0.0585 -0.0433  0.1469
 2533POPC   C4B30660   5.103  22.297  17.453 -0.0108  0.3446 -0.1812
 2534POPC   NC330661  25.263   7.474  15.001  0.2485  0.3841 -0.0107
 2534POPC   PO430662  25.070   7.215  15.214 -0.4009 -0.2788  0.0221
 2534POPC   GL130663  24.840   7.231  15.514 -0.1164 -0.3023  0.1153
 2534POPC   GL230664  25.018   7.326  15.727  0.1015  0.0413 -0.1345
 2534POPC   C1A30665  24.563   7.130  15.808 -0.1258  0.1727  0.1416
 2534POPC   D2A30666  24.474   6.773  16.104  0.0162  0.3691 -0.0816
 2534POPC   C3A30667  24.177   6.710  16.430 -0.1774  0.1545 -0.2346
 2534POPC   C4A30668  24.045   6.506  16.813 -0.1156  0.1749 -0.3807
 2534POPC   C1B30669  24.907   7.287  16.218  0.0856 -0.2342 -0.3609
 2534POPC   C2B30670  24.741   6.998  16.509  0.0896  0.0471  0.1504
 2534POPC   C3B30671  24.620   6.558  16.558 -0.2755  0.1121  0.2476
 2534POPC   C4B30672  24.326   6.225  16.537 -0.3581  0.0942 -0.1199
 2535POPC   NC330673  12.750   1.641  14.704 -0.0185 -0.3290 -0.1656
 2535POPC   PO430674  12.558   1.403  14.962 -0.4037  0.0868 -0.2450
 2535POPC   GL130675  12.937   1.137  14.965  0.0275  0.1506 -0.0618
 2535POPC   GL230676  13.172   1.224  15.027 -0.2211 -0.3373  0.1166
 2535POPC   C1A30677  13.169   0.765  15.136 -0.0384 -0.0221 -0.1076
 2535POPC   D2A30678  13.643   0.809  15.268 -0.0664  0.5291  0.0598
 2535POPC   C3A30679  13.931   0.565  15.606 -0.3629  0.1822 -0.3039
 2535POPC   C4A30680  14.170   0.180  15.605 -0.0286  0.0014 -0.1899
 2535POPC   C1B30681  13.064   1.125  15.476  0.0138 -0.2584  0.1356
 2535POPC   C2B30682  13.011   1.116  15.916 -0.0195  0.2109  0.0953
 2535POPC   C3B30683  13.291   0.795  16.171 -0.0089  0.0456 -0.0952
 2535POPC   C4B30684  13.256   0.463  16.498 -0.1362 -0.2453 -0.0690
 2536POPC   NC330685   1.183  20.623  15.462 -0.0309 -0.5195 -0.0647
 2536POPC   PO430686   1.282  20.285  15.531  0.3693  0.0941 -0.1142
 2536POPC   GL130687   1.363  20.235  15.875  0.0151  0.0712  0.0084
 2536POPC   GL230688   1.163  20.432  15.991  0.1563  0.2173  0.1677
 2536POPC   C1A30689   1.585  20.204  16.288  0.3173  0.1582 -0.0818
 2536POPC   D2A30690   1.716  20.287  16.738  0.1925 -0.0861  0.1906
 2536POPC   C3A30691   1.419  20.355  17.082 -0.1277 -0.0021  0.0706
 2536POPC   C4A30692   1.079  20.374  17.405 -0.3038  0.1577  0.1801
 2536POPC   C1B30693   0.744  20.301  16.218  0.3059  0.2137 -0.0683
 2536POPC   C2B30694   0.395  20.396  16.508 -0.1671  0.1075  0.2267
 2536POPC   C3B30695   0.149  20.172  16.801  0.0663 -0.1242  0.1272
 2536POPC   C4B30696   0.134  19.846  17.083  0.0100  0.3934  0.0034
 2537POPC   NC330697  12.754   2.377  15.087 -0.0590  0.4040  0.0874
 2537POPC   PO430698  12.507   2.345  15.360  0.2699 -0.2491 -0.4987
 2537POPC   GL130699  12.435   2.144  15.682  0.0286  0.0377 -0.1034
 2537POPC   GL230700  12.658   1.980  15.734 -0.1021  0.0446  0.1311
 2537POPC   C1A30701  12.225   2.039  16.036  0.2467 -0.0395 -0.1585
 2537POPC   D2A30702  12.050   1.620  16.088  0.2363 -0.0137 -0.0396
 2537POPC   C3A30703  12.178   1.223  16.322 -0.0671 -0.0701  0.1537
 2537POPC   C4A30704  12.583   1.124  16.617  0.1270 -0.1911 -0.0345
 2537POPC   C1B30705  12.924   2.105  16.081  0.1419  0.0221 -0.1460
 2537POPC   C2B30706  12.832   2.125  16.538 -0.1186 -0.1710  0.2058
 2537POPC   C3B30707  12.745   2.228  17.002 -0.0213 -0.0669  0.2540
 2537POPC   C4B30708  13.003   2.112  17.363 -0.0893 -0.1250  0.3103
 2538POPC   NC330709   1.488  19.025  15.217 -0.0089 -0.0363  0.4420
 2538POPC   PO430710   1.491  19.414  15.322 -0.0210 -0.0041 -0.1204
 2538POPC   GL130711   1.734  19.323  15.587 -0.2280 -0.0309 -0.2441
 2538POPC   GL230712   1.432  19.272  15.770 -0.0565 -0.0170  0.0795
 2538POPC   C1A30713   1.933  19.246  15.960  0.2064 -0.3020  0.1701
 2538POPC   D2A30714   1.990  19.366  16.407 -0.2195 -0.1882  0.0093
 2538POPC   C3A30715   2.223  19.057  16.702  0.2262  0.0768 -0.2447
 2538POPC   C4A30716   2.622  18.901  16.917 -0.0759  0.0588 -0.2351
 2538POPC   C1B30717   1.473  19.448  16.179 -0.2266  0.2149 -0.0489
 2538POPC   C2B30718   1.463  19.197  16.586 -0.1048 -0.2671 -0.1284
 2538POPC   C3B30719   1.067  19.094  16.823  0.2359  0.2774  0.0358
 2538POPC   C4B30720   1.065  18.662  17.018  0.1344  0.0108  0.0842
 2539POPC   NC330721   6.498  10.607  14.821 -0.1527 -0.0352  0.1946
 2539POPC   PO430722   6.187  10.335  14.795 -0.2751  0.1814 -0.0012
 2539POPC   GL130723   5.922  10.343  15.131 -0.4467 -0.0948  0.0775
 2539POPC   GL230724   6.032  10.591  15.162  0.2682 -0.2203  0.0618
 2539POPC   C1A30725   5.519  10.266  14.959  0.3093 -0.1757 -0.2781
 2539POPC   D2A30726   5.038  10.350  14.999  0.0452 -0.1496 -0.3820
 2539POPC   C3A30727   4.757  10.028  15.248  0.0994  0.0263 -0.0152
 2539POPC   C4A30728   4.405   9.792  15.389  0.3343  0.0523  0.2338
 2539POPC   C1B30729   6.242  10.522  15.550 -0.0541 -0.0069 -0.1784
 2539POPC   C2B30730   6.451  10.634  15.960  0.2895 -0.1055  0.1384
 2539POPC   C3B30731   6.713  10.597  16.346 -0.0991 -0.2242 -0.2092
 2539POPC   C4B30732   7.135  10.857  16.500 -0.0644  0.1471 -0.0084
 2540POPC   NC330733  15.119  14.792  15.368  0.0081  0.1551  0.0615
 2540POPC   PO430734  14.807  14.711  15.517 -0.2633  0.3032  0.0754
 2540POPC   GL130735  15.084  14.589  15.796  0.2258 -0.3765  0.0041
 2540POPC   GL230736  15.069  14.316  15.818  0.1397  0.1917 -0.1458
 2540POPC   C1A30737  15.271  14.598  16.220 -0.2734  0.2206 -0.0504
 2540POPC   D2A30738  15.407  14.729  16.600  0.1576 -0.0628  0.2041
 2540POPC   C3A30739  15.131  14.992  16.879  0.0793  0.0208  0.0516
 2540POPC   C4A30740  14.717  14.975  17.104  0.1530  0.1181  0.1195
 2540POPC   C1B30741  14.833  14.387  16.235  0.0451  0.0935  0.0213
 2540POPC   C2B30742  14.639  14.159  16.589  0.0616 -0.1848  0.2274
 2540POPC   C3B30743  14.195  14.031  16.709  0.0085 -0.0762 -0.0788
 2540POPC   C4B30744  14.030  13.857  17.076 -0.2156  0.0666 -0.0314
 2541POPC   NC330745  21.349  13.291  14.748  0.0284  0.2944 -0.0439
 2541POPC   PO430746  21.137  13.047  15.016 -0.1024 -0.0314  0.1062
 2541POPC   GL130747  21.182  13.248  15.321  0.1980 -0.3260  0.1974
 2541POPC   GL230748  21.341  13.057  15.489  0.1620  0.2182 -0.1974
 2541POPC   C1A30749  20.974  13.270  15.726  0.1462 -0.1914 -0.1130
 2541POPC   D2A30750  20.922  13.362  16.209 -0.0385 -0.3361 -0.0533
 2541POPC   C3A30751  20.857  13.214  16.662  0.2316  0.2976  0.2784
 2541POPC   C4A30752  20.744  13.320  17.140 -0.0072  0.1243 -0.1076
 2541POPC   C1B30753  21.594  13.053  15.905  0.1296 -0.0064 -0.2092
 2541POPC   C2B30754  21.590  12.904  16.346 -0.3469 -0.0545 -0.1506
 2541POPC   C3B30755  21.798  12.830  16.787 -0.0749  0.3258 -0.0104
 2541POPC   C4B30756  22.268  12.767  16.939  0.0228  0.0188 -0.1768
 2542POPC   NC330757   0.542  27.760  15.676  0.1944 -0.0298 -0.0759
 2542POPC   PO430758   0.916  27.554  15.660 -0.0122 -0.0701 -0.1751
 2542POPC   GL130759   0.825  27.641  15.989 -0.2978  0.1825  0.1130
 2542POPC   GL230760   1.110  27.637  16.157 -0.1048  0.1405 -0.1562
 2542POPC   C1A30761   0.461  27.692  16.261  0.3303 -0.1397  0.0584
 2542POPC   D2A30762   0.323  27.770  16.735  0.2828  0.0190 -0.1260
 2542POPC   C3A30763  -0.045  27.636  16.974 -0.1012  0.1238 -0.4749
 2542POPC   C4A30764  -0.289  27.757  17.362 -0.1231  0.0825 -0.1777
 2542POPC   C1B30765   0.886  27.725  16.543  0.3963  0.0754  0.1397
 2542POPC   C2B30766   0.892  27.831  16.996 -0.0874 -0.4191 -0.1700
 2542POPC   C3B30767   1.153  27.973  17.285 -0.3175 -0.0319 -0.0804
 2542POPC   C4B30768   1.614  27.960  17.380 -0.1079 -0.1707  0.1444
 2543POPC   NC330769  29.483  16.115  14.965  0.0089  0.4137 -0.1499
 2543POPC   PO430770  29.706  15.795  15.109  0.1367 -0.2348 -0.0774
 2543POPC   GL130771  29.742  15.879  15.492  0.4774 -0.4699 -0.0283
 2543POPC   GL230772  29.590  16.176  15.498 -0.1955 -0.1061  0.0895
 2543POPC   C1A30773  29.975  15.794  15.816 -0.2836  0.0668  0.0217
 2543POPC   D2A30774  30.279  15.668  16.191  0.1669  0.1759  0.1584
 2543POPC   C3A30775  30.169  15.995  16.527 -0.2801  0.4062 -0.0761
 2543POPC   C4A30776  30.115  16.127  16.982 -0.2428 -0.1230  0.2235
 2543POPC   C1B30777  29.409  16.351  15.878 -0.1270 -0.1426 -0.1348
 2543POPC   C2B30778  29.224  16.482  16.299  0.0202 -0.0691  0.0448
 2543POPC   C3B30779  28.925  16.650  16.550  0.1111  0.0470  0.3705
 2543POPC   C4B30780  28.545  16.760  16.825  0.2394 -0.3085  0.0011
 2544POPC   NC330781   0.384  20.972  15.107  0.0384 -0.0350  0.1353
 2544POPC   PO430782   0.739  21.119  15.093 -0.1331  0.1713  0.3500
 2544POPC   GL130783   0.809  21.232  15.392 -0.3754 -0.2678  0.3067
 2544POPC   GL230784   0.805  20.999  15.558  0.0845 -0.2523  0.0672
 2544POPC   C1A30785   1.015  21.503  15.688 -0.1182  0.0975 -0.1022
 2544POPC   D2A30786   0.872  21.599  16.080  0.1200 -0.1655 -0.1976
 2544POPC   C3A30787   0.912  21.667  16.584 -0.3651  0.1735  0.0825
 2544POPC   C4A30788   1.038  21.354  16.928 -0.1126  0.0300 -0.0958
 2544POPC   C1B30789   0.853  20.826  16.008 -0.1549  0.0880 -0.1320
 2544POPC   C2B30790   0.838  20.741  16.512  0.0597  0.0565  0.1796
 2544POPC   C3B30791   0.609  20.868  16.871 -0.1536  0.3568 -0.1463
 2544POPC   C4B30792   0.365  20.948  17.284 -0.2317 -0.0416  0.2548
 2545POPC   NC330793   1.827  26.344  15.008 -0.1678  0.1423 -0.0201
 2545POPC   PO430794   2.113  26.484  15.193  0.1170  0.1547  0.0130
 2545POPC   GL130795   2.024  26.376  15.533  0.1732  0.1902  0.2346
 2545POPC   GL230796   2.293  26.264  15.688  0.0280 -0.1804 -0.3391
 2545POPC   C1A30797   1.841  26.317  15.937  0.1466  0.0396 -0.0703
 2545POPC   D2A30798   2.122  26.187  16.263  0.1600 -0.3581  0.2249
 2545POPC   C3A30799   2.142  26.012  16.676  0.0137 -0.1712 -0.2912
 2545POPC   C4A30800   2.076  25.861  17.112  0.0345 -0.0068 -0.1138
 2545POPC   C1B30801   2.578  26.362  16.059 -0.2602  0.1797 -0.0963
 2545POPC   C2B30802   2.559  26.238  16.529 -0.1579 -0.0433  0.3614
 2545POPC   C3B30803   2.849  26.451  16.792 -0.0323 -0.0968 -0.1099
 2545POPC   C4B30804   3.174  26.617  17.061  0.0938  0.0085  0.2596
 2546POPC   NC330805  24.973  19.513  15.237 -0.2231 -0.0072  0.0699
 2546POPC   PO430806  24.687  19.767  15.155 -0.0767 -0.1845 -0.2089
 2546POPC   GL130807  24.649  20.010  15.475 -0.1155  0.1056 -0.4317
 2546POPC   GL230808  24.380  20.029  15.457  0.0833 -0.0430 -0.2592
 2546POPC   C1A30809  24.856  20.157  15.898  0.1769  0.1847 -0.0780
 2546POPC   D2A30810  25.100  20.002  16.277  0.1146 -0.0440  0.1102
 2546POPC   C3A30811  25.511  19.913  16.298 -0.0488 -0.0976 -0.1453
 2546POPC   C4A30812  25.915  19.847  16.320  0.0918 -0.0292 -0.0014
 2546POPC   C1B30813  24.547  19.797  15.888 -0.1149 -0.0907  0.1483
 2546POPC   C2B30814  24.679  19.528  16.234  0.0966 -0.3985  0.0924
 2546POPC   C3B30815  24.810  19.514  16.655 -0.1524 -0.0560 -0.2115
 2546POPC   C4B30816  25.154  19.662  16.897 -0.0548 -0.2286 -0.1693
 2547POPC   NC330817  13.418   0.982  14.635 -0.0392 -0.2527 -0.0014
 2547POPC   PO430818  13.627   1.288  14.759 -0.1529  0.0566  0.1306
 2547POPC   GL130819  13.802   0.911  14.817  0.3601  0.0754 -0.0278
 2547POPC   GL230820  13.922   0.853  14.592  0.0766  0.2233  0.1313
 2547POPC   C1A30821  14.235   0.744  14.989  0.0304 -0.3940  0.3937
 2547POPC   D2A30822  14.462   0.941  15.346 -0.0171  0.2238  0.0434
 2547POPC   C3A30823  14.529   0.609  15.605  0.0233  0.0673 -0.0703
 2547POPC   C4A30824  14.717   0.249  15.879 -0.2294  0.1485  0.4824
 2547POPC   C1B30825  14.352   0.548  14.516  0.3202  0.0042  0.1143
 2547POPC   C2B30826  14.634   0.193  14.722  0.0723  0.2884 -0.0383
 2547POPC   C3B30827  15.054   0.115  14.915  0.1619 -0.2174  0.1745
 2547POPC   C4B30828  15.174   0.392  15.299  0.1031  0.1549  0.3739
 2548POPC   NC330829  25.141  25.689  15.052  0.2185 -0.3726  0.1041
 2548POPC   PO430830  25.020  25.773  15.427 -0.2889 -0.2513 -0.0332
 2548POPC   GL130831  25.100  25.637  15.818  0.2122  0.1185 -0.0340
 2548POPC   GL230832  25.010  25.865  15.959  0.3537 -0.3322 -0.1004
 2548POPC   C1A30833  25.172  25.358  16.228 -0.1814 -0.0653 -0.3020
 2548POPC   D2A30834  24.912  25.148  16.559 -0.1399  0.2629 -0.1150
 2548POPC   C3A30835  24.617  25.226  16.889  0.2776  0.2972  0.0711
 2548POPC   C4A30836  24.455  25.479  17.234  0.1836  0.0243  0.0348
 2548POPC   C1B30837  24.948  25.816  16.407 -0.1304 -0.1173 -0.1053
 2548POPC   C2B30838  24.988  25.560  16.781 -0.2244  0.0494 -0.1043
 2548POPC   C3B30839  25.334  25.604  17.052 -0.1056  0.1258 -0.2123
 2548POPC   C4B30840  25.753  25.615  17.287 -0.2942  0.0375  0.2564
 2549POPC   NC330841  28.766  22.402  15.159 -0.0168  0.0823 -0.1216
 2549POPC   PO430842  28.950  22.721  15.057  0.0940 -0.3230  0.2814
 2549POPC   GL130843  28.983  22.871  15.351 -0.1467  0.1441 -0.1502
 2549POPC   GL230844  29.290  22.840  15.436  0.2362 -0.3773  0.0676
 2549POPC   C1A30845  28.867  22.728  15.778  0.0942  0.0826  0.1399
 2549POPC   D2A30846  28.936  22.452  16.098  0.0712  0.1508  0.2811
 2549POPC   C3A30847  29.014  22.197  16.499  0.0041 -0.2087  0.1038
 2549POPC   C4A30848  29.266  22.232  16.869 -0.0322 -0.1316 -0.1911
 2549POPC   C1B30849  29.359  22.701  15.837 -0.0958 -0.1514  0.1044
 2549POPC   C2B30850  29.320  22.715  16.288  0.0285  0.3332 -0.0345
 2549POPC   C3B30851  29.353  22.782  16.719  0.1188  0.1317 -0.1207
 2549POPC   C4B30852  29.271  23.083  17.131  0.0067 -0.0198  0.1200
 2550POPC   NC330853  13.448   6.912  15.143  0.2254  0.1146  0.0828
 2550POPC   PO430854  13.537   7.230  15.238 -0.0501  0.0200 -0.3123
 2550POPC   GL130855  13.472   7.393  15.571  0.3344 -0.1900 -0.1541
 2550POPC   GL230856  13.757   7.265  15.789  0.2415 -0.0488 -0.2953
 2550POPC   C1A30857  13.320   7.681  15.941  0.0587  0.0502  0.1510
 2550POPC   D2A30858  13.036   7.975  16.147  0.1994 -0.1106 -0.1903
 2550POPC   C3A30859  13.191   8.291  16.548  0.1761  0.0191 -0.3775
 2550POPC   C4A30860  13.174   8.284  17.020 -0.6588  0.1841 -0.2305
 2550POPC   C1B30861  13.898   7.265  16.235 -0.1798 -0.0353 -0.0039
 2550POPC   C2B30862  13.984   7.347  16.651 -0.1201 -0.2221 -0.1911
 2550POPC   C3B30863  14.004   7.146  17.121  0.1400 -0.1842  0.0029
 2550POPC   C4B30864  14.040   7.004  17.611 -0.0729  0.1002  0.0856
 2551POPC   NC330865  29.999  21.742  14.859 -0.3212  0.0188  0.0364
 2551POPC   PO430866  30.295  21.918  14.993  0.1448 -0.0296  0.1987
 2551POPC   GL130867  30.414  21.981  15.315  0.0173 -0.4408 -0.0858
 2551POPC   GL230868  30.593  22.145  15.521 -0.1184 -0.1050 -0.0448
 2551POPC   C1A30869  30.124  22.017  15.723 -0.1574 -0.1692  0.1805
 2551POPC   D2A30870  29.976  21.975  16.184  0.0886  0.3167  0.1119
 2551POPC   C3A30871  29.908  21.935  16.632 -0.2064 -0.0461  0.0424
 2551POPC   C4A30872  29.757  21.937  17.048  0.1862 -0.0214 -0.0886
 2551POPC   C1B30873  30.577  22.197  15.997 -0.0873  0.1927 -0.1293
 2551POPC   C2B30874  30.624  22.455  16.357  0.1363 -0.2035 -0.1556
 2551POPC   C3B30875  30.675  22.461  16.824  0.0090 -0.0708  0.1078
 2551POPC   C4B30876  30.497  22.478  17.296  0.2545  0.0968 -0.0552
 2552POPC   NC330877   9.718  30.091  15.065  0.2694  0.3342  0.2630
 2552POPC   PO430878   9.812  30.389  15.299 -0.0367 -0.3071 -0.0004
 2552POPC   GL130879   9.939  30.164  15.700  0.4785 -0.0674 -0.0714
 2552POPC   GL230880  10.000  30.417  15.824 -0.1405  0.1705 -0.0564
 2552POPC   C1A30881   9.814  29.853  16.033 -0.2443  0.2118  0.1447
 2552POPC   D2A30882   9.907  29.415  16.257  0.0232  0.0070  0.0971
 2552POPC   C3A30883  10.341  29.298  16.330 -0.1283 -0.0076  0.0778
 2552POPC   C4A30884  10.655  29.003  16.167 -0.3443 -0.0573 -0.1380
 2552POPC   C1B30885   9.917  30.279  16.272  0.0541  0.1771  0.1544
 2552POPC   C2B30886  10.145  30.397  16.668 -0.2924 -0.0122  0.0596
 2552POPC   C3B30887  10.356  30.722  16.971 -0.0830  0.2596 -0.2355
 2552POPC   C4B30888  10.294  30.711  17.462 -0.0473  0.3495  0.2865
 2553POPC   NC330889  14.862  22.781  14.984  0.0283 -0.2079 -0.1859
 2553POPC   PO430890  14.729  22.509  15.248  0.0908  0.1857  0.1010
 2553POPC   GL130891  14.680  22.476  15.617  0.1422 -0.2190 -0.0061
 2553POPC   GL230892  14.899  22.238  15.668  0.0469  0.5771  0.2036
 2553POPC   C1A30893  14.388  22.285  15.930 -0.0550 -0.1520  0.0107
 2553POPC   D2A30894  14.105  22.206  16.296  0.0351 -0.1048  0.1580
 2553POPC   C3A30895  14.372  22.406  16.666  0.2790  0.3116  0.2110
 2553POPC   C4A30896  14.784  22.621  16.652 -0.1712 -0.0737  0.0245
 2553POPC   C1B30897  14.668  21.907  15.882 -0.3070  0.0115 -0.0139
 2553POPC   C2B30898  14.469  21.898  16.304 -0.1187 -0.1132  0.3405
 2553POPC   C3B30899  14.283  21.918  16.760  0.1889 -0.3596  0.2021
 2553POPC   C4B30900  14.318  21.639  17.120  0.1998 -0.1700 -0.1030
 2554POPC   NC330901  31.723  29.788  15.004 -0.3820 -0.0804 -0.1755
 2554POPC   PO430902  31.592  29.414  14.963 -0.0247 -0.3295  0.2412
 2554POPC   GL130903  31.749  29.466  15.356 -0.2462  0.0915  0.3208
 2554POPC   GL230904  31.984  29.277  15.341 -0.0669  0.0428 -0.0346
 2554POPC   C1A30905  31.904  29.536  15.826  0.1486 -0.1188  0.1768
 2554POPC   D2A30906  31.959  29.656  16.276 -0.0774  0.0813  0.0493
 2554POPC   C3A30907  31.585  29.556  16.619 -0.0568 -0.1286 -0.2096
 2554POPC   C4A30908  31.477  29.553  17.131  0.2076 -0.1416 -0.1561
 2554POPC   C1B30909  32.182  29.126  15.690 -0.0285 -0.3533 -0.0625
 2554POPC   C2B30910  32.235  29.277  16.137  0.1549  0.1635 -0.1237
 2554POPC   C3B30911  32.411  29.157  16.540  0.0793  0.1794 -0.0082
 2554POPC   C4B30912  32.759  29.414  16.797  0.2572  0.3318  0.1301
 2555POPC   NC330913  26.266   0.999  15.106 -0.3362  0.3304 -0.3931
 2555POPC   PO430914  26.492   0.688  15.072 -0.1528 -0.0672  0.2084
 2555POPC   GL130915  26.477   0.796  15.493 -0.2257  0.1404 -0.2666
 2555POPC   GL230916  26.760   0.792  15.521  0.0813 -0.0639 -0.3395
 2555POPC   C1A30917  26.051   0.845  15.699 -0.2235 -0.3243 -0.1437
 2555POPC   D2A30918  25.877   1.134  15.987  0.0686 -0.0493 -0.3384
 2555POPC   C3A30919  25.974   1.101  16.400 -0.2343 -0.1223 -0.0802
 2555POPC   C4A30920  26.082   0.906  16.805  0.1936 -0.1136  0.0249
 2555POPC   C1B30921  26.581   0.820  15.927 -0.0503  0.2238 -0.0375
 2555POPC   C2B30922  26.370   0.784  16.333 -0.2525 -0.4856 -0.4449
 2555POPC   C3B30923  26.584   0.779  16.733  0.2386  0.3116 -0.0912
 2555POPC   C4B30924  26.476   0.954  17.140 -0.1709 -0.2320  0.0603
 2556POPC   NC330925  20.940   8.995  14.901  0.2241 -0.0859 -0.0117
 2556POPC   PO430926  20.775   9.047  15.260  0.1741  0.1748 -0.0875
 2556POPC   GL130927  20.578   8.928  15.577 -0.0594 -0.2054  0.0079
 2556POPC   GL230928  20.311   9.027  15.549  0.1694  0.1408  0.0408
 2556POPC   C1A30929  20.536   9.002  16.031 -0.1559  0.1214  0.0910
 2556POPC   D2A30930  20.524   9.263  16.347  0.0000  0.0680  0.0750
 2556POPC   C3A30931  20.467   9.064  16.792 -0.0007 -0.1114  0.1691
 2556POPC   C4A30932  20.280   9.279  17.160  0.1074 -0.0121 -0.0519
 2556POPC   C1B30933  20.090   9.225  15.919  0.0585  0.1023  0.0277
 2556POPC   C2B30934  20.081   9.156  16.355  0.0684 -0.0634 -0.2039
 2556POPC   C3B30935  20.095   9.463  16.719  0.0854 -0.0222 -0.0104
 2556POPC   C4B30936  20.186   9.847  16.961  0.0205 -0.0493  0.1114
 2557POPC   NC330937  11.853   3.726  15.131 -0.1265  0.2046  0.2440
 2557POPC   PO430938  12.215   3.664  15.279  0.0558 -0.3261 -0.1611
 2557POPC   GL130939  12.276   3.697  15.718  0.4170  0.0450 -0.0302
 2557POPC   GL230940  12.442   3.872  15.688 -0.1393  0.0960 -0.0950
 2557POPC   C1A30941  12.057   3.855  16.112  0.1029 -0.1908 -0.0644
 2557POPC   D2A30942  12.240   3.773  16.518 -0.2845  0.1161 -0.0938
 2557POPC   C3A30943  11.945   3.707  16.882  0.1081  0.1361  0.1864
 2557POPC   C4A30944  11.498   3.764  17.050  0.2507 -0.1584 -0.1214
 2557POPC   C1B30945  12.610   3.964  16.116  0.1466 -0.1452  0.1135
 2557POPC   C2B30946  12.665   3.983  16.584 -0.0324 -0.0362 -0.0591
 2557POPC   C3B30947  12.640   3.888  17.010  0.1294 -0.1130  0.4919
 2557POPC   C4B30948  12.959   3.641  17.228 -0.0310  0.0703  0.3805
 2558POPC   NC330949  21.830  12.645  15.426 -0.1316 -0.0709  0.1526
 2558POPC   PO430950  22.085  12.653  15.136  0.6193  0.0799  0.0884
 2558POPC   GL130951  22.307  12.695  15.487 -0.1126 -0.0159 -0.2219
 2558POPC   GL230952  22.309  12.963  15.617  0.2000  0.1887  0.0109
 2558POPC   C1A30953  22.458  12.714  15.963 -0.0883 -0.0052  0.1784
 2558POPC   D2A30954  22.234  12.437  16.280 -0.0765  0.0567 -0.0200
 2558POPC   C3A30955  21.809  12.403  16.430 -0.1913 -0.1191 -0.1482
 2558POPC   C4A30956  21.343  12.319  16.381  0.1692  0.0847  0.0705
 2558POPC   C1B30957  22.566  13.211  15.975 -0.1139 -0.3048  0.1410
 2558POPC   C2B30958  22.792  13.068  16.378  0.2745  0.0334 -0.3108
 2558POPC   C3B30959  22.736  12.835  16.799 -0.1865  0.0193 -0.0973
 2558POPC   C4B30960  22.716  12.604  17.169 -0.2266 -0.2574 -0.0773
 2559POPC   NC330961  27.962  27.776  15.428  0.0240 -0.3478  0.2412
 2559POPC   PO430962  27.949  27.359  15.382  0.0295 -0.2138 -0.0069
 2559POPC   GL130963  28.256  27.279  15.656 -0.1432 -0.2250  0.2227
 2559POPC   GL230964  28.221  27.356  15.938  0.0427  0.0193 -0.2270
 2559POPC   C1A30965  28.623  27.088  15.803  0.1368  0.1701 -0.2198
 2559POPC   D2A30966  28.820  26.924  16.156 -0.0591  0.0755  0.0860
 2559POPC   C3A30967  28.794  27.283  16.397  0.0213 -0.0051  0.0758
 2559POPC   C4A30968  28.810  27.636  16.695  0.3431  0.0423 -0.1486
 2559POPC   C1B30969  28.316  27.451  16.399 -0.4703  0.1557 -0.0288
 2559POPC   C2B30970  28.240  27.370  16.861 -0.2405 -0.1173  0.0168
 2559POPC   C3B30971  28.388  27.107  17.187  0.1265  0.1284  0.0539
 2559POPC   C4B30972  28.572  26.692  17.164 -0.1207  0.1211 -0.1008
 2560POPC   NC330973  29.705  10.630  15.351 -0.1281 -0.2457  0.2030
 2560POPC   PO430974  29.730  11.006  15.427  0.0696 -0.1446 -0.0186
 2560POPC   GL130975  29.862  10.950  15.833 -0.1073 -0.1410 -0.1099
 2560POPC   GL230976  30.003  10.704  15.753 -0.1513 -0.1534 -0.0320
 2560POPC   C1A30977  29.595  10.998  16.219 -0.0822 -0.0169  0.0534
 2560POPC   D2A30978  29.539  11.060  16.661 -0.4601 -0.2078  0.0591
 2560POPC   C3A30979  29.482  10.786  17.014  0.0781  0.1956 -0.0670
 2560POPC   C4A30980  29.499  10.886  17.440 -0.0733 -0.2381  0.1598
 2560POPC   C1B30981  30.090  10.742  16.194 -0.1656  0.0316 -0.0966
 2560POPC   C2B30982  29.959  10.814  16.662  0.0811 -0.1135 -0.2080
 2560POPC   C3B30983  29.966  11.126  17.023 -0.1573 -0.3594  0.1671
 2560POPC   C4B30984  30.151  11.417  17.286 -0.0498 -0.2871 -0.3985
 2561POPC   NC330985  22.039  24.116  15.038 -0.3520  0.0785  0.3072
 2561POPC   PO430986  22.066  24.495  14.964  0.1083 -0.1635 -0.0375
 2561POPC   GL130987  22.237  24.566  15.355 -0.3669  0.1040 -0.1980
 2561POPC   GL230988  22.114  24.320  15.490  0.2841 -0.0179 -0.2253
 2561POPC   C1A30989  22.621  24.463  15.567  0.3476  0.0459  0.2561
 2561POPC   D2A30990  22.941  24.317  15.826  0.0437  0.0583  0.1934
 2561POPC   C3A30991  23.072  24.460  16.273  0.1344 -0.0212  0.0230
 2561POPC   C4A30992  22.917  24.786  16.562 -0.1781  0.1305  0.1649
 2561POPC   C1B30993  21.864  24.172  15.825  0.0022 -0.0835 -0.0732
 2561POPC   C2B30994  21.817  24.090  16.244 -0.1097 -0.2114 -0.0522
 2561POPC   C3B30995  21.500  24.203  16.569  0.1035 -0.1332 -0.2916
 2561POPC   C4B30996  21.187  24.023  16.885 -0.0957  0.0209  0.0697
 2562POPC   NC330997  14.805   3.466  15.093  0.2669 -0.4030 -0.0081
 2562POPC   PO430998  14.769   3.708  15.418 -0.0554 -0.3750 -0.3875
 2562POPC   GL130999  14.655   3.759  15.759  0.2109 -0.2667 -0.1091
 2562POPC   GL231000  14.386   3.683  15.746  0.1320  0.1146 -0.0065
 2562POPC   C1A31001  14.588   3.456  16.176  0.1098 -0.0854 -0.0434
 2562POPC   D2A31002  14.814   3.131  16.374 -0.0172  0.4758  0.0427
 2562POPC   C3A31003  15.059   2.962  16.721  0.2215 -0.0568 -0.0597
 2562POPC   C4A31004  15.132   3.067  17.205  0.4263  0.2926 -0.0957
 2562POPC   C1B31005  14.216   3.793  16.155 -0.0985 -0.0348  0.0059
 2562POPC   C2B31006  14.535   3.846  16.619 -0.4187 -0.0939  0.1246
 2562POPC   C3B31007  14.437   3.996  16.996 -0.5729  0.1208  0.1304
 2562POPC   C4B31008  14.225   4.198  17.373  0.0841 -0.0628  0.2525
 2563POPC   NC331009  13.731  20.905  15.063 -0.0615  0.1446 -0.1751
 2563POPC   PO431010  13.966  20.789  15.420 -0.0950 -0.2000  0.0321
 2563POPC   GL131011  13.925  20.753  15.751  0.1416 -0.2843 -0.3961
 2563POPC   GL231012  14.130  20.579  15.936  0.1913 -0.0280 -0.1464
 2563POPC   C1A31013  13.838  21.035  16.107 -0.1108  0.1749  0.0899
 2563POPC   D2A31014  14.087  21.195  16.435  0.1533  0.1564 -0.0957
 2563POPC   C3A31015  14.132  21.211  16.867 -0.0922  0.1717  0.0341
 2563POPC   C4A31016  14.536  21.195  17.073 -0.3928 -0.1688  0.0021
 2563POPC   C1B31017  14.033  20.675  16.388 -0.0768  0.2491  0.0947
 2563POPC   C2B31018  13.811  20.872  16.758  0.0650  0.1237 -0.1564
 2563POPC   C3B31019  13.625  20.914  17.150  0.0390 -0.1516  0.0489
 2563POPC   C4B31020  13.702  21.161  17.576  0.1816 -0.1299  0.1973
 2564POPC   NC331021  17.334  28.310  15.589 -0.0175  0.0088  0.0808
 2564POPC   PO431022  17.145  28.552  15.276 -0.1098 -0.0961 -0.3210
 2564POPC   GL131023  16.838  28.633  15.560  0.2972  0.1553 -0.3857
 2564POPC   GL231024  16.843  28.346  15.728 -0.0251  0.2063  0.6197
 2564POPC   C1A31025  16.827  28.831  15.986  0.1163 -0.0817 -0.1811
 2564POPC   D2A31026  17.003  28.839  16.451  0.2452 -0.0128 -0.0684
 2564POPC   C3A31027  16.633  28.964  16.714 -0.0533 -0.1679 -0.1726
 2564POPC   C4A31028  16.309  29.192  16.949  0.0851  0.0354 -0.1361
 2564POPC   C1B31029  17.121  28.084  15.995  0.0217 -0.2509  0.0260
 2564POPC   C2B31030  17.229  27.906  16.448  0.1828 -0.2223  0.3602
 2564POPC   C3B31031  17.200  27.657  16.814  0.2543  0.0872 -0.2853
 2564POPC   C4B31032  17.273  27.706  17.299  0.2430  0.1148  0.1244
 2565POPC   NC331033   1.846   5.135  15.610  0.0337  0.2739  0.1574
 2565POPC   PO431034   1.983   5.416  15.401 -0.0513  0.1507  0.1809
 2565POPC   GL131035   2.179   5.426  15.869 -0.0678  0.1517  0.2177
 2565POPC   GL231036   2.463   5.315  15.826  0.1698 -0.2039 -0.2920
 2565POPC   C1A31037   2.407   5.629  16.161 -0.4268  0.2254  0.0861
 2565POPC   D2A31038   2.649   5.421  16.465  0.2690  0.1237 -0.1425
 2565POPC   C3A31039   2.686   5.418  16.962  0.2445  0.2237 -0.2937
 2565POPC   C4A31040   2.341   5.304  17.284  0.0932  0.0811  0.0530
 2565POPC   C1B31041   2.331   5.075  16.225 -0.2043 -0.1097  0.1494
 2565POPC   C2B31042   2.170   5.091  16.672 -0.0434 -0.0457 -0.0490
 2565POPC   C3B31043   2.238   4.836  17.034  0.1908 -0.0255 -0.0833
 2565POPC   C4B31044   2.319   4.795  17.485 -0.2439 -0.1670 -0.0940
 2566POPC   NC331045  31.212  10.648  15.691 -0.1228  0.1308  0.0762
 2566POPC   PO431046  31.415  10.550  15.377 -0.1787  0.0815  0.1971
 2566POPC   GL131047  31.744  10.367  15.688 -0.2375 -0.4832 -0.1614
 2566POPC   GL231048  31.636  10.540  15.894  0.1025  0.0759  0.1446
 2566POPC   C1A31049  32.054  10.337  16.056 -0.0065  0.2144  0.2552
 2566POPC   D2A31050  32.067   9.903  16.270  0.3100  0.1621 -0.2888
 2566POPC   C3A31051  32.116   9.764  16.753  0.0405  0.1834  0.1623
 2566POPC   C4A31052  32.097   9.804  17.233 -0.0980  0.3784  0.2792
 2566POPC   C1B31053  31.668  10.243  16.246 -0.0585 -0.4687 -0.1273
 2566POPC   C2B31054  31.661  10.107  16.659 -0.2314  0.1944 -0.2163
 2566POPC   C3B31055  31.598   9.961  17.089 -0.3302 -0.3536 -0.2942
 2566POPC   C4B31056  31.579   9.792  17.539  0.4286  0.0782 -0.2239
 2567POPC   NC331057   6.218  27.126  15.188  0.1445 -0.2646  0.2830
 2567POPC   PO431058   6.066  27.453  15.123  0.0529 -0.2551  0.3014
 2567POPC   GL131059   6.001  27.426  15.493  0.0850 -0.1228  0.1785
 2567POPC   GL231060   5.822  27.189  15.497  0.0770 -0.2528  0.2034
 2567POPC   C1A31061   6.107  27.608  15.896  0.0606 -0.1459 -0.1151
 2567POPC   D2A31062   5.994  27.503  16.365  0.0813 -0.0081  0.1213
 2567POPC   C3A31063   6.234  27.439  16.745  0.2544 -0.1750  0.0262
 2567POPC   C4A31064   6.425  27.556  17.155  0.1000  0.1384 -0.1061
 2567POPC   C1B31065   5.878  27.130  15.954  0.3986 -0.0063  0.0080
 2567POPC   C2B31066   5.884  26.998  16.385  0.2756  0.0539 -0.1762
 2567POPC   C3B31067   5.977  27.015  16.849 -0.2584 -0.1276  0.0732
 2567POPC   C4B31068   6.219  26.996  17.221 -0.1036  0.0397  0.2734
 2568POPC   NC331069  26.758  26.105  15.628  0.1086  0.1136  0.0522
 2568POPC   PO431070  26.859  26.488  15.755 -0.4091  0.1231  0.0187
 2568POPC   GL131071  26.856  26.690  15.986 -0.1195  0.0833  0.1807
 2568POPC   GL231072  27.059  26.669  16.259  0.3170  0.0683  0.2915
 2568POPC   C1A31073  26.596  26.749  16.386  0.1577 -0.0082  0.0690
 2568POPC   D2A31074  26.363  26.728  16.831 -0.0656  0.0151  0.4616
 2568POPC   C3A31075  26.394  27.158  17.014  0.0149  0.2640  0.0356
 2568POPC   C4A31076  26.432  27.374  17.393 -0.0655  0.4179 -0.0605
 2568POPC   C1B31077  27.169  26.663  16.690  0.2312 -0.2647  0.3983
 2568POPC   C2B31078  27.410  26.694  17.079  0.2610 -0.0750  0.0049
 2568POPC   C3B31079  27.196  26.555  17.421  0.0481  0.0285 -0.2137
 2568POPC   C4B31080  26.978  26.553  17.780  0.4110  0.2428  0.2726
 2569POPC   NC331081  10.962   3.796  15.099 -0.2066 -0.2114 -0.0266
 2569POPC   PO431082  11.338   3.871  15.044  0.0928  0.0773 -0.0204
 2569POPC   GL131083  11.272   3.929  15.420  0.1126  0.0376 -0.0206
 2569POPC   GL231084  11.441   4.092  15.477  0.0598  0.2208  0.2018
 2569POPC   C1A31085  11.144   3.920  15.848  0.1125  0.0068  0.0417
 2569POPC   D2A31086  11.218   4.008  16.325  0.1885 -0.2003  0.0615
 2569POPC   C3A31087  11.380   4.435  16.506  0.0160 -0.0026  0.0535
 2569POPC   C4A31088  11.321   4.620  16.939  0.2519  0.0631 -0.0111
 2569POPC   C1B31089  11.673   3.813  15.793 -0.0579 -0.0610 -0.0906
 2569POPC   C2B31090  11.439   3.566  16.146 -0.0724 -0.0692 -0.2827
 2569POPC   C3B31091  11.087   3.421  16.475  0.0854 -0.6409  0.1559
 2569POPC   C4B31092  10.631   3.345  16.538 -0.0020  0.1390  0.2177
 2570POPC   NC331093  12.870   8.529  15.266  0.0994  0.0984  0.1679
 2570POPC   PO431094  12.748   8.143  15.260  0.0136  0.0541  0.0577
 2570POPC   GL131095  12.780   7.961  15.581  0.2531  0.0812  0.0924
 2570POPC   GL231096  12.814   8.165  15.778  0.0919 -0.0388 -0.2556
 2570POPC   C1A31097  12.773   7.654  15.948  0.0524 -0.0549  0.0160
 2570POPC   D2A31098  12.843   7.573  16.421  0.1659 -0.0419  0.1709
 2570POPC   C3A31099  13.173   7.784  16.741 -0.0433  0.0027  0.2590
 2570POPC   C4A31100  13.575   8.012  16.876  0.0880  0.2191  0.1019
 2570POPC   C1B31101  12.699   8.405  16.149 -0.1738  0.1191 -0.0361
 2570POPC   C2B31102  12.763   8.632  16.516  0.4249  0.4419 -0.1139
 2570POPC   C3B31103  12.768   9.077  16.680 -0.2248 -0.1933  0.0972
 2570POPC   C4B31104  12.657   9.371  16.984 -0.1216 -0.2830 -0.3459
 2571POPC   NC331105  18.651   2.192  15.647  0.2231 -0.1687  0.2512
 2571POPC   PO431106  18.625   2.496  15.423 -0.0451 -0.3008 -0.2810
 2571POPC   GL131107  18.693   2.698  15.698 -0.1728  0.2658  0.0981
 2571POPC   GL231108  18.487   2.790  15.860 -0.0435 -0.1451  0.2033
 2571POPC   C1A31109  18.900   2.446  16.034 -0.2669 -0.1057 -0.1965
 2571POPC   D2A31110  19.114   2.186  16.397 -0.2825 -0.0008  0.2061
 2571POPC   C3A31111  18.955   2.082  16.802 -0.2529 -0.4101  0.0682
 2571POPC   C4A31112  18.755   2.338  17.140 -0.4664  0.1993 -0.3359
 2571POPC   C1B31113  18.259   2.488  16.133  0.1946  0.0032  0.1066
 2571POPC   C2B31114  17.960   2.503  16.527  0.2275  0.0538 -0.2597
 2571POPC   C3B31115  17.600   2.517  16.856  0.2001 -0.1064 -0.2410
 2571POPC   C4B31116  17.341   2.156  17.086 -0.1300 -0.0844  0.2064
 2572POPC   NC331117  21.728  16.993  14.684 -0.3052 -0.0643 -0.0882
 2572POPC   PO431118  22.042  17.057  14.896  0.1271 -0.2944 -0.0457
 2572POPC   GL131119  21.734  16.940  15.217 -0.1500 -0.1460 -0.4459
 2572POPC   GL231120  21.867  16.991  15.492 -0.0635 -0.3155 -0.2411
 2572POPC   C1A31121  21.387  16.697  15.394 -0.2520  0.3473  0.1804
 2572POPC   D2A31122  21.145  16.240  15.383  0.0836  0.0882 -0.0176
 2572POPC   C3A31123  21.125  16.041  15.777  0.2266  0.3244 -0.0117
 2572POPC   C4A31124  21.209  15.977  16.194  0.0507 -0.5501 -0.2076
 2572POPC   C1B31125  21.761  16.653  15.762  0.1246 -0.1202  0.1413
 2572POPC   C2B31126  21.625  16.765  16.225  0.0456  0.0019  0.0136
 2572POPC   C3B31127  21.575  16.561  16.630 -0.1194 -0.2008  0.2699
 2572POPC   C4B31128  21.475  16.658  17.080 -0.2704 -0.3392  0.2538
 2573POPC   NC331129  28.554  16.110  14.960  0.4739  0.0356  0.2281
 2573POPC   PO431130  28.196  16.080  15.105  0.0912 -0.1959 -0.0414
 2573POPC   GL131131  28.050  16.479  15.307  0.0081 -0.3767 -0.1195
 2573POPC   GL231132  28.099  16.284  15.572 -0.0622 -0.4871  0.0739
 2573POPC   C1A31133  28.181  16.870  15.432 -0.0158  0.0197  0.0859
 2573POPC   D2A31134  28.369  17.282  15.476  0.2565 -0.2237  0.0200
 2573POPC   C3A31135  28.128  17.404  15.862 -0.0439  0.1500 -0.0040
 2573POPC   C4A31136  28.132  17.494  16.300 -0.1626 -0.2158 -0.1153
 2573POPC   C1B31137  28.299  16.344  15.998  0.1056  0.2750 -0.3111
 2573POPC   C2B31138  28.537  16.370  16.432 -0.2590 -0.0243  0.1190
 2573POPC   C3B31139  28.674  16.270  16.881  0.0145 -0.4432  0.0303
 2573POPC   C4B31140  28.971  16.084  17.161 -0.0942  0.0314  0.0208
 2574POPC   NC331141  11.658  10.524  15.340  0.0380 -0.2410  0.0491
 2574POPC   PO431142  11.912  10.244  15.207  0.0115  0.1098  0.0393
 2574POPC   GL131143  11.866  10.120  15.546  0.2845 -0.1000  0.0742
 2574POPC   GL231144  12.109  10.153  15.722 -0.1992 -0.1660  0.3035
 2574POPC   C1A31145  11.581  10.307  15.891  0.0927 -0.3280  0.1146
 2574POPC   D2A31146  11.330  10.207  16.306  0.0169 -0.0925  0.4347
 2574POPC   C3A31147  11.286  10.117  16.764  0.0211 -0.0704  0.0675
 2574POPC   C4A31148  11.248   9.950  17.239 -0.1499 -0.3015 -0.0585
 2574POPC   C1B31149  11.940  10.077  16.149  0.0619  0.1907 -0.4672
 2574POPC   C2B31150  11.706   9.935  16.536  0.0554 -0.1152  0.1577
 2574POPC   C3B31151  11.701  10.075  16.975  0.0807  0.0507  0.1478
 2574POPC   C4B31152  11.652  10.195  17.449  0.0121  0.0473 -0.2869
 2575POPC   NC331153   4.765   2.776  15.052 -0.0432 -0.0984 -0.2630
 2575POPC   PO431154   4.590   2.470  15.195  0.1532 -0.2905 -0.2335
 2575POPC   GL131155   4.486   2.396  15.576  0.1180 -0.3326  0.4898
 2575POPC   GL231156   4.455   2.722  15.626 -0.2524  0.0677 -0.3257
 2575POPC   C1A31157   4.674   2.429  15.965 -0.2113  0.0683  0.0586
 2575POPC   D2A31158   4.871   2.604  16.352  0.3178 -0.5172 -0.1379
 2575POPC   C3A31159   4.747   2.607  16.758 -0.2145 -0.3345 -0.0684
 2575POPC   C4A31160   4.483   2.814  17.097 -0.2979 -0.1221  0.2226
 2575POPC   C1B31161   4.673   2.922  16.010  0.2059 -0.2076 -0.1876
 2575POPC   C2B31162   4.542   3.006  16.491 -0.1361  0.2435 -0.1509
 2575POPC   C3B31163   4.245   3.258  16.722  0.3039 -0.1176  0.3641
 2575POPC   C4B31164   4.086   3.382  17.097 -0.1812  0.0612  0.0782
 2576POPC   NC331165  13.031  11.267  15.251 -0.0043  0.1658 -0.0127
 2576POPC   PO431166  12.839  11.181  15.567  0.0424 -0.1567  0.2204
 2576POPC   GL131167  12.851  11.256  15.918 -0.3497  0.1097 -0.2637
 2576POPC   GL231168  12.823  11.585  15.984 -0.1132  0.1990 -0.2316
 2576POPC   C1A31169  13.065  11.094  16.269  0.0200  0.0798  0.1798
 2576POPC   D2A31170  13.004  11.100  16.698 -0.1231 -0.3548 -0.0204
 2576POPC   C3A31171  13.313  11.029  17.042 -0.2071  0.0653  0.3285
 2576POPC   C4A31172  13.491  10.941  17.462  0.0107 -0.1314  0.2357
 2576POPC   C1B31173  12.842  11.919  16.316 -0.0638 -0.0478  0.1348
 2576POPC   C2B31174  12.936  12.039  16.802 -0.1441 -0.2976 -0.3374
 2576POPC   C3B31175  12.978  11.992  17.307  0.1706  0.1669  0.2976
 2576POPC   C4B31176  13.143  11.782  17.644  0.1079  0.2636 -0.1343
 2577POPC   NC331177  22.364  12.111  15.280  0.0108 -0.2721 -0.0671
 2577POPC   PO431178  22.362  11.752  15.375  0.0584  0.1078 -0.2443
 2577POPC   GL131179  22.482  11.851  15.702 -0.1637 -0.0995  0.0514
 2577POPC   GL231180  22.535  11.550  15.844 -0.2247 -0.1541  0.0171
 2577POPC   C1A31181  22.297  11.912  16.115  0.1470 -0.1190 -0.0519
 2577POPC   D2A31182  22.239  11.959  16.532 -0.0915  0.0519 -0.1938
 2577POPC   C3A31183  22.150  12.308  16.803  0.0225 -0.0072 -0.2280
 2577POPC   C4A31184  21.715  12.379  16.993  0.0432  0.1483 -0.1362
 2577POPC   C1B31185  22.649  11.644  16.289 -0.0586  0.1357  0.1114
 2577POPC   C2B31186  22.713  11.784  16.731  0.0733  0.0516  0.1969
 2577POPC   C3B31187  22.510  11.542  17.050 -0.0519 -0.0262 -0.2158
 2577POPC   C4B31188  22.116  11.405  17.133  0.3807 -0.0104 -0.1488
 2578POPC   NC331189  30.945  18.467  15.869 -0.0360 -0.0396  0.2131
 2578POPC   PO431190  30.739  18.748  15.640 -0.2320 -0.0782 -0.1365
 2578POPC   GL131191  30.500  18.539  15.883 -0.0537 -0.1864  0.3711
 2578POPC   GL231192  30.199  18.627  15.868  0.2339  0.0484  0.2551
 2578POPC   C1A31193  30.654  18.504  16.281  0.1073 -0.0031  0.0165
 2578POPC   D2A31194  30.852  18.572  16.659  0.1261  0.0109  0.0212
 2578POPC   C3A31195  30.885  18.315  17.081 -0.1882  0.0672  0.0291
 2578POPC   C4A31196  30.869  18.338  17.538 -0.2145  0.1328 -0.1355
 2578POPC   C1B31197  30.069  18.574  16.297 -0.0671  0.1560  0.0236
 2578POPC   C2B31198  30.315  18.657  16.686 -0.1636  0.1358 -0.1035
 2578POPC   C3B31199  30.527  18.734  17.082 -0.1008  0.2632  0.2522
 2578POPC   C4B31200  30.953  18.811  17.225 -0.1540 -0.0245 -0.0539
 2579POPC   NC331201  19.002  27.971  15.004 -0.0826  0.1374 -0.0283
 2579POPC   PO431202  19.207  28.304  15.022 -0.0483 -0.1664  0.2151
 2579POPC   GL131203  19.273  28.272  15.423 -0.1688  0.1389  0.4150
 2579POPC   GL231204  19.414  28.534  15.462  0.1934 -0.2728 -0.0252
 2579POPC   C1A31205  19.395  28.249  15.843  0.0791 -0.0817 -0.0760
 2579POPC   D2A31206  19.663  28.110  16.225  0.2878 -0.3205  0.0547
 2579POPC   C3A31207  19.932  28.098  16.606  0.0953  0.1074 -0.0285
 2579POPC   C4A31208  19.882  27.708  16.900 -0.3698  0.1699 -0.0061
 2579POPC   C1B31209  19.396  28.876  15.819 -0.1978 -0.1508 -0.1990
 2579POPC   C2B31210  19.219  29.178  16.192 -0.0740  0.2900 -0.2071
 2579POPC   C3B31211  19.243  28.965  16.592  0.2077  0.1978  0.1104
 2579POPC   C4B31212  19.463  28.830  16.967  0.1738  0.0374 -0.2229
 2580POPC   NC331213  11.369   1.973  15.004  0.3347 -0.2529 -0.4078
 2580POPC   PO431214  11.284   1.603  15.068  0.1448  0.1788 -0.3004
 2580POPC   GL131215  11.379   1.722  15.527 -0.1529 -0.0277  0.0659
 2580POPC   GL231216  11.586   1.507  15.537 -0.3819  0.0152 -0.2958
 2580POPC   C1A31217  11.272   1.736  15.973  0.0255  0.1242 -0.1354
 2580POPC   D2A31218  11.438   1.702  16.417  0.0656  0.1382 -0.2376
 2580POPC   C3A31219  11.748   1.390  16.570 -0.0234  0.1255 -0.0817
 2580POPC   C4A31220  12.089   1.254  16.794  0.0292 -0.0289 -0.0879
 2580POPC   C1B31221  11.608   1.324  15.936  0.0937  0.0566 -0.1824
 2580POPC   C2B31222  11.703   1.059  16.261 -0.1410  0.1605  0.1054
 2580POPC   C3B31223  11.627   0.961  16.769 -0.0500  0.1623  0.1387
 2580POPC   C4B31224  11.437   0.836  17.172 -0.1624 -0.0452  0.0320
 2581POPC   NC331225  24.276  16.311  15.431 -0.0013 -0.1435  0.2801
 2581POPC   PO431226  24.022  16.621  15.316  0.0235  0.0168  0.3994
 2581POPC   GL131227  24.081  16.786  15.602 -0.0360  0.0310  0.3804
 2581POPC   GL231228  24.233  16.614  15.836 -0.0203 -0.0075 -0.0968
 2581POPC   C1A31229  23.781  16.811  15.998 -0.0552 -0.1714  0.0177
 2581POPC   D2A31230  23.833  16.635  16.432  0.0736 -0.0740 -0.0036
 2581POPC   C3A31231  23.794  16.812  16.854  0.2089 -0.0185 -0.2263
 2581POPC   C4A31232  23.445  16.940  17.136 -0.1194  0.1798  0.1414
 2581POPC   C1B31233  24.324  16.636  16.263  0.0376  0.2138  0.0260
 2581POPC   C2B31234  24.714  16.567  16.530 -0.0649 -0.0424  0.0994
 2581POPC   C3B31235  24.699  16.394  16.922 -0.0087  0.1424 -0.1804
 2581POPC   C4B31236  24.516  16.302  17.365  0.2736  0.0478  0.0537
 2582POPC   NC331237   2.410  27.795  15.064  0.2238  0.1177  0.2280
 2582POPC   PO431238   2.442  27.916  15.457  0.1697 -0.0634 -0.2713
 2582POPC   GL131239   2.276  27.966  15.813 -0.1195 -0.1677  0.0467
 2582POPC   GL231240   2.081  28.225  15.754 -0.1806  0.0006  0.0842
 2582POPC   C1A31241   2.519  28.148  16.200  0.3261  0.1280  0.3104
 2582POPC   D2A31242   2.788  28.270  16.534  0.2424 -0.1381  0.0611
 2582POPC   C3A31243   2.950  28.440  16.942 -0.0712  0.3168 -0.1304
 2582POPC   C4A31244   3.105  28.830  17.130  0.1851 -0.0738 -0.2468
 2582POPC   C1B31245   1.913  28.375  16.160 -0.1846  0.2990  0.2240
 2582POPC   C2B31246   1.819  28.225  16.595 -0.2620  0.0804 -0.0596
 2582POPC   C3B31247   1.845  27.888  16.897  0.0595  0.2096 -0.0574
 2582POPC   C4B31248   2.061  27.669  17.188 -0.1696  0.0838  0.0796
 2583POPC   NC331249  29.217  20.909  14.649  0.3051 -0.1012  0.3149
 2583POPC   PO431250  29.506  20.845  14.935  0.0220 -0.1583 -0.0442
 2583POPC   GL131251  29.491  20.888  15.380 -0.3031 -0.2446  0.1175
 2583POPC   GL231252  29.740  20.996  15.372 -0.4774 -0.0633  0.3343
 2583POPC   C1A31253  29.252  20.814  15.806 -0.3103  0.1993  0.0620
 2583POPC   D2A31254  29.100  20.817  16.241  0.1329 -0.0518 -0.3516
 2583POPC   C3A31255  28.695  20.634  16.370  0.1300  0.2414 -0.0873
 2583POPC   C4A31256  28.588  20.437  16.741 -0.1213 -0.1099 -0.3021
 2583POPC   C1B31257  29.689  21.165  15.812  0.1135  0.2779 -0.0851
 2583POPC   C2B31258  29.555  21.509  16.108  0.0595  0.0870 -0.2494
 2583POPC   C3B31259  29.638  21.508  16.588  0.0498  0.1301 -0.0429
 2583POPC   C4B31260  29.707  21.326  17.010 -0.0070 -0.0527  0.0676
 2584POPC   NC331261  31.121   1.341  15.511  0.1729  0.1703  0.1589
 2584POPC   PO431262  31.397   1.062  15.618  0.2369 -0.2385 -0.1246
 2584POPC   GL131263  31.331   1.013  15.971  0.2328 -0.1417  0.0159
 2584POPC   GL231264  31.143   1.248  16.014  0.1593 -0.4963 -0.1286
 2584POPC   C1A31265  31.737   1.060  16.198 -0.0508 -0.0445 -0.1385
 2584POPC   D2A31266  31.939   1.174  16.588  0.0334  0.1807  0.0545
 2584POPC   C3A31267  31.845   1.309  17.014 -0.1860 -0.1688 -0.0007
 2584POPC   C4A31268  31.556   1.627  17.304 -0.0657  0.0885  0.0419
 2584POPC   C1B31269  31.298   1.136  16.420  0.0889  0.1023 -0.0249
 2584POPC   C2B31270  31.577   0.895  16.743  0.0574 -0.1561 -0.1334
 2584POPC   C3B31271  31.848   0.800  17.124 -0.0382  0.0133  0.1534
 2584POPC   C4B31272  32.105   0.503  17.373  0.0156  0.0750 -0.0238
 2585POPC   NC331273  28.534  29.276  15.055 -0.0892  0.0811  0.0540
 2585POPC   PO431274  28.175  29.181  15.063  0.0297 -0.3589  0.1271
 2585POPC   GL131275  28.331  28.940  15.362  0.1393 -0.2808  0.0624
 2585POPC   GL231276  28.128  28.856  15.554 -0.0955 -0.3925 -0.0545
 2585POPC   C1A31277  28.547  29.192  15.765 -0.0625  0.2586 -0.0201
 2585POPC   D2A31278  28.719  29.024  16.184 -0.1693 -0.3822  0.5024
 2585POPC   C3A31279  28.735  28.941  16.654 -0.3822  0.2363 -0.0839
 2585POPC   C4A31280  28.657  29.209  16.982  0.1759  0.0316 -0.1130
 2585POPC   C1B31281  28.264  28.835  16.003 -0.1273 -0.2029 -0.1738
 2585POPC   C2B31282  28.268  29.002  16.445 -0.0301 -0.1339  0.0387
 2585POPC   C3B31283  28.278  28.898  16.877 -0.2228  0.2140 -0.2292
 2585POPC   C4B31284  27.959  28.882  17.202  0.2914  0.0596 -0.1578
 2586POPC   NC331285  19.124   7.648  14.667 -0.0200  0.0614 -0.2195
 2586POPC   PO431286  18.782   7.575  14.861  0.2219 -0.0348 -0.2141
 2586POPC   GL131287  18.928   7.554  15.289 -0.0793 -0.1344  0.3145
 2586POPC   GL231288  18.807   7.764  15.431 -0.1420  0.0137  0.0175
 2586POPC   C1A31289  18.833   7.271  15.648  0.0347 -0.0471  0.1011
 2586POPC   D2A31290  18.731   7.392  16.087  0.1208 -0.1333 -0.1132
 2586POPC   C3A31291  18.842   7.391  16.504  0.3695 -0.1352  0.0014
 2586POPC   C4A31292  18.826   7.319  16.988 -0.0775 -0.2805 -0.0254
 2586POPC   C1B31293  18.829   7.844  15.893  0.3669  0.2104 -0.1114
 2586POPC   C2B31294  18.871   7.861  16.368  0.0290 -0.2423  0.0527
 2586POPC   C3B31295  18.841   7.806  16.810  0.0812 -0.2427  0.1689
 2586POPC   C4B31296  18.756   7.808  17.264  0.1172  0.3633 -0.0889
 2587POPC   NC331297  30.994  18.285  15.381 -0.2174  0.2734  0.3386
 2587POPC   PO431298  31.299  18.037  15.424 -0.0819 -0.1682 -0.3172
 2587POPC   GL131299  31.265  17.981  15.832 -0.1640 -0.2053  0.2194
 2587POPC   GL231300  30.978  17.896  15.879 -0.1962  0.4991  0.3061
 2587POPC   C1A31301  31.200  18.088  16.262 -0.1909  0.0570  0.1562
 2587POPC   D2A31302  31.096  18.136  16.696  0.1271  0.0428  0.2360
 2587POPC   C3A31303  30.951  17.857  16.996  0.2966  0.2189  0.1149
 2587POPC   C4A31304  30.592  17.757  17.281  0.2548 -0.1497 -0.0556
 2587POPC   C1B31305  30.672  18.024  16.209 -0.3336 -0.0649  0.0428
 2587POPC   C2B31306  30.648  18.100  16.626  0.1528  0.0119 -0.0872
 2587POPC   C3B31307  30.376  18.104  17.010  0.1732  0.0289 -0.1041
 2587POPC   C4B31308  30.383  18.369  17.417  0.2129 -0.2051 -0.1903
 2588POPC   NC331309   2.645  21.433  15.528 -0.0143  0.1400  0.0149
 2588POPC   PO431310   2.609  21.610  15.178  0.2722 -0.1737 -0.0167
 2588POPC   GL131311   2.423  21.878  15.483 -0.1279 -0.0730  0.3826
 2588POPC   GL231312   2.614  22.067  15.488  0.1545  0.1560 -0.0301
 2588POPC   C1A31313   2.444  21.848  15.924 -0.4201 -0.1343 -0.2334
 2588POPC   D2A31314   2.369  21.710  16.376  0.3425 -0.1307  0.3038
 2588POPC   C3A31315   2.123  21.646  16.719  0.1411  0.1544 -0.3074
 2588POPC   C4A31316   1.915  21.676  17.084  0.0684  0.2326 -0.0049
 2588POPC   C1B31317   2.729  22.340  15.873 -0.0624 -0.0096 -0.1646
 2588POPC   C2B31318   2.772  22.256  16.337  0.0129 -0.2114 -0.1221
 2588POPC   C3B31319   2.645  22.161  16.773 -0.5318 -0.0546  0.3826
 2588POPC   C4B31320   2.377  21.931  17.113 -0.1823  0.0907 -0.2432
 2589POPC   NC331321  21.285  28.377  15.415 -0.0180 -0.0712  0.0587
 2589POPC   PO431322  21.654  28.295  15.438 -0.3412  0.1032 -0.1043
 2589POPC   GL131323  21.667  28.271  15.742 -0.0200 -0.0072  0.1047
 2589POPC   GL231324  21.653  28.470  15.916  0.0701  0.1073 -0.0043
 2589POPC   C1A31325  21.634  27.898  16.035  0.2273 -0.0288 -0.2198
 2589POPC   D2A31326  21.658  27.534  16.334  0.3519 -0.0352  0.0299
 2589POPC   C3A31327  21.826  27.575  16.781  0.0914 -0.0336  0.1416
 2589POPC   C4A31328  22.070  27.632  17.155  0.0244  0.0979 -0.2458
 2589POPC   C1B31329  21.552  28.304  16.349 -0.0160 -0.1833 -0.0486
 2589POPC   C2B31330  21.524  27.957  16.674  0.2654  0.1189 -0.1425
 2589POPC   C3B31331  21.352  27.532  16.782 -0.2802 -0.3505  0.0948
 2589POPC   C4B31332  21.037  27.282  16.979  0.1013 -0.1283  0.1475
 2590POPC   NC331333  22.559   3.201  14.999  0.0213 -0.0339  0.2035
 2590POPC   PO431334  22.910   3.319  15.130 -0.1540  0.0772 -0.1836
 2590POPC   GL131335  22.809   3.127  15.454 -0.2139 -0.0771 -0.1707
 2590POPC   GL231336  23.045   3.099  15.565  0.1020  0.0298 -0.0730
 2590POPC   C1A31337  22.785   2.782  15.817 -0.0861 -0.2806  0.0012
 2590POPC   D2A31338  22.579   2.495  16.098 -0.0674  0.0199 -0.0774
 2590POPC   C3A31339  22.320   2.741  16.417  0.2531 -0.2206  0.0577
 2590POPC   C4A31340  22.112   2.910  16.758  0.0996  0.2464  0.2869
 2590POPC   C1B31341  23.135   3.139  16.031 -0.0702 -0.1335  0.0229
 2590POPC   C2B31342  23.167   3.164  16.456  0.4313 -0.1263 -0.1184
 2590POPC   C3B31343  23.001   3.372  16.843  0.2521  0.0642  0.1295
 2590POPC   C4B31344  23.041   3.790  17.047  0.2072  0.1709 -0.1286
 2591POPC   NC331345   2.024   7.745  15.058  0.0742  0.1466 -0.4223
 2591POPC   PO431346   2.300   7.483  14.940 -0.0893 -0.2498  0.0843
 2591POPC   GL131347   2.367   7.392  15.392  0.0869 -0.0221  0.2058
 2591POPC   GL231348   2.385   7.654  15.521  0.1880  0.0698 -0.3105
 2591POPC   C1A31349   2.096   7.271  15.744 -0.0646  0.0092  0.3960
 2591POPC   D2A31350   2.001   7.052  16.151  0.0817  0.0070  0.0663
 2591POPC   C3A31351   1.598   7.122  16.411 -0.1440 -0.1374 -0.0520
 2591POPC   C4A31352   1.306   7.124  16.772 -0.1607  0.1001  0.0654
 2591POPC   C1B31353   2.545   7.849  15.892 -0.0224  0.0787  0.1832
 2591POPC   C2B31354   2.638   8.111  16.250  0.1055 -0.1394 -0.0085
 2591POPC   C3B31355   2.465   8.267  16.666  0.0371 -0.3602  0.2366
 2591POPC   C4B31356   2.449   8.657  16.952 -0.1397  0.1931 -0.0196
 2592POPC   NC331357  30.363  19.755  15.221  0.2306 -0.2969  0.0378
 2592POPC   PO431358  30.587  19.915  15.550  0.6129 -0.1849 -0.0675
 2592POPC   GL131359  30.678  20.179  15.851 -0.0199 -0.0051 -0.0187
 2592POPC   GL231360  30.755  20.011  16.029 -0.1208  0.0297 -0.2514
 2592POPC   C1A31361  30.601  20.444  16.185 -0.0039 -0.1423 -0.2224
 2592POPC   D2A31362  30.542  20.490  16.646  0.1650  0.4912 -0.2264
 2592POPC   C3A31363  30.338  20.851  16.860  0.3119  0.0028 -0.0081
 2592POPC   C4A31364  30.128  21.124  17.203 -0.0973  0.2770 -0.0630
 2592POPC   C1B31365  30.914  20.082  16.484 -0.2856 -0.1386  0.1964
 2592POPC   C2B31366  31.103  20.360  16.745 -0.0404 -0.0448 -0.1396
 2592POPC   C3B31367  31.437  20.319  16.990 -0.3657 -0.2246 -0.3484
 2592POPC   C4B31368  31.823  20.290  17.291  0.0046  0.1185 -0.3103
 2593POPC   NC331369  30.408  15.606  14.763 -0.1270 -0.0646  0.1312
 2593POPC   PO431370  30.109  15.812  14.874  0.1698  0.0877 -0.2292
 2593POPC   GL131371  30.185  15.683  15.260  0.0506  0.3137  0.1948
 2593POPC   GL231372  30.041  15.571  15.366  0.2660 -0.2975  0.0482
 2593POPC   C1A31373  30.396  15.931  15.622 -0.1216  0.0384  0.0830
 2593POPC   D2A31374  30.633  16.195  15.828 -0.3393 -0.2494 -0.1659
 2593POPC   C3A31375  30.558  16.137  16.287  0.0662  0.4638  0.3521
 2593POPC   C4A31376  30.625  16.215  16.695  0.0355  0.2467  0.1149
 2593POPC   C1B31377  30.248  15.403  15.732 -0.0227 -0.2088  0.1155
 2593POPC   C2B31378  30.248  15.213  16.152  0.2422 -0.1737 -0.1596
 2593POPC   C3B31379  29.953  15.079  16.508 -0.1903 -0.0992 -0.2366
 2593POPC   C4B31380  29.692  15.350  16.840 -0.1963  0.3213  0.0585
 2594POPC   NC331381  31.000   8.790  15.105  0.2480  0.0947  0.1330
 2594POPC   PO431382  30.668   8.978  15.145 -0.0277  0.0196  0.0357
 2594POPC   GL131383  30.877   9.040  15.488 -0.2224  0.0107 -0.0423
 2594POPC   GL231384  30.665   8.811  15.631 -0.0488  0.1472  0.2563
 2594POPC   C1A31385  30.836   9.163  15.947  0.0665 -0.0453 -0.1317
 2594POPC   D2A31386  30.723   9.185  16.408 -0.0075  0.0780  0.0129
 2594POPC   C3A31387  30.551   9.396  16.834 -0.3280 -0.0271  0.2886
 2594POPC   C4A31388  30.479   9.663  17.104 -0.1025 -0.1332  0.0944
 2594POPC   C1B31389  30.593   8.750  16.086  0.1800 -0.0356 -0.0176
 2594POPC   C2B31390  30.566   8.755  16.532  0.1289 -0.1222 -0.1651
 2594POPC   C3B31391  30.592   8.837  16.984 -0.0889 -0.1613  0.0137
 2594POPC   C4B31392  30.796   8.570  17.316  0.1588 -0.2089  0.0256
 2595POPC   NC331393   5.291  15.206  15.466  0.1952 -0.1396  0.0239
 2595POPC   PO431394   5.363  14.885  15.218  0.3367  0.1998  0.0289
 2595POPC   GL131395   5.316  14.463  15.549  0.1046 -0.2414  0.3054
 2595POPC   GL231396   5.065  14.619  15.669  0.2086 -0.1139  0.1557
 2595POPC   C1A31397   5.424  14.383  16.030 -0.3802  0.1001 -0.0040
 2595POPC   D2A31398   5.453  14.323  16.481 -0.2492 -0.0744 -0.1385
 2595POPC   C3A31399   5.317  14.436  16.880  0.3134  0.3261  0.2316
 2595POPC   C4A31400   4.935  14.587  17.081 -0.0788 -0.0062  0.2538
 2595POPC   C1B31401   5.068  14.707  16.127  0.0238 -0.2946 -0.2474
 2595POPC   C2B31402   5.129  14.821  16.525 -0.1000 -0.1179  0.2128
 2595POPC   C3B31403   5.252  14.975  16.911  0.0110 -0.3362  0.0240
 2595POPC   C4B31404   5.095  15.157  17.255 -0.1598  0.0688  0.1531
 2596POPC   NC331405  15.831  17.667  15.471 -0.0571 -0.0871  0.0116
 2596POPC   PO431406  15.933  17.285  15.379 -0.1844 -0.3469 -0.0862
 2596POPC   GL131407  16.018  17.104  15.703 -0.5486  0.1600 -0.0554
 2596POPC   GL231408  16.161  17.284  15.891 -0.2285  0.2074 -0.3344
 2596POPC   C1A31409  15.746  16.897  16.019  0.5537  0.2225  0.2070
 2596POPC   D2A31410  15.441  16.825  16.415  0.2233 -0.2446 -0.4523
 2596POPC   C3A31411  14.989  16.846  16.419 -0.1731 -0.0620 -0.4255
 2596POPC   C4A31412  14.589  16.777  16.539  0.0996 -0.2046  0.3309
 2596POPC   C1B31413  16.474  17.327  16.246  0.3444  0.0525 -0.2967
 2596POPC   C2B31414  16.696  17.361  16.662  0.0156 -0.0005 -0.3567
 2596POPC   C3B31415  16.810  17.298  17.135 -0.1396  0.1135  0.0191
 2596POPC   C4B31416  16.930  16.990  17.416 -0.3965 -0.0091 -0.2217
 2597POPC   NC331417  30.869  21.272  15.151  0.1351 -0.0071  0.0980
 2597POPC   PO431418  30.696  21.558  15.342 -0.0021 -0.1500  0.2310
 2597POPC   GL131419  30.810  21.729  15.637  0.7796  0.3737  0.1982
 2597POPC   GL231420  30.596  21.739  15.786  0.2285 -0.4564 -0.0551
 2597POPC   C1A31421  30.944  21.910  16.025  0.2878 -0.3281  0.0758
 2597POPC   D2A31422  31.191  22.148  16.388 -0.0475 -0.1349  0.4501
 2597POPC   C3A31423  31.096  22.071  16.863 -0.3177  0.0536  0.1246
 2597POPC   C4A31424  31.074  22.297  17.224  0.1194 -0.0987 -0.2141
 2597POPC   C1B31425  30.458  21.746  16.215  0.0550  0.1077  0.0475
 2597POPC   C2B31426  30.368  22.075  16.546  0.0041  0.0833  0.1588
 2597POPC   C3B31427  30.229  22.130  16.981  0.0418 -0.0677 -0.1619
 2597POPC   C4B31428  30.036  22.169  17.380  0.0097  0.2154  0.2356
 2598POPC   NC331429   8.141  11.242  15.126 -0.1941  0.2085 -0.2548
 2598POPC   PO431430   8.226  10.901  15.148 -0.1811  0.1139 -0.2267
 2598POPC   GL131431   8.199  10.903  15.505  0.2204 -0.2023 -0.2931
 2598POPC   GL231432   8.250  10.721  15.706  0.0522  0.2025  0.0743
 2598POPC   C1A31433   8.223  11.271  15.729 -0.1262 -0.0380 -0.2354
 2598POPC   D2A31434   8.476  11.329  16.161 -0.0750 -0.0047  0.1707
 2598POPC   C3A31435   8.239  11.480  16.519  0.0587  0.0077  0.1640
 2598POPC   C4A31436   7.910  11.362  16.827  0.3832 -0.1519 -0.2175
 2598POPC   C1B31437   8.217  10.908  16.102  0.2759 -0.0624 -0.1228
 2598POPC   C2B31438   7.821  10.900  16.440 -0.0120  0.1028 -0.0153
 2598POPC   C3B31439   7.573  10.833  16.828  0.0844 -0.5093  0.0930
 2598POPC   C4B31440   7.604  11.066  17.210 -0.1476  0.0510  0.3854
 2599POPC   NC331441  16.005  10.082  14.682  0.2203 -0.0555  0.0751
 2599POPC   PO431442  15.882   9.735  14.479  0.0775  0.0712 -0.0557
 2599POPC   GL131443  15.608   9.518  14.708  0.0829  0.0635 -0.1501
 2599POPC   GL231444  15.635   9.750  14.946  0.0549 -0.0552  0.1101
 2599POPC   C1A31445  15.178   9.651  14.591  0.0159  0.0588  0.0723
 2599POPC   D2A31446  14.970  10.056  14.597 -0.2896  0.3083  0.0215
 2599POPC   C3A31447  14.753  10.438  14.423 -0.0143  0.0850 -0.1324
 2599POPC   C4A31448  14.734  10.759  14.083 -0.2985 -0.1022  0.0020
 2599POPC   C1B31449  15.836  10.091  15.146  0.1426  0.0668  0.2233
 2599POPC   C2B31450  15.831  10.475  15.396  0.1629 -0.3085 -0.1894
 2599POPC   C3B31451  15.635  10.597  15.818  0.1503  0.2790 -0.0837
 2599POPC   C4B31452  15.564  10.559  16.327  0.4341  0.1847  0.1509
 2600POPC   NC331453  10.061  12.466  15.236 -0.0230 -0.0530 -0.0093
 2600POPC   PO431454  10.262  12.796  15.391 -0.0334 -0.2135 -0.0762
 2600POPC   GL131455  10.215  12.993  15.772 -0.0528 -0.0029  0.3029
 2600POPC   GL231456  10.014  13.088  15.920 -0.1318  0.1678 -0.1604
 2600POPC   C1A31457  10.406  13.335  16.017  0.1437 -0.0362 -0.1251
 2600POPC   D2A31458  10.470  13.751  16.302 -0.0971  0.1418  0.3418
 2600POPC   C3A31459  10.556  13.719  16.806 -0.4717  0.1851 -0.0434
 2600POPC   C4A31460  10.400  13.703  17.245 -0.0471 -0.1149  0.1948
 2600POPC   C1B31461   9.935  13.149  16.390  0.1052  0.4628  0.0579
 2600POPC   C2B31462  10.071  12.888  16.784 -0.1505 -0.0376  0.2304
 2600POPC   C3B31463   9.916  12.555  17.063 -0.0756  0.1598  0.2958
 2600POPC   C4B31464   9.993  12.168  17.278  0.1623 -0.1545  0.2253
 2601POPC   NC331465  15.917  23.592  14.982  0.0055 -0.0708 -0.0638
 2601POPC   PO431466  15.779  23.235  15.001 -0.1922  0.1575 -0.0017
 2601POPC   GL131467  15.562  23.312  15.351  0.1446 -0.2780 -0.4542
 2601POPC   GL231468  15.637  23.612  15.414 -0.1025 -0.0259  0.1132
 2601POPC   C1A31469  15.550  23.222  15.806 -0.1062  0.0816 -0.0249
 2601POPC   D2A31470  15.370  22.888  16.039  0.0219  0.0338  0.2817
 2601POPC   C3A31471  15.229  22.705  16.429 -0.0733 -0.0412  0.0263
 2601POPC   C4A31472  15.425  22.618  16.832 -0.4456  0.1187  0.3690
 2601POPC   C1B31473  15.542  23.709  15.850 -0.3425  0.1857  0.2172
 2601POPC   C2B31474  15.572  23.766  16.314 -0.1156 -0.0814  0.3362
 2601POPC   C3B31475  15.853  23.593  16.580 -0.0119 -0.1968  0.0622
 2601POPC   C4B31476  16.187  23.603  16.932 -0.0211 -0.0136  0.0250
 2602POPC   NC331477   7.487  10.902  14.549 -0.2220 -0.0451 -0.0460
 2602POPC   PO431478   7.350  10.791  14.907 -0.1944 -0.2633 -0.2612
 2602POPC   GL131479   7.157  11.062  15.055 -0.0158 -0.0879  0.1534
 2602POPC   GL231480   7.227  11.077  15.357  0.0620 -0.0232 -0.3299
 2602POPC   C1A31481   6.729  11.188  15.084  0.1595 -0.1628 -0.0416
 2602POPC   D2A31482   6.386  10.903  15.255  0.2023  0.1233 -0.0181
 2602POPC   C3A31483   5.990  10.960  15.585  0.1859  0.0261 -0.2457
 2602POPC   C4A31484   5.764  10.751  15.961 -0.1258  0.0766 -0.1530
 2602POPC   C1B31485   7.171  11.431  15.487 -0.3502 -0.0722 -0.1492
 2602POPC   C2B31486   6.850  11.432  15.857 -0.0431  0.1452  0.1391
 2602POPC   C3B31487   6.535  11.431  16.239  0.0924 -0.1754  0.0303
 2602POPC   C4B31488   6.540  11.498  16.693 -0.0663 -0.0605  0.1817
 2603POPC   NC331489  16.067  11.564  14.148  0.1379  0.2213  0.3170
 2603POPC   PO431490  16.110  11.800  14.437 -0.0454 -0.1493  0.0783
 2603POPC   GL131491  15.888  11.700  14.714 -0.1558  0.4116 -0.0744
 2603POPC   GL231492  15.731  11.535  14.629  0.0742 -0.0830  0.1507
 2603POPC   C1A31493  15.562  11.893  14.906 -0.0276  0.2737 -0.0586
 2603POPC   D2A31494  15.476  11.951  15.339 -0.1355  0.3757 -0.1308
 2603POPC   C3A31495  15.261  11.808  15.709 -0.2066 -0.0225  0.1896
 2603POPC   C4A31496  15.175  11.622  16.140 -0.1140 -0.1601  0.1697
 2603POPC   C1B31497  15.647  11.151  14.415 -0.1401  0.1380 -0.3585
 2603POPC   C2B31498  15.517  10.762  14.576 -0.1813  0.1319  0.0584
 2603POPC   C3B31499  15.537  10.324  14.753 -0.4302  0.0481  0.0093
 2603POPC   C4B31500  15.342  10.223  15.206 -0.2312 -0.0214  0.2766
 2604POPC   NC331501   2.508   4.387  15.078 -0.0913  0.2107 -0.2279
 2604POPC   PO431502   2.310   4.604  15.290  0.1102 -0.0151 -0.2854
 2604POPC   GL131503   2.499   4.426  15.666 -0.1835  0.3963  0.0369
 2604POPC   GL231504   2.662   4.186  15.612  0.0012 -0.0785 -0.3525
 2604POPC   C1A31505   2.438   4.477  16.135  0.1194 -0.1500  0.5209
 2604POPC   D2A31506   2.501   4.592  16.580 -0.0774 -0.3499  0.0562
 2604POPC   C3A31507   2.264   4.327  16.818 -0.1743  0.0551  0.0259
 2604POPC   C4A31508   1.834   4.153  16.755  0.0164  0.3769  0.3263
 2604POPC   C1B31509   2.762   4.079  16.042  0.1956  0.0500 -0.2788
 2604POPC   C2B31510   2.609   3.959  16.408 -0.0931  0.1610 -0.0013
 2604POPC   C3B31511   2.650   4.026  16.922 -0.1529 -0.2076  0.3992
 2604POPC   C4B31512   2.509   4.460  17.182 -0.1143 -0.1307  0.0379
 2605POPC   NC331513  15.623  22.509  15.011  0.2797 -0.1430 -0.1238
 2605POPC   PO431514  15.784  22.383  15.329  0.1973  0.0052  0.0256
 2605POPC   GL131515  15.924  22.328  15.678  0.0010  0.0545 -0.2332
 2605POPC   GL231516  15.900  22.579  15.798  0.1950 -0.2161  0.1127
 2605POPC   C1A31517  15.792  22.053  16.038  0.5037 -0.0580  0.0482
 2605POPC   D2A31518  16.051  21.964  16.395 -0.1711 -0.3566  0.1800
 2605POPC   C3A31519  15.703  21.927  16.740 -0.1242  0.0143  0.2894
 2605POPC   C4A31520  15.595  22.180  17.090  0.0455 -0.1998  0.0057
 2605POPC   C1B31521  15.896  22.838  16.208 -0.0146 -0.0156  0.1642
 2605POPC   C2B31522  15.808  22.890  16.647 -0.3006 -0.0715  0.2217
 2605POPC   C3B31523  15.825  22.708  17.120  0.1157 -0.1006  0.0639
 2605POPC   C4B31524  15.836  22.449  17.495  0.3563 -0.0526  0.0411
 2606POPC   NC331525  16.898  15.017  15.135  0.0959 -0.0542  0.2251
 2606POPC   PO431526  17.138  14.711  15.148 -0.2791  0.0207 -0.2398
 2606POPC   GL131527  17.147  14.967  15.562  0.2217  0.0558  0.0153
 2606POPC   GL231528  17.138  14.637  15.719  0.1609 -0.0135 -0.2211
 2606POPC   C1A31529  17.502  15.137  15.858 -0.0708  0.3125  0.3697
 2606POPC   D2A31530  17.862  15.005  16.036 -0.2329  0.2033 -0.2308
 2606POPC   C3A31531  18.135  15.254  16.337  0.1658 -0.3229  0.0934
 2606POPC   C4A31532  18.435  15.504  16.575  0.1003 -0.0553  0.0421
 2606POPC   C1B31533  17.389  14.717  16.101  0.1087 -0.3554  0.0319
 2606POPC   C2B31534  17.400  14.723  16.565  0.3859 -0.0409 -0.2109
 2606POPC   C3B31535  17.471  14.953  16.959  0.3812  0.1858  0.3415
 2606POPC   C4B31536  17.320  15.315  17.198  0.2378 -0.5166  0.0609
 2607POPC   NC331537  23.087  15.348  14.841 -0.4329 -0.0762 -0.1041
 2607POPC   PO431538  22.817  15.536  15.055  0.1842  0.0109  0.1468
 2607POPC   GL131539  22.719  15.465  15.416  0.1026 -0.2789  0.0077
 2607POPC   GL231540  22.608  15.743  15.536 -0.1849  0.2724  0.3052
 2607POPC   C1A31541  22.690  15.025  15.642 -0.2469 -0.1371 -0.5677
 2607POPC   D2A31542  22.731  14.756  16.004 -0.2482  0.2114 -0.0385
 2607POPC   C3A31543  22.584  14.778  16.435  0.0347  0.2911 -0.0946
 2607POPC   C4A31544  22.510  14.832  16.905  0.0788 -0.1206  0.1007
 2607POPC   C1B31545  22.788  15.660  15.940 -0.0220 -0.1192 -0.1271
 2607POPC   C2B31546  22.735  15.790  16.419  0.2300 -0.1443  0.0769
 2607POPC   C3B31547  22.855  15.696  16.872 -0.0964 -0.0866  0.3687
 2607POPC   C4B31548  23.212  15.881  17.096  0.1343 -0.0528  0.0664
 2608POPC   NC331549  12.015   1.862  15.630  0.2582 -0.1749  0.3464
 2608POPC   PO431550  12.065   2.133  15.365  0.2337  0.3700 -0.1247
 2608POPC   GL131551  11.954   2.466  15.577  0.0485 -0.1225  0.2172
 2608POPC   GL231552  12.121   2.477  15.786  0.0673  0.0097  0.3941
 2608POPC   C1A31553  11.604   2.587  15.833  0.0601  0.1357 -0.0891
 2608POPC   D2A31554  11.324   2.690  16.184 -0.0866 -0.1766 -0.2042
 2608POPC   C3A31555  11.468   3.104  16.281 -0.0848  0.0247 -0.2363
 2608POPC   C4A31556  11.786   3.386  16.456  0.3591 -0.0450 -0.1089
 2608POPC   C1B31557  12.023   2.496  16.227 -0.1892  0.1102  0.2006
 2608POPC   C2B31558  11.644   2.494  16.445 -0.2010  0.0222  0.1214
 2608POPC   C3B31559  11.362   2.376  16.836 -0.0754  0.1723 -0.3650
 2608POPC   C4B31560  11.054   2.227  17.136 -0.1696  0.1230 -0.2141
 2609POPC   NC331561  24.977   2.001  15.107  0.0138 -0.3537  0.1807
 2609POPC   PO431562  24.667   1.784  15.190  0.1762  0.0542 -0.4257
 2609POPC   GL131563  24.650   1.945  15.534  0.5578 -0.1485 -0.1250
 2609POPC   GL231564  24.746   2.220  15.504  0.2875 -0.1989 -0.0553
 2609POPC   C1A31565  24.650   1.841  16.004 -0.0677  0.2049  0.0309
 2609POPC   D2A31566  24.707   1.560  16.381 -0.0714  0.0713 -0.0289
 2609POPC   C3A31567  24.507   1.770  16.705 -0.0509  0.0726 -0.2483
 2609POPC   C4A31568  24.295   1.710  17.095  0.2222 -0.1012 -0.0220
 2609POPC   C1B31569  24.688   2.335  15.956 -0.1001  0.3878  0.1226
 2609POPC   C2B31570  24.373   2.256  16.325 -0.0075  0.3065  0.1096
 2609POPC   C3B31571  24.043   2.349  16.584  0.3341 -0.4659 -0.1267
 2609POPC   C4B31572  23.909   2.707  16.825 -0.0953 -0.0132 -0.3030
 2610POPC   NC331573  26.205   7.407  15.049 -0.1288 -0.0649  0.0128
 2610POPC   PO431574  25.985   7.111  14.942  0.0951 -0.0355  0.1014
 2610POPC   GL131575  26.050   7.061  15.337 -0.4028 -0.1180  0.2134
 2610POPC   GL231576  25.865   7.188  15.459 -0.1131  0.1458 -0.3436
 2610POPC   C1A31577  26.338   7.128  15.750 -0.0142  0.3776  0.2403
 2610POPC   D2A31578  26.754   7.347  15.971 -0.1545 -0.1498  0.1730
 2610POPC   C3A31579  26.646   7.394  16.431  0.0415  0.2216 -0.0365
 2610POPC   C4A31580  26.826   7.224  16.819  0.3267 -0.0067  0.1278
 2610POPC   C1B31581  25.887   7.059  15.922  0.0153  0.2282  0.1740
 2610POPC   C2B31582  25.797   7.267  16.368  0.2071  0.1224 -0.0818
 2610POPC   C3B31583  25.653   7.429  16.754  0.1544 -0.1368 -0.2786
 2610POPC   C4B31584  25.853   7.505  17.152 -0.1431  0.3309  0.2169
 2611POPC   NC331585  27.301   3.113  15.053  0.1020  0.0266  0.0405
 2611POPC   PO431586  27.689   3.086  15.075 -0.0434  0.0144  0.0585
 2611POPC   GL131587  27.551   3.135  15.503 -0.1733  0.2109  0.1304
 2611POPC   GL231588  27.291   2.940  15.566  0.0223  0.2664  0.0028
 2611POPC   C1A31589  27.378   3.363  15.902 -0.2153  0.0642  0.0289
 2611POPC   D2A31590  27.546   3.532  16.349  0.1855  0.1862  0.2746
 2611POPC   C3A31591  27.420   3.469  16.810  0.0864  0.0654  0.2590
 2611POPC   C4A31592  27.671   3.158  17.067 -0.0064  0.2281  0.2000
 2611POPC   C1B31593  27.504   2.787  15.936  0.3770  0.2160  0.3028
 2611POPC   C2B31594  27.391   2.562  16.345 -0.0270  0.0659 -0.2244
 2611POPC   C3B31595  27.545   2.653  16.790  0.2577 -0.0057 -0.2043
 2611POPC   C4B31596  27.504   2.766  17.245  0.1494  0.1575 -0.3556
 2612POPC   NC331597  12.347  27.333  15.220  0.3606  0.2881  0.1283
 2612POPC   PO431598  12.502  27.660  15.208  0.1259 -0.0806 -0.0992
 2612POPC   GL131599  12.333  27.623  15.578  0.0409  0.1184 -0.0434
 2612POPC   GL231600  12.054  27.601  15.599 -0.0670  0.1880 -0.0496
 2612POPC   C1A31601  12.398  27.631  16.019  0.0806 -0.1191 -0.2639
 2612POPC   D2A31602  12.633  27.461  16.342  0.0265 -0.1142 -0.1908
 2612POPC   C3A31603  12.607  27.543  16.758 -0.1003  0.1032  0.1192
 2612POPC   C4A31604  12.499  27.602  17.190  0.1621 -0.0109  0.1375
 2612POPC   C1B31605  11.875  27.421  15.965  0.2621 -0.0738 -0.0709
 2612POPC   C2B31606  11.853  27.120  16.288  0.2833 -0.2897  0.1026
 2612POPC   C3B31607  11.781  26.914  16.678 -0.2590  0.1629  0.1572
 2612POPC   C4B31608  11.592  26.644  16.984  0.0434 -0.0007 -0.1975
 2613POPC   NC331609  25.699  22.231  15.060  0.1429  0.0748 -0.0257
 2613POPC   PO431610  25.489  22.571  15.148  0.1083 -0.0377 -0.1689
 2613POPC   GL131611  25.377  22.345  15.481 -0.0516  0.1868  0.0613
 2613POPC   GL231612  25.532  22.457  15.682 -0.2020  0.1188 -0.0829
 2613POPC   C1A31613  25.024  22.403  15.790 -0.1889 -0.4287 -0.2666
 2613POPC   D2A31614  24.886  22.503  16.250  0.1069 -0.0053 -0.1201
 2613POPC   C3A31615  25.197  22.664  16.626 -0.0957 -0.0138 -0.0166
 2613POPC   C4A31616  25.254  22.851  17.015  0.2335  0.0465 -0.0286
 2613POPC   C1B31617  25.414  22.543  16.104 -0.0670  0.2464 -0.4401
 2613POPC   C2B31618  25.381  22.951  16.270 -0.2933 -0.1948  0.3745
 2613POPC   C3B31619  25.157  23.179  16.620  0.1965  0.1992  0.0678
 2613POPC   C4B31620  24.721  23.307  16.733  0.0571 -0.1198  0.1778
 2614POPC   NC331621  19.724  18.631  15.283 -0.2560  0.1761  0.0820
 2614POPC   PO431622  19.831  18.308  15.121  0.0874  0.1288  0.0530
 2614POPC   GL131623  19.707  18.110  15.503 -0.0258 -0.0008  0.1097
 2614POPC   GL231624  19.560  18.287  15.637 -0.0617 -0.1779  0.1803
 2614POPC   C1A31625  19.998  17.914  15.775 -0.3158  0.4744  0.3306
 2614POPC   D2A31626  20.340  18.127  15.971  0.1994  0.2127 -0.1533
 2614POPC   C3A31627  20.599  17.837  16.156 -0.1351 -0.2162 -0.0290
 2614POPC   C4A31628  20.607  17.510  16.428  0.0815  0.3966 -0.0653
 2614POPC   C1B31629  19.721  18.333  16.040 -0.2965  0.0903  0.1636
 2614POPC   C2B31630  20.011  18.034  16.315  0.3163 -0.1795 -0.0138
 2614POPC   C3B31631  20.236  17.893  16.704  0.2118  0.2302 -0.0214
 2614POPC   C4B31632  20.498  17.857  17.112  0.0965  0.2760  0.1592
 2615POPC   NC331633   2.539   6.763  15.799  0.0628 -0.0174 -0.0680
 2615POPC   PO431634   2.763   6.410  15.770  0.5788 -0.2538  0.4144
 2615POPC   GL131635   2.918   6.474  16.138  0.3108  0.0915 -0.3039
 2615POPC   GL231636   3.041   6.196  16.202  0.7905 -0.1765  0.1782
 2615POPC   C1A31637   2.790   6.438  16.589 -0.1519  0.1591 -0.2321
 2615POPC   D2A31638   2.653   6.429  17.030 -0.0566 -0.1976  0.2126
 2615POPC   C3A31639   2.914   6.645  17.309 -0.0430 -0.1511 -0.4395
 2615POPC   C4A31640   3.365   6.519  17.452 -0.0030  0.1537  0.1403
 2615POPC   C1B31641   3.244   6.228  16.549  0.0047 -0.2743 -0.2510
 2615POPC   C2B31642   3.143   6.480  16.932  0.1727 -0.1075 -0.2656
 2615POPC   C3B31643   3.189   6.923  16.990  0.0028  0.3294 -0.1652
 2615POPC   C4B31644   3.356   7.209  16.776 -0.1096  0.1877  0.1736
 2616POPC   NC331645  16.234  14.752  14.924 -0.3523 -0.0535  0.0645
 2616POPC   PO431646  16.352  14.830  15.257 -0.0547 -0.0647  0.3850
 2616POPC   GL131647  16.671  14.745  15.421 -0.2895 -0.3059  0.1201
 2616POPC   GL231648  16.663  14.518  15.534  0.2797 -0.1396 -0.2331
 2616POPC   C1A31649  16.745  15.037  15.795  0.0258 -0.1398  0.0690
 2616POPC   D2A31650  16.483  15.307  15.982  0.1418  0.0465 -0.0663
 2616POPC   C3A31651  16.706  15.720  16.179  0.1736 -0.0285 -0.1621
 2616POPC   C4A31652  16.828  16.113  16.417  0.0847 -0.0680 -0.0020
 2616POPC   C1B31653  16.720  14.481  16.038  0.1597 -0.0215 -0.3645
 2616POPC   C2B31654  16.953  14.531  16.412 -0.0444 -0.0904  0.0324
 2616POPC   C3B31655  16.882  14.828  16.802  0.0619  0.2298 -0.1722
 2616POPC   C4B31656  16.756  15.231  17.048 -0.3440 -0.2149  0.0988
 2617POPC   NC331657  15.834  29.348  15.523 -0.1047 -0.1138 -0.0713
 2617POPC   PO431658  15.607  29.661  15.433  0.0881 -0.0757  0.0837
 2617POPC   GL131659  15.751  29.797  15.852  0.2911  0.0072 -0.0667
 2617POPC   GL231660  15.635  30.073  15.794  0.0800  0.0368  0.0051
 2617POPC   C1A31661  15.381  29.784  16.128  0.1961  0.1771 -0.0094
 2617POPC   D2A31662  15.003  30.053  16.119  0.1438 -0.1355  0.1516
 2617POPC   C3A31663  15.009  30.453  16.408  0.1011  0.1110  0.2782
 2617POPC   C4A31664  14.967  30.822  16.612 -0.2054  0.0625 -0.0385
 2617POPC   C1B31665  15.530  30.239  16.200  0.0393 -0.1599  0.0895
 2617POPC   C2B31666  15.731  30.404  16.536  0.2549  0.0607  0.2457
 2617POPC   C3B31667  16.021  30.386  16.932  0.3640 -0.0740 -0.1855
 2617POPC   C4B31668  15.957  30.419  17.392  0.1140 -0.0305 -0.0179
 2618POPC   NC331669  22.122  22.440  14.839 -0.0772  0.1303  0.2400
 2618POPC   PO431670  21.780  22.594  14.938  0.2338  0.1842  0.1093
 2618POPC   GL131671  21.819  22.565  15.303 -0.2761 -0.1481 -0.1120
 2618POPC   GL231672  21.813  22.816  15.457  0.0845 -0.3095 -0.2542
 2618POPC   C1A31673  21.786  22.425  15.688  0.0132 -0.2344 -0.2287
 2618POPC   D2A31674  21.950  22.306  16.105  0.0512  0.3724 -0.1316
 2618POPC   C3A31675  22.065  21.860  16.233  0.0501 -0.0182  0.4507
 2618POPC   C4A31676  22.014  21.374  16.267  0.0729 -0.2216  0.2052
 2618POPC   C1B31677  22.048  22.889  15.843 -0.1975  0.1210  0.1455
 2618POPC   C2B31678  21.976  22.786  16.271  0.1462 -0.0212 -0.2407
 2618POPC   C3B31679  21.968  22.776  16.715 -0.1772  0.2366  0.3932
 2618POPC   C4B31680  22.125  22.957  17.072 -0.1244 -0.1217 -0.2008
 2619POPC   NC331681   1.956  13.264  14.732  0.1092 -0.2586 -0.1121
 2619POPC   PO431682   2.167  13.254  15.065 -0.1825  0.0882  0.2014
 2619POPC   GL131683   2.309  13.426  15.405  0.0474 -0.1704  0.0293
 2619POPC   GL231684   2.185  13.647  15.590 -0.2097  0.0983  0.4025
 2619POPC   C1A31685   2.637  13.170  15.662 -0.2061  0.2581  0.2231
 2619POPC   D2A31686   3.009  12.967  15.848 -0.0979  0.1728 -0.2313
 2619POPC   C3A31687   3.347  13.132  16.128 -0.2691  0.0428 -0.2874
 2619POPC   C4A31688   3.344  13.278  16.618  0.1697  0.1631  0.2295
 2619POPC   C1B31689   2.210  13.274  15.831  0.2143  0.1345 -0.2665
 2619POPC   C2B31690   2.144  12.892  16.129 -0.3325 -0.0574 -0.0624
 2619POPC   C3B31691   2.199  12.589  16.460 -0.0522  0.0183  0.1377
 2619POPC   C4B31692   2.485  12.353  16.710  0.0425  0.0083 -0.0466
 2620POPC   NC331693   4.015  15.769  14.835  0.0869 -0.2127  0.1098
 2620POPC   PO431694   4.182  15.915  15.157 -0.0569  0.2658 -0.1633
 2620POPC   GL131695   3.908  15.897  15.500  0.0424  0.1458 -0.1921
 2620POPC   GL231696   3.748  15.666  15.464 -0.0950  0.0152  0.1670
 2620POPC   C1A31697   3.702  16.104  15.887 -0.0543  0.1717 -0.2625
 2620POPC   D2A31698   3.630  16.036  16.323 -0.1241  0.1739  0.1229
 2620POPC   C3A31699   3.365  15.640  16.447  0.1081 -0.0182 -0.0330
 2620POPC   C4A31700   3.210  15.229  16.615 -0.1847  0.1370  0.1399
 2620POPC   C1B31701   3.535  15.644  15.876 -0.3163 -0.0563  0.1819
 2620POPC   C2B31702   3.425  15.300  16.100  0.1641 -0.3690  0.0869
 2620POPC   C3B31703   3.163  14.946  16.202 -0.2607  0.1813  0.1476
 2620POPC   C4B31704   2.977  14.541  15.996  0.0705  0.0335  0.0918
 2621POPC   NC331705  15.469   7.897  14.892 -0.0600  0.2643  0.1570
 2621POPC   PO431706  15.546   7.874  15.260  0.3750 -0.0185  0.0540
 2621POPC   GL131707  15.678   8.033  15.651  0.1258  0.3399  0.0301
 2621POPC   GL231708  15.520   7.857  15.875  0.0495  0.3282 -0.3255
 2621POPC   C1A31709  15.681   8.217  16.092  0.0760 -0.0762 -0.2022
 2621POPC   D2A31710  15.665   8.413  16.547  0.2444  0.0455 -0.0857
 2621POPC   C3A31711  16.032   8.376  16.859 -0.1492  0.1768  0.5575
 2621POPC   C4A31712  16.272   8.249  17.234  0.0600 -0.3730  0.4287
 2621POPC   C1B31713  15.482   7.820  16.299  0.2920  0.2233 -0.1494
 2621POPC   C2B31714  15.373   7.822  16.772  0.0665  0.0334  0.1944
 2621POPC   C3B31715  15.458   8.185  16.978 -0.0172 -0.0070  0.2092
 2621POPC   C4B31716  15.671   8.149  17.438  0.2710 -0.0427  0.3510
 2622POPC   NC331717   7.036  23.268  15.648  0.1986  0.1085  0.0829
 2622POPC   PO431718   7.269  23.457  15.368 -0.0518  0.1953  0.1105
 2622POPC   GL131719   7.299  23.655  15.666  0.1063  0.2749 -0.1110
 2622POPC   GL231720   7.028  23.798  15.711 -0.0624  0.0724 -0.0920
 2622POPC   C1A31721   7.418  23.574  16.102  0.2902  0.0967  0.2940
 2622POPC   D2A31722   7.487  23.395  16.566 -0.2208  0.1185  0.0939
 2622POPC   C3A31723   7.402  23.540  17.019  0.3929  0.1731 -0.0766
 2622POPC   C4A31724   7.424  23.846  17.349  0.1395 -0.2606 -0.2777
 2622POPC   C1B31725   6.875  23.595  16.093 -0.0156 -0.0812  0.1359
 2622POPC   C2B31726   7.043  23.721  16.553  0.0766  0.1768  0.6405
 2622POPC   C3B31727   7.108  24.022  16.902 -0.0556  0.0017  0.2984
 2622POPC   C4B31728   7.275  24.332  17.222  0.2148 -0.3317  0.3124
 2623POPC   NC331729   2.492  30.416  14.655 -0.0089 -0.0545 -0.1350
 2623POPC   PO431730   2.114  30.404  14.793  0.0340 -0.1102 -0.3315
 2623POPC   GL131731   2.218  30.325  15.115 -0.4643 -0.0666 -0.0260
 2623POPC   GL231732   2.502  30.454  15.157  0.3045  0.1288 -0.3188
 2623POPC   C1A31733   2.482  29.901  15.239  0.2084 -0.0425  0.2381
 2623POPC   D2A31734   2.688  29.456  15.347  0.0300  0.0085  0.5346
 2623POPC   C3A31735   2.844  29.503  15.771 -0.0601  0.1087 -0.2145
 2623POPC   C4A31736   2.822  29.669  16.214  0.1685  0.1194 -0.0271
 2623POPC   C1B31737   2.521  30.694  15.571 -0.0701 -0.0143 -0.0004
 2623POPC   C2B31738   2.732  30.690  15.972  0.1755  0.1195  0.4245
 2623POPC   C3B31739   2.867  30.574  16.413  0.1006  0.0888 -0.0942
 2623POPC   C4B31740   3.025  30.739  16.821  0.1744  0.0701  0.1226
 2624POPC   NC331741  18.419  13.288  15.451 -0.1145 -0.1087  0.1121
 2624POPC   PO431742  18.624  12.964  15.391  0.2993  0.2717 -0.0691
 2624POPC   GL131743  18.581  12.952  15.734 -0.0667  0.2391  0.1463
 2624POPC   GL231744  18.647  13.195  15.880  0.1216  0.1655 -0.1635
 2624POPC   C1A31745  18.696  12.783  16.168 -0.2921  0.0244 -0.1364
 2624POPC   D2A31746  18.768  12.823  16.673 -0.3616 -0.0166 -0.3167
 2624POPC   C3A31747  18.988  12.854  17.061  0.3004  0.0672  0.1217
 2624POPC   C4A31748  19.396  13.061  17.147  0.0305 -0.2474 -0.2612
 2624POPC   C1B31749  18.612  13.377  16.296 -0.2373  0.0977 -0.0802
 2624POPC   C2B31750  18.571  13.295  16.800 -0.1280 -0.3047  0.2399
 2624POPC   C3B31751  18.459  13.241  17.222  0.1095 -0.3128 -0.3232
 2624POPC   C4B31752  18.486  13.085  17.674  0.4702 -0.0911  0.1043
 2625POPC   NC331753  21.888  30.080  15.435  0.1388  0.0031 -0.0574
 2625POPC   PO431754  22.182  30.058  15.614  0.1028  0.1268  0.2140
 2625POPC   GL131755  22.265  30.080  16.073  0.1943 -0.2474  0.4549
 2625POPC   GL231756  22.502  30.229  16.038 -0.2713 -0.1170 -0.1669
 2625POPC   C1A31757  22.083  30.296  16.441 -0.1606  0.0344  0.3536
 2625POPC   D2A31758  22.024  30.386  16.901  0.0659  0.0108 -0.1457
 2625POPC   C3A31759  22.249  30.294  17.262  0.1006  0.1299 -0.3659
 2625POPC   C4A31760  22.627  30.380  17.531 -0.0463  0.0428  0.1072
 2625POPC   C1B31761  22.870  30.484  16.241 -0.0001  0.0390  0.0319
 2625POPC   C2B31762  23.084  30.533  16.658  0.1524 -0.1115 -0.1088
 2625POPC   C3B31763  23.089  30.789  17.002  0.1815 -0.0226 -0.2348
 2625POPC   C4B31764  23.331  30.888  17.380  0.0433  0.2429 -0.0699
 2626POPC   NC331765   8.668  18.339  15.384 -0.0831 -0.1219  0.2205
 2626POPC   PO431766   8.964  18.539  15.436 -0.3761 -0.0435 -0.0429
 2626POPC   GL131767   8.924  18.423  15.766  0.3021 -0.0043 -0.2596
 2626POPC   GL231768   9.188  18.317  15.999  0.0689 -0.0225  0.2826
 2626POPC   C1A31769   8.850  18.645  16.176  0.0140  0.2340  0.0568
 2626POPC   D2A31770   8.567  18.702  16.591  0.1877 -0.1732 -0.1673
 2626POPC   C3A31771   8.471  18.511  16.970 -0.1230 -0.0955 -0.0289
 2626POPC   C4A31772   8.296  18.434  17.391 -0.3843  0.0863 -0.0470
 2626POPC   C1B31773   9.157  18.135  16.367  0.2406 -0.1670 -0.0645
 2626POPC   C2B31774   9.228  17.837  16.736 -0.0212  0.2421 -0.1886
 2626POPC   C3B31775   9.142  17.539  17.032 -0.3491  0.4059 -0.1230
 2626POPC   C4B31776   9.082  17.290  17.402  0.1858  0.1571  0.1802
 2627POPC   NC331777   7.403  30.742  15.459 -0.0683  0.1966  0.1250
 2627POPC   PO431778   7.110  31.018  15.419  0.1512 -0.1581 -0.0633
 2627POPC   GL131779   7.079  31.158  15.824  0.1300  0.1067 -0.3805
 2627POPC   GL231780   7.151  30.849  15.924 -0.0574  0.0442 -0.1218
 2627POPC   C1A31781   6.860  31.053  16.255 -0.0796  0.0913  0.2073
 2627POPC   D2A31782   6.868  31.042  16.669 -0.2850 -0.0178 -0.1393
 2627POPC   C3A31783   7.192  30.815  16.845 -0.2307 -0.0065 -0.1021
 2627POPC   C4A31784   7.411  30.712  17.233  0.0290 -0.4923 -0.2822
 2627POPC   C1B31785   7.306  30.660  16.379  0.0775  0.2860  0.1204
 2627POPC   C2B31786   7.500  30.437  16.707  0.1336  0.0441 -0.2313
 2627POPC   C3B31787   7.861  30.380  17.052 -0.1101  0.0164  0.0246
 2627POPC   C4B31788   8.052  30.066  17.366  0.0086  0.1174 -0.0768
 2628POPC   NC331789  17.744   4.755  15.305  0.0293  0.1105 -0.1026
 2628POPC   PO431790  17.936   4.419  15.366 -0.1110  0.0258  0.0247
 2628POPC   GL131791  17.875   4.301  15.747  0.5294 -0.3315  0.0414
 2628POPC   GL231792  17.813   4.047  15.677 -0.1039  0.1489  0.2485
 2628POPC   C1A31793  18.109   4.384  16.066 -0.2065  0.3384 -0.1124
 2628POPC   D2A31794  18.183   4.266  16.548 -0.1212  0.0700 -0.0777
 2628POPC   C3A31795  18.629   4.354  16.706  0.0276  0.0505 -0.1489
 2628POPC   C4A31796  19.005   4.435  16.918  0.1745  0.1027 -0.1528
 2628POPC   C1B31797  17.974   3.877  16.012 -0.2808  0.2064 -0.0054
 2628POPC   C2B31798  17.951   3.786  16.451 -0.0773  0.0687 -0.1626
 2628POPC   C3B31799  17.770   4.003  16.879 -0.2964  0.0233  0.1284
 2628POPC   C4B31800  18.017   4.051  17.263  0.2485 -0.0277 -0.1080
 2629POPC   NC331801   8.245  28.223  14.767  0.2315  0.2466  0.1075
 2629POPC   PO431802   8.446  28.561  14.810 -0.0365 -0.0106 -0.1365
 2629POPC   GL131803   8.313  28.436  15.215  0.2952  0.5615 -0.3752
 2629POPC   GL231804   8.317  28.133  15.252  0.0433  0.4024 -0.1458
 2629POPC   C1A31805   8.282  28.581  15.624 -0.0203 -0.0949  0.1504
 2629POPC   D2A31806   7.930  28.482  15.918  0.1939  0.0558  0.1246
 2629POPC   C3A31807   7.746  28.334  16.365 -0.1825  0.0570 -0.0875
 2629POPC   C4A31808   7.952  28.363  16.755  0.0628  0.3042 -0.0427
 2629POPC   C1B31809   8.515  28.027  15.712 -0.0211 -0.3611 -0.4927
 2629POPC   C2B31810   8.478  27.868  16.159  0.0123 -0.0515 -0.0346
 2629POPC   C3B31811   8.349  27.762  16.618 -0.1699  0.1794  0.1606
 2629POPC   C4B31812   8.131  27.464  16.928 -0.0032  0.0240  0.1059
 2630POPC   NC331813  15.425  28.395  15.837  0.0009  0.1792  0.0152
 2630POPC   PO431814  15.171  28.121  15.709  0.1580 -0.3696  0.1286
 2630POPC   GL131815  14.910  28.070  16.002 -0.1885  0.0046 -0.0960
 2630POPC   GL231816  14.973  28.382  16.101 -0.1813 -0.2382  0.0707
 2630POPC   C1A31817  14.740  28.063  16.455 -0.2341  0.1067 -0.1203
 2630POPC   D2A31818  14.572  28.297  16.823  0.0743  0.0253 -0.1353
 2630POPC   C3A31819  14.316  28.687  16.897  0.2159 -0.0200 -0.1179
 2630POPC   C4A31820  14.072  29.068  16.893 -0.0793 -0.1068  0.1699
 2630POPC   C1B31821  15.163  28.326  16.517 -0.1177  0.0953  0.2826
 2630POPC   C2B31822  15.080  28.477  16.925 -0.0983  0.2024 -0.2343
 2630POPC   C3B31823  14.782  28.566  17.270 -0.4166 -0.0404 -0.2756
 2630POPC   C4B31824  14.496  28.694  17.628 -0.0355  0.0724  0.2967
 2631POPC   NC331825  11.762  22.081  14.874  0.1058  0.1572  0.2271
 2631POPC   PO431826  11.890  22.391  15.060  0.1571  0.1126  0.0440
 2631POPC   GL131827  11.739  22.387  15.453  0.2198  0.3502 -0.2095
 2631POPC   GL231828  11.663  22.074  15.429 -0.0203  0.0042  0.2428
 2631POPC   C1A31829  11.787  22.576  15.820 -0.0416 -0.2361 -0.0070
 2631POPC   D2A31830  11.927  22.554  16.260  0.1961 -0.2646 -0.1841
 2631POPC   C3A31831  11.801  22.945  16.541  0.0716 -0.2784  0.1456
 2631POPC   C4A31832  11.704  23.125  16.982 -0.1727 -0.1537 -0.1435
 2631POPC   C1B31833  11.748  21.970  15.839 -0.2464  0.2849  0.1107
 2631POPC   C2B31834  12.039  21.923  16.257 -0.1804 -0.1416 -0.2250
 2631POPC   C3B31835  12.360  21.810  16.580  0.1376 -0.0189  0.1263
 2631POPC   C4B31836  12.477  21.397  16.764  0.1527  0.1466 -0.0407
 2632POPC   NC331837  27.239  15.236  15.092  0.1507  0.1449 -0.0460
 2632POPC   PO431838  26.851  15.360  15.133 -0.2569 -0.2086  0.0141
 2632POPC   GL131839  26.932  15.353  15.466  0.0715  0.0731  0.1126
 2632POPC   GL231840  26.627  15.455  15.588  0.0169  0.0870 -0.0579
 2632POPC   C1A31841  27.201  15.119  15.794  0.0317 -0.1091 -0.3728
 2632POPC   D2A31842  27.170  14.921  16.191  0.2369  0.0719  0.1023
 2632POPC   C3A31843  27.444  14.738  16.440  0.1266  0.0085 -0.1084
 2632POPC   C4A31844  27.843  14.739  16.618 -0.0528 -0.2668 -0.1656
 2632POPC   C1B31845  26.685  15.378  16.044  0.1927 -0.2179  0.4884
 2632POPC   C2B31846  26.744  15.410  16.459 -0.1521 -0.1718 -0.1812
 2632POPC   C3B31847  26.820  15.562  16.893  0.2949 -0.1356 -0.0388
 2632POPC   C4B31848  27.221  15.502  17.156  0.1077  0.3151  0.2325
 2633POPC   NC331849   2.461  15.218  14.886  0.2116 -0.1356 -0.1895
 2633POPC   PO431850   2.176  15.332  15.132 -0.1697  0.2868  0.1602
 2633POPC   GL131851   2.392  15.280  15.464 -0.0147 -0.0989  0.0479
 2633POPC   GL231852   2.654  15.179  15.453 -0.2302 -0.0355  0.1495
 2633POPC   C1A31853   2.616  15.469  15.857  0.0325 -0.4016 -0.0812
 2633POPC   D2A31854   2.502  15.715  16.227  0.3042  0.1043  0.0497
 2633POPC   C3A31855   2.702  16.119  16.283  0.3831  0.0247  0.1163
 2633POPC   C4A31856   2.935  16.492  16.160 -0.0743  0.1956 -0.0311
 2633POPC   C1B31857   2.806  14.974  15.898 -0.0114 -0.2427 -0.2632
 2633POPC   C2B31858   2.804  15.241  16.296 -0.0059 -0.1004 -0.1605
 2633POPC   C3B31859   2.838  15.680  16.549 -0.3458  0.1565  0.2840
 2633POPC   C4B31860   2.623  15.909  16.828  0.0580  0.0477  0.2199
 2634POPC   NC331861  14.234  15.779  15.078 -0.1066  0.2076  0.0378
 2634POPC   PO431862  14.295  16.061  15.364 -0.0148  0.1275 -0.1378
 2634POPC   GL131863  14.321  16.138  15.684  0.2655 -0.1680  0.0117
 2634POPC   GL231864  14.391  16.374  15.760  0.1581  0.0478 -0.1595
 2634POPC   C1A31865  14.196  15.993  16.100 -0.1770  0.2338 -0.0418
 2634POPC   D2A31866  14.271  15.841  16.542  0.4372  0.3541  0.3983
 2634POPC   C3A31867  14.350  15.987  16.912  0.0461  0.0415  0.1283
 2634POPC   C4A31868  14.725  16.073  17.090 -0.3743 -0.1258  0.0026
 2634POPC   C1B31869  14.222  16.559  16.180  0.0464  0.1980  0.1979
 2634POPC   C2B31870  14.131  16.578  16.626  0.2708  0.1180 -0.1345
 2634POPC   C3B31871  13.867  16.536  16.987 -0.1183  0.0553 -0.1847
 2634POPC   C4B31872  13.512  16.269  16.975 -0.0595  0.1340 -0.1361
 2635POPC   NC331873   4.977  22.001  15.452  0.3488 -0.2600  0.0829
 2635POPC   PO431874   4.788  21.726  15.563 -0.0289  0.4176 -0.4415
 2635POPC   GL131875   5.185  21.640  15.792  0.2310  0.0763  0.0373
 2635POPC   GL231876   5.093  21.569  16.047 -0.1185  0.0618  0.0171
 2635POPC   C1A31877   5.542  21.749  16.158  0.0960 -0.1615  0.3067
 2635POPC   D2A31878   5.846  21.767  16.463 -0.0682 -0.1174  0.0837
 2635POPC   C3A31879   5.798  22.102  16.788 -0.2067  0.1833 -0.0214
 2635POPC   C4A31880   5.432  22.158  16.981 -0.0992 -0.2928 -0.0606
 2635POPC   C1B31881   4.851  21.361  16.415  0.1960 -0.3675  0.1272
 2635POPC   C2B31882   4.856  21.418  16.889 -0.2812 -0.0723  0.2520
 2635POPC   C3B31883   4.812  21.275  17.328  0.3499  0.1912  0.1886
 2635POPC   C4B31884   4.435  21.076  17.528 -0.1988 -0.1665  0.3052
 2636POPC   NC331885  17.874   1.959  15.194  0.0918  0.0070 -0.0269
 2636POPC   PO431886  17.741   2.293  15.362 -0.1032  0.1192  0.0454
 2636POPC   GL131887  17.547   2.310  15.688 -0.0712 -0.2270 -0.3328
 2636POPC   GL231888  17.271   2.463  15.707 -0.0509  0.1394 -0.1753
 2636POPC   C1A31889  17.537   2.113  16.123  0.1172  0.0911 -0.1027
 2636POPC   D2A31890  17.591   2.120  16.546 -0.0129  0.2198  0.2050
 2636POPC   C3A31891  17.769   1.907  16.926  0.1984 -0.1556  0.0138
 2636POPC   C4A31892  17.620   1.801  17.351 -0.0006 -0.4525 -0.0801
 2636POPC   C1B31893  17.061   2.356  16.074 -0.0800  0.2262 -0.0519
 2636POPC   C2B31894  16.806   2.141  16.353  0.3191  0.1355  0.1610
 2636POPC   C3B31895  16.473   2.014  16.657  0.1009 -0.4062  0.1505
 2636POPC   C4B31896  16.482   2.024  17.117  0.2665 -0.1886  0.0604
 2637POPC   NC331897   7.452   1.139  15.017 -0.3062  0.1461  0.0134
 2637POPC   PO431898   7.416   0.724  15.065  0.0462 -0.0618  0.0726
 2637POPC   GL131899   7.276   0.784  15.510  0.3760 -0.0202  0.3483
 2637POPC   GL231900   6.943   0.875  15.506  0.0750 -0.3731 -0.2916
 2637POPC   C1A31901   7.208   0.883  15.969 -0.0700 -0.2564  0.3019
 2637POPC   D2A31902   7.109   0.739  16.398  0.0233 -0.0862  0.1012
 2637POPC   C3A31903   7.278   0.790  16.858  0.2816 -0.4852 -0.0525
 2637POPC   C4A31904   7.358   0.943  17.242 -0.2708 -0.3076 -0.0597
 2637POPC   C1B31905   6.543   1.066  15.762  0.3124 -0.3397  0.2526
 2637POPC   C2B31906   6.344   1.283  16.135 -0.3170 -0.0012 -0.1315
 2637POPC   C3B31907   6.023   1.243  16.469  0.0655  0.0296  0.0215
 2637POPC   C4B31908   5.747   1.314  16.832 -0.0638  0.2197 -0.0947
 2638POPC   NC331909  15.516  30.513  14.839 -0.1905  0.1513 -0.1433
 2638POPC   PO431910  15.309  30.519  15.142  0.1405  0.1936  0.1667
 2638POPC   GL131911  15.298  30.593  15.541  0.1005  0.0049  0.1547
 2638POPC   GL231912  15.293  30.288  15.606  0.0273  0.0820 -0.0407
 2638POPC   C1A31913  15.406  31.031  15.657 -0.0557  0.0716  0.1910
 2638POPC   D2A31914  15.462  31.414  15.861  0.0220 -0.0830 -0.0395
 2638POPC   C3A31915  15.462  31.640  16.242  0.1431  0.0627 -0.0181
 2638POPC   C4A31916  15.723  32.025  16.379  0.1576  0.1831  0.0388
 2638POPC   C1B31917  15.146  30.588  15.934 -0.0890 -0.2382 -0.1475
 2638POPC   C2B31918  15.170  30.955  16.168  0.0806 -0.0360  0.0355
 2638POPC   C3B31919  15.260  31.260  16.505 -0.4392  0.3545  0.0647
 2638POPC   C4B31920  15.178  31.620  16.839 -0.0023 -0.1378  0.0292
 2639POPC   NC331921  19.997   3.205  15.090  0.2882 -0.1561  0.0864
 2639POPC   PO431922  19.637   3.336  15.177 -0.0499 -0.2026 -0.1889
 2639POPC   GL131923  19.743   3.428  15.511 -0.0010 -0.0717 -0.2841
 2639POPC   GL231924  19.897   3.148  15.669  0.0779 -0.0437  0.0001
 2639POPC   C1A31925  19.636   3.519  16.011  0.0750 -0.0778  0.0698
 2639POPC   D2A31926  19.741   3.562  16.453  0.0930  0.1915 -0.0222
 2639POPC   C3A31927  20.086   3.757  16.700  0.3332 -0.1923 -0.1438
 2639POPC   C4A31928  20.290   3.909  17.087  0.0757 -0.3702 -0.0729
 2639POPC   C1B31929  20.042   3.249  16.111 -0.0073  0.1067  0.1450
 2639POPC   C2B31930  20.067   3.114  16.525  0.1012  0.0803  0.0054
 2639POPC   C3B31931  19.885   3.287  16.940  0.3065 -0.0596  0.2494
 2639POPC   C4B31932  20.024   3.548  17.212 -0.0060 -0.2474  0.0046
 2640POPC   NC331933  31.617   5.133  15.981 -0.2524 -0.4032  0.0372
 2640POPC   PO431934  31.285   4.910  15.857 -0.0835  0.1596  0.1818
 2640POPC   GL131935  31.053   4.866  16.131 -0.2753  0.0941  0.1859
 2640POPC   GL231936  31.273   5.001  16.355  0.1144  0.0549  0.0242
 2640POPC   C1A31937  30.668   4.813  16.412 -0.0031  0.1504 -0.0421
 2640POPC   D2A31938  30.578   4.786  16.848 -0.0531  0.0420 -0.1128
 2640POPC   C3A31939  30.247   4.532  16.969 -0.2661 -0.4742 -0.0720
 2640POPC   C4A31940  30.169   4.162  17.256 -0.1041  0.1539  0.0252
 2640POPC   C1B31941  30.973   5.041  16.702 -0.5431 -0.0172  0.0694
 2640POPC   C2B31942  30.682   5.249  17.037 -0.2111  0.4506 -0.0032
 2640POPC   C3B31943  30.381   5.247  17.372  0.1602 -0.0315  0.0813
 2640POPC   C4B31944  30.183   5.447  17.740 -0.1183  0.0521  0.2770
 2641POPC   NC331945   6.584  19.094  15.468  0.0499 -0.2501 -0.3518
 2641POPC   PO431946   6.418  19.428  15.384  0.0238  0.1664 -0.2168
 2641POPC   GL131947   6.409  19.436  15.788  0.1096 -0.1521 -0.0072
 2641POPC   GL231948   6.380  19.203  16.036 -0.0502 -0.1716 -0.0041
 2641POPC   C1A31949   6.214  19.728  16.057  0.1380  0.0717  0.0063
 2641POPC   D2A31950   5.901  20.096  16.135 -0.1835  0.2883  0.2364
 2641POPC   C3A31951   5.686  20.238  16.538 -0.1446 -0.1226 -0.0567
 2641POPC   C4A31952   5.651  20.195  17.027 -0.0696  0.2604  0.2019
 2641POPC   C1B31953   6.215  19.326  16.389 -0.0615  0.3698 -0.0694
 2641POPC   C2B31954   6.102  19.126  16.760  0.1193 -0.1460 -0.0329
 2641POPC   C3B31955   6.123  19.048  17.250  0.0841 -0.0279 -0.1715
 2641POPC   C4B31956   6.230  19.044  17.734  0.0451  0.0719  0.0626
 2642POPC   NC331957  27.777   6.877  14.365 -0.2059 -0.2870 -0.0070
 2642POPC   PO431958  27.569   6.726  14.651  0.0951  0.1627 -0.0645
 2642POPC   GL131959  27.858   6.998  14.799 -0.0975  0.0678 -0.1197
 2642POPC   GL231960  28.065   6.763  14.728 -0.2103 -0.0272  0.4932
 2642POPC   C1A31961  27.914   6.742  15.219 -0.1721  0.3642  0.1978
 2642POPC   D2A31962  28.016   6.473  15.599 -0.0761 -0.1324 -0.2258
 2642POPC   C3A31963  28.344   6.762  15.743 -0.2567  0.0010 -0.1404
 2642POPC   C4A31964  28.631   6.936  16.071  0.1903  0.0191  0.1147
 2642POPC   C1B31965  28.247   7.115  14.546  0.0157  0.0583 -0.1740
 2642POPC   C2B31966  28.435   7.428  14.306 -0.1230  0.1616  0.1728
 2642POPC   C3B31967  28.828   7.672  14.423  0.1081  0.2304 -0.0974
 2642POPC   C4B31968  29.276   7.753  14.413  0.0654  0.1305 -0.3984
 2643POPC   NC331969  12.521  20.796  15.162 -0.2730  0.1181  0.0734
 2643POPC   PO431970  12.669  20.433  15.071 -0.1481 -0.3271  0.1589
 2643POPC   GL131971  12.806  20.312  15.422 -0.2130 -0.0769  0.3384
 2643POPC   GL231972  13.061  20.396  15.381  0.0360 -0.1279 -0.1276
 2643POPC   C1A31973  12.573  20.237  15.793 -0.0368  0.0628 -0.0811
 2643POPC   D2A31974  12.443  19.816  15.977 -0.1048 -0.0403 -0.0393
 2643POPC   C3A31975  12.334  19.663  16.395  0.0932  0.1590  0.1816
 2643POPC   C4A31976  12.215  19.500  16.794  0.0647  0.2498 -0.0653
 2643POPC   C1B31977  13.248  20.196  15.767 -0.0747  0.0545  0.3028
 2643POPC   C2B31978  13.274  20.145  16.206 -0.3821  0.0865 -0.3306
 2643POPC   C3B31979  13.270  19.921  16.610 -0.1299 -0.2437  0.0957
 2643POPC   C4B31980  13.075  19.660  16.972  0.1115 -0.2773 -0.0426
 2644POPC   NC331981  11.207  30.261  15.402  0.0178 -0.1097  0.1467
 2644POPC   PO431982  11.470  29.939  15.512  0.0153  0.0965 -0.2347
 2644POPC   GL131983  11.728  30.021  15.719 -0.1231  0.0440  0.2350
 2644POPC   GL231984  11.968  29.873  15.870 -0.0123  0.0601 -0.2303
 2644POPC   C1A31985  11.750  30.478  15.774 -0.3129  0.1951  0.0506
 2644POPC   D2A31986  11.888  30.803  16.070 -0.4862 -0.0312 -0.2401
 2644POPC   C3A31987  12.127  31.162  16.243  0.3354 -0.0945  0.3295
 2644POPC   C4A31988  12.574  31.234  16.246 -0.0079  0.0854 -0.1927
 2644POPC   C1B31989  11.721  30.123  16.177  0.2524 -0.1717 -0.0259
 2644POPC   C2B31990  11.550  30.116  16.638 -0.2095  0.0058  0.0349
 2644POPC   C3B31991  11.478  30.577  16.803  0.2435  0.0163 -0.1593
 2644POPC   C4B31992  11.598  31.023  16.983 -0.5578 -0.3858  0.2623
 2645POPC   NC331993  10.827  21.703  15.462  0.1263  0.1086  0.0492
 2645POPC   PO431994  10.462  21.542  15.424  0.2497 -0.3894  0.0025
 2645POPC   GL131995  10.559  21.365  15.729 -0.1260  0.2194 -0.1818
 2645POPC   GL231996  10.821  21.374  15.816  0.0989  0.1299 -0.1556
 2645POPC   C1A31997  10.326  21.272  16.095 -0.3619 -0.2267  0.1386
 2645POPC   D2A31998  10.181  21.525  16.370  0.0024 -0.1277  0.0703
 2645POPC   C3A31999  10.146  21.470  16.859 -0.0442  0.1106  0.0034
 2645POPC   C4A32000  10.150  21.546  17.280  0.2741 -0.1125  0.1180
 2645POPC   C1B32001  11.107  21.419  16.208  0.0319 -0.2635  0.2265
 2645POPC   C2B32002  11.187  21.284  16.611  0.0223  0.0093  0.1318
 2645POPC   C3B32003  11.476  21.405  16.961 -0.0374  0.0236  0.1131
 2645POPC   C4B32004  11.793  21.537  17.315  0.1927 -0.3345 -0.0968
 2646POPC   NC332005  16.789  23.486  14.843  0.1484  0.1668  0.2777
 2646POPC   PO432006  17.108  23.306  14.891 -0.0151  0.3981 -0.0892
 2646POPC   GL132007  17.265  23.430  15.329  0.2721  0.0610 -0.0918
 2646POPC   GL232008  17.371  23.746  15.353 -0.4486 -0.2766 -0.0529
 2646POPC   C1A32009  17.035  23.496  15.717  0.1726  0.0000  0.1463
 2646POPC   D2A32010  16.860  23.418  16.111  0.0713 -0.1447 -0.1510
 2646POPC   C3A32011  17.002  22.993  16.266 -0.0997  0.0865  0.1227
 2646POPC   C4A32012  17.252  22.604  16.238 -0.2207 -0.1180  0.1745
 2646POPC   C1B32013  17.373  23.830  15.819 -0.1357  0.2812  0.0970
 2646POPC   C2B32014  17.269  23.633  16.197  0.1746 -0.0742  0.0375
 2646POPC   C3B32015  17.125  23.538  16.602 -0.0148  0.0328  0.0198
 2646POPC   C4B32016  16.976  23.824  16.950 -0.3162  0.0336 -0.0107
 2647POPC   NC332017  25.891   8.784  15.169  0.0504 -0.1665 -0.3723
 2647POPC   PO432018  25.753   9.151  15.201  0.0738 -0.1163 -0.4222
 2647POPC   GL132019  25.641   9.172  15.537 -0.2880 -0.1832 -0.0857
 2647POPC   GL232020  25.667   8.875  15.642  0.3253  0.1645 -0.2200
 2647POPC   C1A32021  25.452   9.208  15.980  0.2405 -0.0322  0.2733
 2647POPC   D2A32022  25.172   9.162  16.375  0.1054 -0.2239 -0.1667
 2647POPC   C3A32023  25.381   9.327  16.806 -0.0049 -0.2832  0.2407
 2647POPC   C4A32024  25.578   9.661  17.008  0.1904  0.2343  0.0529
 2647POPC   C1B32025  25.275   8.791  15.839  0.0041  0.2768 -0.0834
 2647POPC   C2B32026  25.171   8.698  16.285  0.2208  0.0478 -0.0229
 2647POPC   C3B32027  24.999   8.353  16.614 -0.4330 -0.3672 -0.3473
 2647POPC   C4B32028  24.799   8.465  17.020  0.1109 -0.0812  0.1467
 2648POPC   NC332029  18.336  19.801  15.353 -0.1158  0.1093 -0.1748
 2648POPC   PO432030  18.292  19.441  15.587  0.0978  0.3202 -0.1726
 2648POPC   GL132031  18.477  19.325  15.943  0.3432  0.0543 -0.1302
 2648POPC   GL232032  18.464  19.609  16.096 -0.2964 -0.0592  0.1164
 2648POPC   C1A32033  18.930  19.243  16.035  0.1597 -0.0848 -0.1602
 2648POPC   D2A32034  19.355  19.360  16.284  0.0940  0.2742  0.0909
 2648POPC   C3A32035  19.347  19.158  16.703  0.2212  0.2224  0.1565
 2648POPC   C4A32036  19.389  19.289  17.087 -0.0931 -0.3988  0.1641
 2648POPC   C1B32037  18.107  19.697  16.479 -0.4951  0.1141 -0.2651
 2648POPC   C2B32038  17.916  19.697  16.871 -0.0932  0.2156 -0.0890
 2648POPC   C3B32039  17.813  19.760  17.319  0.0855 -0.0154  0.0170
 2648POPC   C4B32040  17.579  19.629  17.647 -0.0011 -0.1730 -0.0747
 2649POPC   NC332041  10.391  26.135  14.873  0.0450 -0.2014  0.0048
 2649POPC   PO432042  10.419  26.416  15.143 -0.0130  0.0014  0.2895
 2649POPC   GL132043  10.365  26.214  15.488  0.0944 -0.1946  0.0186
 2649POPC   GL232044  10.090  26.217  15.490 -0.0656 -0.0868  0.2632
 2649POPC   C1A32045  10.759  26.099  15.730  0.3865  0.2973 -0.0064
 2649POPC   D2A32046  10.952  26.177  16.143  0.1671  0.0498 -0.2139
 2649POPC   C3A32047  11.104  25.888  16.442  0.0629 -0.0596 -0.1528
 2649POPC   C4A32048  11.263  25.645  16.834 -0.0515 -0.2094 -0.0445
 2649POPC   C1B32049  10.112  26.415  15.896 -0.2531 -0.0214 -0.2454
 2649POPC   C2B32050  10.405  26.754  16.044 -0.2095 -0.0292  0.3115
 2649POPC   C3B32051  10.351  27.125  16.355 -0.0807 -0.1448 -0.3128
 2649POPC   C4B32052  10.062  27.276  16.694 -0.2392  0.2304  0.2051
 2650POPC   NC332053   5.944  30.724  15.007  0.0273  0.0743  0.1955
 2650POPC   PO432054   5.809  30.765  15.363  0.0052 -0.1816 -0.5741
 2650POPC   GL132055   5.597  30.718  15.765  0.1624 -0.0483 -0.0767
 2650POPC   GL232056   5.528  30.414  15.703  0.1849 -0.0275 -0.4362
 2650POPC   C1A32057   5.619  30.707  16.204 -0.0561 -0.2628  0.1533
 2650POPC   D2A32058   5.830  30.605  16.561 -0.2395 -0.0672  0.1886
 2650POPC   C3A32059   5.865  30.270  16.872  0.1319  0.1019  0.1520
 2650POPC   C4A32060   6.224  30.107  17.064  0.0046 -0.1283 -0.1522
 2650POPC   C1B32061   5.363  30.316  16.166  0.0397  0.1530 -0.2288
 2650POPC   C2B32062   5.311  30.509  16.602  0.1116 -0.1148 -0.2416
 2650POPC   C3B32063   5.138  30.593  17.014 -0.0993  0.0549  0.2018
 2650POPC   C4B32064   5.350  30.778  17.428 -0.1384  0.0927  0.2656
 2651POPC   NC332065   1.926  29.832  14.349  0.1658 -0.0168 -0.0490
 2651POPC   PO432066   1.802  30.005  14.695 -0.0171 -0.0435 -0.1069
 2651POPC   GL132067   1.831  30.115  15.045  0.3824  0.2510 -0.1982
 2651POPC   GL232068   1.575  29.997  15.238 -0.1121  0.1864  0.4199
 2651POPC   C1A32069   2.056  29.956  15.397  0.0574 -0.0662  0.1362
 2651POPC   D2A32070   1.970  29.909  15.830 -0.1240 -0.1722 -0.1067
 2651POPC   C3A32071   2.065  30.019  16.264  0.0883 -0.4108 -0.0475
 2651POPC   C4A32072   2.509  30.168  16.375  0.0621 -0.0875  0.1897
 2651POPC   C1B32073   1.636  30.176  15.632  0.2562  0.0133  0.1080
 2651POPC   C2B32074   1.743  30.344  16.056 -0.0036 -0.2381 -0.1116
 2651POPC   C3B32075   1.862  30.469  16.476 -0.1548 -0.0622  0.0762
 2651POPC   C4B32076   2.094  30.408  16.898  0.1838  0.2782 -0.3068
 2652POPC   NC332077  31.309  11.647  15.389  0.1157 -0.1601  0.0567
 2652POPC   PO432078  31.635  11.484  15.446 -0.1648 -0.0792  0.0172
 2652POPC   GL132079  31.415  11.523  15.781  0.0337 -0.1108 -0.4340
 2652POPC   GL232080  31.297  11.712  15.982 -0.0539  0.2725 -0.2163
 2652POPC   C1A32081  31.526  11.395  16.259  0.2369  0.0432  0.0574
 2652POPC   D2A32082  31.433  11.188  16.636 -0.0955  0.0703 -0.1692
 2652POPC   C3A32083  31.606  11.110  17.089  0.0568 -0.1961 -0.0316
 2652POPC   C4A32084  32.001  10.990  17.183 -0.0045 -0.0312 -0.1515
 2652POPC   C1B32085  31.012  11.645  16.341  0.1176  0.2042 -0.2825
 2652POPC   C2B32086  30.896  11.771  16.756  0.2661 -0.0110 -0.2241
 2652POPC   C3B32087  30.951  11.981  17.206 -0.0823 -0.1572  0.3753
 2652POPC   C4B32088  30.964  12.138  17.630  0.1253 -0.1612  0.0097
 2653POPC   NC332089  16.582  10.355  14.613 -0.0768 -0.0946  0.2671
 2653POPC   PO432090  16.223  10.486  14.502 -0.1923 -0.1525 -0.4242
 2653POPC   GL132091  16.020  10.733  14.676  0.1746 -0.1770 -0.2902
 2653POPC   GL232092  15.888  10.587  14.910  0.2529  0.0642 -0.2256
 2653POPC   C1A32093  15.959  11.042  15.063 -0.2732  0.0673  0.0323
 2653POPC   D2A32094  15.631  11.371  15.126 -0.1323 -0.3127  0.3163
 2653POPC   C3A32095  15.223  11.421  14.937 -0.1549 -0.2481 -0.2856
 2653POPC   C4A32096  14.808  11.523  14.741  0.2547 -0.0954 -0.1787
 2653POPC   C1B32097  15.440  10.745  15.063 -0.0986 -0.1039  0.1310
 2653POPC   C2B32098  14.940  10.815  15.093  0.0755 -0.2728 -0.3771
 2653POPC   C3B32099  14.675  10.985  15.476 -0.1389 -0.0200  0.1285
 2653POPC   C4B32100  14.356  11.301  15.642  0.2886  0.0386 -0.2634
 2654POPC   NC332101  31.642   1.075  15.171  0.0710 -0.0801  0.0331
 2654POPC   PO432102  31.966   1.015  15.428  0.1358 -0.2194  0.0680
 2654POPC   GL132103  31.872   1.053  15.789  0.1283 -0.2241  0.2210
 2654POPC   GL232104  31.850   0.721  15.869 -0.3527  0.0190  0.0476
 2654POPC   C1A32105  32.257   0.941  16.037 -0.1548 -0.2590 -0.1560
 2654POPC   D2A32106  32.397   0.837  16.456 -0.0313  0.3265 -0.0726
 2654POPC   C3A32107  32.384   1.098  16.826  0.0158  0.0545  0.1111
 2654POPC   C4A32108  32.359   1.261  17.244  0.0140 -0.0482  0.3297
 2654POPC   C1B32109  31.973   0.647  16.256 -0.0267 -0.4666  0.1397
 2654POPC   C2B32110  32.010   0.675  16.662 -0.1187 -0.0391  0.0187
 2654POPC   C3B32111  32.303   0.612  16.948 -0.0141  0.0536 -0.0940
 2654POPC   C4B32112  32.556   0.786  17.327 -0.0016 -0.2837  0.1671
 2655POPC   NC332113  20.573  23.198  15.111  0.1208  0.0463  0.0329
 2655POPC   PO432114  20.273  23.449  15.098 -0.0209  0.0387  0.1196
 2655POPC   GL132115  20.214  23.464  15.487 -0.0920 -0.1128  0.0703
 2655POPC   GL232116  20.162  23.745  15.506 -0.1574 -0.1491  0.1327
 2655POPC   C1A32117  20.173  23.476  15.958  0.4274  0.2238 -0.0364
 2655POPC   D2A32118  19.842  23.679  16.264 -0.0277 -0.0144  0.0629
 2655POPC   C3A32119  19.593  23.501  16.619  0.1397  0.0277  0.5437
 2655POPC   C4A32120  19.705  23.296  17.007  0.2742  0.1137 -0.1027
 2655POPC   C1B32121  20.317  23.930  15.896  0.5197 -0.0588  0.1263
 2655POPC   C2B32122  20.378  23.902  16.382 -0.4540  0.0462  0.0746
 2655POPC   C3B32123  20.505  23.716  16.802  0.1926 -0.0030  0.2475
 2655POPC   C4B32124  20.630  23.364  17.061 -0.1463  0.0900 -0.1332
 2656POPC   NC332125   0.301  10.753  15.771 -0.1325 -0.0389  0.0127
 2656POPC   PO432126   0.134  10.770  15.404  0.0642  0.0278 -0.1111
 2656POPC   GL132127  -0.043  11.068  15.744 -0.0652  0.1511  0.1360
 2656POPC   GL232128   0.128  11.267  15.853  0.1743 -0.3157  0.1064
 2656POPC   C1A32129  -0.376  10.996  16.066  0.0745 -0.1121 -0.2604
 2656POPC   D2A32130  -0.417  10.658  16.395 -0.0412 -0.1959  0.0186
 2656POPC   C3A32131  -0.163  10.639  16.796 -0.0925  0.2080  0.0286
 2656POPC   C4A32132  -0.050  10.594  17.224 -0.3566 -0.0956  0.1125
 2656POPC   C1B32133   0.351  11.379  16.229 -0.0871  0.0483  0.2311
 2656POPC   C2B32134   0.310  11.455  16.666  0.1986 -0.1137 -0.1154
 2656POPC   C3B32135   0.168  11.528  17.096  0.1423 -0.3875  0.2394
 2656POPC   C4B32136   0.255  11.432  17.491 -0.0100 -0.0539 -0.4079
 2657POPC   NC332137  25.003  20.603  14.492  0.0404  0.2536 -0.1295
 2657POPC   PO432138  25.163  20.811  14.817 -0.1550  0.2168  0.1755
 2657POPC   GL132139  25.189  20.713  15.244  0.2121  0.0020  0.2306
 2657POPC   GL232140  24.982  20.826  15.311  0.0301  0.1155 -0.0504
 2657POPC   C1A32141  25.415  20.709  15.676  0.3415 -0.0099 -0.0257
 2657POPC   D2A32142  25.408  20.865  16.090 -0.1205  0.2547 -0.2800
 2657POPC   C3A32143  25.506  20.759  16.605 -0.3816 -0.2028 -0.0594
 2657POPC   C4A32144  25.759  20.654  16.971  0.1191 -0.1312 -0.1962
 2657POPC   C1B32145  24.924  21.051  15.708 -0.2528  0.0508  0.0220
 2657POPC   C2B32146  24.612  21.250  15.972  0.0591  0.0965 -0.0968
 2657POPC   C3B32147  24.425  21.151  16.394  0.0430  0.0035 -0.0078
 2657POPC   C4B32148  24.193  20.883  16.743  0.3499 -0.3661 -0.0244
 2658POPC   NC332149   4.820  18.883  14.973  0.0664 -0.0864  0.0275
 2658POPC   PO432150   4.586  18.542  14.939  0.2851  0.0379 -0.1243
 2658POPC   GL132151   4.524  18.573  15.340  0.2436 -0.0401  0.3399
 2658POPC   GL232152   4.241  18.501  15.356  0.1662  0.2394 -0.0962
 2658POPC   C1A32153   4.570  18.183  15.654 -0.3872  0.0821 -0.3903
 2658POPC   D2A32154   4.476  18.045  16.041 -0.0435 -0.4087  0.1541
 2658POPC   C3A32155   4.039  18.147  16.060 -0.2066 -0.2556 -0.0411
 2658POPC   C4A32156   3.604  18.250  16.149  0.2917 -0.1792  0.1638
 2658POPC   C1B32157   3.855  18.250  15.298  0.0656  0.0070  0.0872
 2658POPC   C2B32158   3.537  17.977  15.197 -0.1881  0.0331  0.1283
 2658POPC   C3B32159   3.397  17.597  15.237 -0.0106  0.1105 -0.1624
 2658POPC   C4B32160   3.247  17.233  15.438  0.0371 -0.0002 -0.0129
 2659POPC   NC332161  18.839   3.337  14.897 -0.0857  0.2306  0.2379
 2659POPC   PO432162  18.658   3.564  15.169 -0.1766  0.1565 -0.0852
 2659POPC   GL132163  18.844   3.629  15.472  0.1119 -0.2643 -0.2370
 2659POPC   GL232164  18.779   3.887  15.509  0.0181  0.0964  0.1474
 2659POPC   C1A32165  18.843   3.677  15.922  0.1513  0.1562  0.2726
 2659POPC   D2A32166  18.860   3.617  16.362  0.1186  0.1409  0.2244
 2659POPC   C3A32167  19.187   3.514  16.708 -0.3956 -0.1699 -0.0292
 2659POPC   C4A32168  19.281   3.107  16.947  0.3189 -0.1152  0.1459
 2659POPC   C1B32169  19.035   4.155  15.810 -0.2808  0.1905 -0.0708
 2659POPC   C2B32170  19.280   4.438  16.093  0.4498 -0.1440 -0.0215
 2659POPC   C3B32171  19.379   4.409  16.550 -0.1206  0.0204 -0.0258
 2659POPC   C4B32172  19.525   4.580  16.925 -0.1560  0.0501  0.0939
 2660POPC   NC332173  25.664  31.623  15.335  0.4095  0.1711  0.0519
 2660POPC   PO432174  25.711  31.962  15.230 -0.2364  0.2118  0.1635
 2660POPC   GL132175  25.851  32.048  15.595 -0.3037  0.2251 -0.0459
 2660POPC   GL232176  25.845  31.848  15.772 -0.0174 -0.4349 -0.3123
 2660POPC   C1A32177  26.209  32.149  15.875  0.0155  0.1148 -0.0657
 2660POPC   D2A32178  26.590  32.035  16.055 -0.0593  0.0391 -0.1828
 2660POPC   C3A32179  26.664  32.070  16.503 -0.1598 -0.4202 -0.1658
 2660POPC   C4A32180  26.814  32.055  16.951  0.1042  0.1608  0.1474
 2660POPC   C1B32181  26.024  31.808  16.214 -0.1601 -0.0592 -0.0812
 2660POPC   C2B32182  26.198  31.945  16.607  0.2554  0.2132  0.0689
 2660POPC   C3B32183  26.267  31.974  17.093 -0.0563  0.1934 -0.2386
 2660POPC   C4B32184  26.274  31.865  17.599  0.2172 -0.1296 -0.2136
 2661POPC   NC332185   7.012  16.203  14.993  0.0456 -0.0304 -0.0854
 2661POPC   PO432186   7.228  16.281  15.328  0.3640  0.0149 -0.3617
 2661POPC   GL132187   7.211  16.594  15.564 -0.1109 -0.1176  0.0142
 2661POPC   GL232188   7.236  16.420  15.827  0.0346 -0.1609 -0.0556
 2661POPC   C1A32189   7.153  16.939  15.891 -0.0000 -0.0180 -0.1081
 2661POPC   D2A32190   7.135  17.336  16.117  0.0661  0.1928 -0.1989
 2661POPC   C3A32191   7.217  17.328  16.592 -0.4725  0.0785 -0.2092
 2661POPC   C4A32192   6.987  17.048  16.929  0.0836 -0.2067 -0.2772
 2661POPC   C1B32193   7.619  16.438  16.103  0.1909  0.1923 -0.2356
 2661POPC   C2B32194   7.614  16.609  16.500  0.0096 -0.1577  0.5762
 2661POPC   C3B32195   7.484  16.971  16.801  0.1215 -0.1953  0.0051
 2661POPC   C4B32196   7.393  17.284  17.084 -0.1667  0.0945  0.0093
 2662POPC   NC332197  24.856   1.486  15.695 -0.0338 -0.3678 -0.2399
 2662POPC   PO432198  25.083   1.667  15.455 -0.0823 -0.2043  0.0041
 2662POPC   GL132199  25.332   1.686  15.737  0.2468 -0.2489 -0.1584
 2662POPC   GL232200  25.521   1.473  15.775 -0.0181  0.1393 -0.0314
 2662POPC   C1A32201  25.235   1.546  16.192 -0.1198 -0.1953  0.1359
 2662POPC   D2A32202  25.178   1.425  16.658  0.0182 -0.2799  0.1364
 2662POPC   C3A32203  24.991   1.766  16.860 -0.3024 -0.2455  0.0830
 2662POPC   C4A32204  24.694   2.158  16.852 -0.0001  0.2067  0.1505
 2662POPC   C1B32205  25.654   1.878  16.026 -0.0950  0.0158  0.0170
 2662POPC   C2B32206  25.868   2.115  16.382  0.2129 -0.0941  0.0085
 2662POPC   C3B32207  25.946   1.880  16.741 -0.0920 -0.1681  0.0114
 2662POPC   C4B32208  26.011   1.431  16.835 -0.3706  0.2220  0.3035
 2663POPC   NC332209  23.464  11.203  15.721  0.2994 -0.2454 -0.1532
 2663POPC   PO432210  23.281  10.903  15.530 -0.0196 -0.0135  0.2999
 2663POPC   GL132211  23.246  10.679  15.867  0.0181  0.0810 -0.1331
 2663POPC   GL232212  23.376  10.405  15.764  0.0930  0.1192 -0.0764
 2663POPC   C1A32213  23.473  10.564  16.261 -0.0273  0.0570  0.0947
 2663POPC   D2A32214  23.567  10.656  16.730 -0.0231  0.2724  0.4804
 2663POPC   C3A32215  23.448  10.357  17.002  0.1973  0.0983 -0.0874
 2663POPC   C4A32216  23.305  10.232  17.412 -0.0184 -0.1212  0.0152
 2663POPC   C1B32217  23.367  10.049  16.137  0.1571 -0.0080 -0.0994
 2663POPC   C2B32218  23.222   9.932  16.588 -0.0238  0.0498 -0.0730
 2663POPC   C3B32219  23.004  10.008  17.022  0.3824  0.1023 -0.2816
 2663POPC   C4B32220  22.664  10.206  17.382  0.0734 -0.3263  0.1846
 2664POPC   NC332221   7.383   1.756  15.627 -0.1483 -0.1401 -0.1757
 2664POPC   PO432222   7.447   1.436  15.395 -0.0860  0.0366 -0.1307
 2664POPC   GL132223   7.491   1.248  15.770 -0.0809 -0.2718 -0.2324
 2664POPC   GL232224   7.679   1.033  15.885  0.1224  0.0709  0.0665
 2664POPC   C1A32225   7.560   1.404  16.203 -0.1147 -0.0846 -0.2715
 2664POPC   D2A32226   7.485   1.076  16.565 -0.2136 -0.1499 -0.1805
 2664POPC   C3A32227   7.757   0.961  16.942  0.4235  0.0488  0.1025
 2664POPC   C4A32228   8.077   1.072  17.243  0.1344 -0.0907  0.1652
 2664POPC   C1B32229   7.918   0.851  16.206 -0.0676 -0.0049 -0.2683
 2664POPC   C2B32230   8.056   0.705  16.580  0.0736 -0.0586 -0.2664
 2664POPC   C3B32231   8.128   0.581  17.024 -0.3084  0.2363 -0.0153
 2664POPC   C4B32232   7.804   0.677  17.414  0.0804 -0.0621 -0.2351
 2665POPC   NC332233   1.685  30.598  15.209 -0.1585  0.0616  0.0501
 2665POPC   PO432234   1.535  30.957  15.118 -0.4361 -0.0702 -0.1349
 2665POPC   GL132235   1.513  30.974  15.451  0.1036 -0.1549 -0.1599
 2665POPC   GL232236   1.630  30.778  15.659 -0.1845 -0.0180 -0.1883
 2665POPC   C1A32237   1.873  31.180  15.703  0.1148  0.0285  0.1071
 2665POPC   D2A32238   2.099  31.252  16.099  0.0574 -0.3254 -0.3766
 2665POPC   C3A32239   2.056  31.020  16.508  0.2718  0.0534  0.2237
 2665POPC   C4A32240   1.823  30.835  16.893  0.0363 -0.1089 -0.0861
 2665POPC   C1B32241   1.750  30.831  16.045  0.4661 -0.1864 -0.0224
 2665POPC   C2B32242   1.542  30.982  16.488 -0.0407  0.0456  0.1299
 2665POPC   C3B32243   1.462  31.251  16.881 -0.0569 -0.3551  0.2131
 2665POPC   C4B32244   1.162  31.481  17.190  0.0251  0.4412  0.2040
 2666POPC   NC332245  22.365   5.765  15.316 -0.5279 -0.1413  0.0017
 2666POPC   PO432246  22.645   5.981  15.052 -0.0484 -0.1509  0.1747
 2666POPC   GL132247  22.950   5.713  15.236  0.3894  0.0529  0.0252
 2666POPC   GL232248  23.096   5.908  15.367 -0.1153  0.0358 -0.3470
 2666POPC   C1A32249  23.229   5.439  15.476  0.3060 -0.1668 -0.2901
 2666POPC   D2A32250  23.309   5.317  15.907  0.0547 -0.2162 -0.1101
 2666POPC   C3A32251  23.183   4.962  16.081  0.2342 -0.1044  0.0810
 2666POPC   C4A32252  23.028   4.624  16.353  0.1521 -0.1317 -0.0729
 2666POPC   C1B32253  23.176   5.896  15.804 -0.0602 -0.1629  0.1701
 2666POPC   C2B32254  23.090   5.753  16.234 -0.1807 -0.1005  0.1203
 2666POPC   C3B32255  22.799   5.567  16.506 -0.0568  0.1669  0.2315
 2666POPC   C4B32256  22.432   5.296  16.549 -0.0282  0.0917 -0.2204
 2667POPC   NC332257   5.577   2.492  15.147 -0.1152  0.1322  0.2029
 2667POPC   PO432258   5.194   2.495  15.091 -0.0133 -0.0292  0.2569
 2667POPC   GL132259   5.370   2.546  15.532 -0.1146  0.2567  0.0560
 2667POPC   GL232260   5.416   2.224  15.599  0.2127  0.2571  0.1930
 2667POPC   C1A32261   5.522   2.850  15.804  0.0072 -0.3408  0.0152
 2667POPC   D2A32262   5.661   3.206  16.024 -0.0469 -0.1954  0.0811
 2667POPC   C3A32263   5.505   3.191  16.483  0.0200  0.1018 -0.1626
 2667POPC   C4A32264   5.413   3.198  16.954 -0.1774  0.1124 -0.1636
 2667POPC   C1B32265   5.471   2.369  16.026 -0.2126  0.3142 -0.1647
 2667POPC   C2B32266   5.333   2.253  16.458 -0.3587 -0.0113  0.3435
 2667POPC   C3B32267   5.010   2.196  16.799  0.1313  0.1178 -0.0195
 2667POPC   C4B32268   4.822   2.378  17.195  0.1499  0.1909 -0.1532
 2668POPC   NC332269   4.702  31.426  14.994 -0.1196  0.0240  0.1117
 2668POPC   PO432270   4.819  31.098  15.083 -0.0030  0.2333 -0.3643
 2668POPC   GL132271   4.887  30.999  15.448  0.2108  0.0365 -0.4145
 2668POPC   GL232272   4.744  30.700  15.404 -0.0808  0.2126  0.0087
 2668POPC   C1A32273   4.910  31.105  15.902  0.3140  0.2321  0.1764
 2668POPC   D2A32274   4.999  31.195  16.306  0.0364  0.1738  0.1502
 2668POPC   C3A32275   4.639  31.353  16.589  0.1108 -0.0896  0.0529
 2668POPC   C4A32276   4.215  31.398  16.524 -0.0332 -0.0572 -0.1499
 2668POPC   C1B32277   4.562  30.597  15.883  0.3133 -0.0207  0.0774
 2668POPC   C2B32278   4.377  30.465  16.301 -0.2406  0.2727  0.1177
 2668POPC   C3B32279   4.439  30.452  16.778 -0.0379  0.3728  0.5514
 2668POPC   C4B32280   4.726  30.206  17.089  0.0412  0.1067  0.2387
 2669POPC   NC332281   0.907  15.597  15.335 -0.2041  0.0039 -0.0276
 2669POPC   PO432282   0.583  15.451  15.495  0.2078  0.2402  0.4494
 2669POPC   GL132283   0.491  15.482  15.855  0.2196  0.1014 -0.0550
 2669POPC   GL232284   0.497  15.169  15.931  0.1657  0.1105  0.1607
 2669POPC   C1A32285   0.670  15.795  16.112 -0.0261 -0.1038  0.1819
 2669POPC   D2A32286   0.827  15.798  16.563 -0.0386  0.1622 -0.2633
 2669POPC   C3A32287   0.673  16.051  16.916  0.2762 -0.0671  0.1256
 2669POPC   C4A32288   0.732  16.040  17.423 -0.1547  0.1682 -0.1292
 2669POPC   C1B32289   0.395  15.399  16.357  0.0939  0.0026 -0.1606
 2669POPC   C2B32290   0.435  15.566  16.790 -0.0147 -0.0442  0.3089
 2669POPC   C3B32291   0.387  15.624  17.214  0.0489 -0.1783  0.1509
 2669POPC   C4B32292   0.137  15.690  17.581 -0.2776  0.0021 -0.0568
 2670POPC   NC332293  17.446   8.169  14.899 -0.1064 -0.1120 -0.2273
 2670POPC   PO432294  17.440   7.904  15.123  0.0363  0.3250  0.1616
 2670POPC   GL132295  17.574   7.887  15.480  0.1971 -0.4633 -0.1727
 2670POPC   GL232296  17.528   8.090  15.674  0.3186  0.0265 -0.1888
 2670POPC   C1A32297  17.510   7.657  15.917 -0.2441 -0.3018  0.2114
 2670POPC   D2A32298  17.552   7.838  16.370  0.2003 -0.1807  0.1831
 2670POPC   C3A32299  17.527   7.506  16.666  0.0939 -0.2258  0.1942
 2670POPC   C4A32300  17.510   7.082  16.716  0.4420 -0.4562 -0.3640
 2670POPC   C1B32301  17.243   8.130  16.098  0.2470  0.0182 -0.1327
 2670POPC   C2B32302  17.011   8.038  16.484 -0.0132 -0.0890 -0.2526
 2670POPC   C3B32303  17.142   7.752  16.866  0.0313 -0.0701  0.1832
 2670POPC   C4B32304  17.122   7.274  16.953  0.0010 -0.1930 -0.1716
 2671POPC   NC332305  24.706   3.680  15.307 -0.1691 -0.0571 -0.0838
 2671POPC   PO432306  25.100   3.639  15.201 -0.2564 -0.0233  0.1803
 2671POPC   GL132307  25.046   3.696  15.647  0.0053  0.2992  0.0916
 2671POPC   GL232308  24.887   3.383  15.606 -0.1355  0.0129 -0.2273
 2671POPC   C1A32309  25.144   3.593  16.141  0.3039  0.0889  0.2284
 2671POPC   D2A32310  25.214   3.361  16.523  0.0647 -0.1703 -0.1116
 2671POPC   C3A32311  25.090   3.554  16.926  0.0003 -0.1659  0.2390
 2671POPC   C4A32312  25.088   3.869  17.276  0.0276 -0.2189 -0.3392
 2671POPC   C1B32313  25.218   3.193  15.863  0.1751 -0.1964  0.0484
 2671POPC   C2B32314  25.380   3.031  16.244  0.1373 -0.2756  0.1518
 2671POPC   C3B32315  25.267   2.876  16.662  0.2910 -0.2534  0.2423
 2671POPC   C4B32316  25.441   2.812  17.105 -0.3570 -0.0631 -0.0817
 2672POPC   NC332317   6.286  28.287  15.411  0.2525  0.2112  0.1142
 2672POPC   PO432318   5.937  28.385  15.337  0.0568  0.0534 -0.0858
 2672POPC   GL132319   5.986  28.333  15.729  0.0729  0.1416  0.0739
 2672POPC   GL232320   6.146  28.588  15.788  0.1873  0.0096  0.1382
 2672POPC   C1A32321   5.855  28.434  16.178  0.0945 -0.0978 -0.0227
 2672POPC   D2A32322   5.662  28.640  16.557 -0.2127 -0.1492 -0.4305
 2672POPC   C3A32323   5.912  28.801  16.893  0.2300  0.2273 -0.0716
 2672POPC   C4A32324   5.917  29.260  17.096 -0.1935  0.2033  0.2632
 2672POPC   C1B32325   6.339  28.569  16.225  0.0072 -0.0055  0.2143
 2672POPC   C2B32326   6.327  28.778  16.644 -0.1386 -0.4538  0.0420
 2672POPC   C3B32327   6.424  29.017  17.020  0.3271 -0.1161 -0.3233
 2672POPC   C4B32328   6.171  28.993  17.461 -0.0529  0.1944  0.1884
 2673POPC   NC332329  13.414  11.372  14.833 -0.0154 -0.0282  0.1689
 2673POPC   PO432330  13.372  11.664  15.094 -0.1058  0.2458 -0.3547
 2673POPC   GL132331  13.445  11.394  15.443 -0.0585  0.1753 -0.1656
 2673POPC   GL232332  13.520  11.134  15.338 -0.0914  0.2727  0.1335
 2673POPC   C1A32333  13.371  11.319  15.915 -0.0404  0.1153 -0.0989
 2673POPC   D2A32334  13.189  11.592  16.278 -0.0581 -0.1562  0.2059
 2673POPC   C3A32335  12.891  11.586  16.634  0.0657  0.1219 -0.0724
 2673POPC   C4A32336  12.771  11.573  17.116 -0.1596 -0.3104  0.0666
 2673POPC   C1B32337  13.786  11.255  15.717 -0.0502 -0.0974 -0.0018
 2673POPC   C2B32338  14.056  11.277  16.106  0.1618 -0.0784  0.1287
 2673POPC   C3B32339  14.044  11.256  16.587  0.2423 -0.3073  0.3359
 2673POPC   C4B32340  13.772  11.246  17.024 -0.2085  0.0470  0.3371
 2674POPC   NC332341   9.496   4.748  15.615  0.0887 -0.0889 -0.1034
 2674POPC   PO432342   9.794   4.532  15.432 -0.0017  0.1521 -0.2217
 2674POPC   GL132343  10.029   4.460  15.755  0.0760 -0.2921  0.2382
 2674POPC   GL232344  10.036   4.183  15.793  0.2093 -0.2821 -0.0534
 2674POPC   C1A32345   9.861   4.556  16.166 -0.0599  0.1552  0.0978
 2674POPC   D2A32346   9.741   4.456  16.629  0.0517  0.2267  0.0032
 2674POPC   C3A32347  10.011   4.645  16.905 -0.1364 -0.0962  0.0682
 2674POPC   C4A32348  10.359   4.594  17.183  0.0000 -0.0518  0.0938
 2674POPC   C1B32349  10.011   4.061  16.221 -0.1134  0.1575 -0.0352
 2674POPC   C2B32350  10.326   3.812  16.420  0.0594  0.0756 -0.3551
 2674POPC   C3B32351  10.751   3.913  16.476 -0.1119 -0.5928 -0.0511
 2674POPC   C4B32352  11.110   4.077  16.837  0.1081  0.3768  0.0690
 2675POPC   NC332353  14.108   1.423  14.613 -0.0518 -0.3191  0.3377
 2675POPC   PO432354  14.332   1.714  14.712  0.1514  0.2026  0.1858
 2675POPC   GL132355  14.174   1.702  15.061  0.2062 -0.6556  0.0049
 2675POPC   GL232356  13.895   1.728  15.149 -0.1765  0.2116 -0.0681
 2675POPC   C1A32357  14.133   1.254  15.149 -0.1558  0.1042  0.0717
 2675POPC   D2A32358  14.085   1.094  15.602 -0.1913 -0.0751  0.2786
 2675POPC   C3A32359  14.230   0.854  16.011 -0.3297 -0.1369 -0.0576
 2675POPC   C4A32360  14.472   0.556  16.292  0.0627  0.1532 -0.2515
 2675POPC   C1B32361  14.117   1.608  15.551 -0.0341 -0.0394  0.1125
 2675POPC   C2B32362  14.195   1.392  15.957 -0.2882  0.1448  0.0722
 2675POPC   C3B32363  14.047   1.169  16.324  0.0076  0.3193  0.0315
 2675POPC   C4B32364  13.978   0.789  16.530 -0.1194  0.0095 -0.1188
 2676POPC   NC332365  24.577  11.432  14.843 -0.0295  0.0541 -0.2608
 2676POPC   PO432366  24.590  11.112  15.079 -0.2339 -0.1912  0.1389
 2676POPC   GL132367  24.961  10.960  15.396  0.1875 -0.0712  0.3032
 2676POPC   GL232368  25.013  10.687  15.398 -0.2628  0.0239 -0.0935
 2676POPC   C1A32369  25.453  10.987  15.364  0.0240  0.0923 -0.0838
 2676POPC   D2A32370  25.903  10.920  15.553 -0.4067 -0.2898 -0.1237
 2676POPC   C3A32371  26.109  11.062  15.948  0.0890 -0.3248 -0.0552
 2676POPC   C4A32372  26.290  11.374  16.286 -0.2864 -0.0772 -0.0785
 2676POPC   C1B32373  25.086  10.855  15.807  0.1804  0.0558 -0.3323
 2676POPC   C2B32374  25.177  10.778  16.328 -0.1326  0.1934  0.3162
 2676POPC   C3B32375  25.470  10.607  16.666  0.0248 -0.0610 -0.0497
 2676POPC   C4B32376  25.707  10.641  17.060  0.1159 -0.0966  0.0073
 2677POPC   NC332377  28.444  12.419  14.880 -0.2016  0.3166  0.2494
 2677POPC   PO432378  28.617  12.301  15.212 -0.0323 -0.2663 -0.0924
 2677POPC   GL132379  28.584  12.338  15.534 -0.0150  0.1236  0.3284
 2677POPC   GL232380  28.913  12.200  15.644  0.0698 -0.1191 -0.1905
 2677POPC   C1A32381  28.435  12.503  15.949  0.1086 -0.0385  0.0340
 2677POPC   D2A32382  28.278  12.454  16.330 -0.1430  0.0499  0.2129
 2677POPC   C3A32383  28.416  12.556  16.750  0.0025 -0.0721 -0.0860
 2677POPC   C4A32384  28.332  12.508  17.236 -0.2425 -0.0565  0.0558
 2677POPC   C1B32385  28.801  12.201  16.104  0.2365 -0.2337  0.0002
 2677POPC   C2B32386  28.552  12.012  16.427  0.1843 -0.4101 -0.0719
 2677POPC   C3B32387  28.324  12.081  16.829 -0.0776 -0.3105  0.0755
 2677POPC   C4B32388  28.085  11.973  17.171 -0.0355 -0.0734  0.3819
 2678POPC   NC332389   4.606  16.384  15.021  0.1052  0.2129  0.0309
 2678POPC   PO432390   4.660  16.686  14.743 -0.4119  0.1226 -0.2324
 2678POPC   GL132391   4.276  16.768  15.032  0.1333  0.1938  0.0149
 2678POPC   GL232392   4.172  17.116  15.201 -0.0811  0.0804  0.0313
 2678POPC   C1A32393   3.841  16.808  14.915  0.2371  0.1820  0.1389
 2678POPC   D2A32394   3.582  16.519  14.670 -0.2366  0.0065  0.1571
 2678POPC   C3A32395   3.129  16.340  14.761  0.0434 -0.0159 -0.3096
 2678POPC   C4A32396   2.828  16.030  14.855  0.3266 -0.0944 -0.2021
 2678POPC   C1B32397   3.898  17.290  15.568 -0.1132 -0.2430 -0.4568
 2678POPC   C2B32398   3.569  17.377  15.828  0.1660  0.1312 -0.0734
 2678POPC   C3B32399   3.337  17.255  16.154 -0.1387  0.1034  0.0797
 2678POPC   C4B32400   3.234  17.142  16.550 -0.2300 -0.1098  0.0696
 2679POPC   NC332401   2.753  24.793  15.153 -0.0101  0.0272  0.2470
 2679POPC   PO432402   2.627  25.157  15.284  0.2317  0.0747 -0.1492
 2679POPC   GL132403   2.784  24.871  15.656 -0.3137 -0.0334  0.1309
 2679POPC   GL232404   2.580  24.764  15.677 -0.0357  0.1767 -0.3058
 2679POPC   C1A32405   2.988  24.877  16.063 -0.2132  0.2354  0.0380
 2679POPC   D2A32406   3.169  24.885  16.466 -0.1865  0.3565 -0.0261
 2679POPC   C3A32407   3.102  24.810  16.887 -0.0199 -0.0130  0.0140
 2679POPC   C4A32408   3.283  24.669  17.334  0.0669  0.0751  0.0743
 2679POPC   C1B32409   2.443  24.812  16.134  0.0314 -0.0847  0.0367
 2679POPC   C2B32410   2.264  24.782  16.551 -0.1056 -0.4017  0.1686
 2679POPC   C3B32411   2.219  24.388  16.815  0.1175  0.1615  0.0005
 2679POPC   C4B32412   2.053  24.014  17.101  0.0986  0.1398 -0.0654
 2680POPC   NC332413  26.679   1.551  14.910  0.2963  0.2947 -0.1213
 2680POPC   PO432414  26.325   1.480  15.058 -0.1529  0.0386  0.0899
 2680POPC   GL132415  26.301   1.502  15.446  0.2259  0.0924 -0.2460
 2680POPC   GL232416  26.375   1.306  15.550 -0.0652 -0.0806 -0.3226
 2680POPC   C1A32417  26.112   1.590  15.871  0.1475  0.0555  0.0578
 2680POPC   D2A32418  26.045   1.583  16.318 -0.1314 -0.0613 -0.2428
 2680POPC   C3A32419  25.643   1.447  16.532  0.1537  0.0420 -0.0035
 2680POPC   C4A32420  25.620   1.202  16.997 -0.1095 -0.2928  0.5689
 2680POPC   C1B32421  26.369   1.207  16.034 -0.2163 -0.0987 -0.0731
 2680POPC   C2B32422  26.439   1.256  16.500 -0.0124  0.0161 -0.0361
 2680POPC   C3B32423  26.829   1.176  16.737  0.2752  0.2675  0.5975
 2680POPC   C4B32424  27.260   1.324  16.871 -0.2814  0.0491  0.2084
 2681POPC   NC332425  27.115   6.359  15.253  0.0399  0.0627 -0.3894
 2681POPC   PO432426  26.779   6.204  15.332 -0.3536  0.1198  0.1688
 2681POPC   GL132427  26.732   6.032  15.668  0.0310 -0.0422 -0.1476
 2681POPC   GL232428  26.936   5.903  15.672  0.0157  0.0413 -0.2452
 2681POPC   C1A32429  26.866   6.139  16.112 -0.0412  0.1128 -0.0613
 2681POPC   D2A32430  27.087   6.396  16.397  0.3630 -0.0385 -0.0927
 2681POPC   C3A32431  27.532   6.362  16.504  0.0363  0.0160 -0.4951
 2681POPC   C4A32432  28.012   6.342  16.512 -0.0706 -0.0248  0.0682
 2681POPC   C1B32433  27.215   5.789  15.996 -0.4278  0.1391  0.0770
 2681POPC   C2B32434  27.342   5.470  16.349  0.0741 -0.1194  0.1818
 2681POPC   C3B32435  27.599   5.173  16.660 -0.0996 -0.2271  0.0649
 2681POPC   C4B32436  27.612   4.803  16.937 -0.0337  0.2188 -0.2369
 2682POPC   NC332437   0.790  30.893  14.727 -0.1524 -0.1314  0.1552
 2682POPC   PO432438   0.517  30.908  15.033 -0.0396  0.1690 -0.1572
 2682POPC   GL132439   0.549  31.026  15.398  0.2895 -0.0550 -0.0511
 2682POPC   GL232440   0.523  31.196  15.617  0.1769 -0.3930 -0.0926
 2682POPC   C1A32441   0.782  30.740  15.640 -0.3003 -0.0823 -0.0481
 2682POPC   D2A32442   0.769  30.436  15.984  0.1570 -0.0212  0.0010
 2682POPC   C3A32443   0.831  30.461  16.458  0.1318  0.1832 -0.0517
 2682POPC   C4A32444   0.592  30.398  16.844  0.3462  0.1279 -0.3031
 2682POPC   C1B32445   0.686  31.169  16.037 -0.1086 -0.2905  0.1599
 2682POPC   C2B32446   0.652  31.360  16.513  0.0364 -0.2304 -0.1364
 2682POPC   C3B32447   0.706  31.330  16.958 -0.0752  0.2445 -0.0906
 2682POPC   C4B32448   0.595  31.163  17.392  0.0524 -0.2233 -0.0519
 2683POPC   NC332449  27.218  14.237  15.071  0.2334  0.1008  0.2569
 2683POPC   PO432450  27.504  14.360  14.793 -0.1514 -0.1625 -0.0353
 2683POPC   GL132451  27.559  14.544  15.134  0.0477 -0.0530 -0.3576
 2683POPC   GL232452  27.655  14.312  15.388  0.1238  0.1645 -0.2341
 2683POPC   C1A32453  27.553  14.938  15.379  0.2337 -0.1029 -0.0598
 2683POPC   D2A32454  27.522  15.388  15.563  0.3066  0.0998  0.1651
 2683POPC   C3A32455  27.621  15.419  16.048 -0.2532  0.1694 -0.2423
 2683POPC   C4A32456  27.650  15.209  16.461  0.0301 -0.0828 -0.0519
 2683POPC   C1B32457  27.593  14.248  15.846  0.0117 -0.0242  0.2264
 2683POPC   C2B32458  27.362  14.268  16.231  0.0011 -0.0314 -0.2664
 2683POPC   C3B32459  27.097  14.009  16.490  0.1316  0.1347 -0.1020
 2683POPC   C4B32460  26.671  13.945  16.649  0.0540  0.1781  0.0909
 2684POPC   NC332461  13.744  28.839  15.641  0.0216 -0.1401 -0.0282
 2684POPC   PO432462  14.032  28.560  15.538  0.0484 -0.0264 -0.2209
 2684POPC   GL132463  13.681  28.303  15.742 -0.0404 -0.0248  0.2598
 2684POPC   GL232464  13.488  28.037  15.662  0.2027  0.2540 -0.0220
 2684POPC   C1A32465  13.684  28.031  16.128 -0.4812 -0.0456 -0.0080
 2684POPC   D2A32466  13.535  28.230  16.556  0.0349 -0.0329 -0.0446
 2684POPC   C3A32467  13.426  28.115  16.955  0.4361 -0.3717  0.3498
 2684POPC   C4A32468  13.380  27.883  17.359  0.1766  0.1138 -0.1334
 2684POPC   C1B32469  13.166  27.775  15.848  0.0676 -0.2206  0.1760
 2684POPC   C2B32470  13.066  27.382  16.085 -0.0560 -0.1823 -0.1970
 2684POPC   C3B32471  13.210  26.992  16.241 -0.1769  0.0757  0.1270
 2684POPC   C4B32472  13.120  26.862  16.690 -0.1067  0.0480 -0.3062
 2685POPC   NC332473  15.386  30.022  15.171 -0.0232  0.0407 -0.0932
 2685POPC   PO432474  15.021  29.935  15.132 -0.0718 -0.3123  0.1282
 2685POPC   GL132475  14.938  30.282  15.351 -0.0535  0.1129  0.3511
 2685POPC   GL232476  14.778  30.433  15.159 -0.4054 -0.2724 -0.3141
 2685POPC   C1A32477  14.784  30.296  15.757 -0.0418  0.1534  0.2639
 2685POPC   D2A32478  14.487  30.325  16.046  0.0498 -0.0758  0.2913
 2685POPC   C3A32479  14.460  30.585  16.391  0.0471 -0.2109 -0.2059
 2685POPC   C4A32480  14.343  30.726  16.798  0.2950 -0.2826 -0.1118
 2685POPC   C1B32481  14.661  30.708  15.539 -0.2919  0.2432  0.1177
 2685POPC   C2B32482  14.701  30.791  15.980  0.0340 -0.0607 -0.4005
 2685POPC   C3B32483  14.553  31.101  16.265 -0.1555  0.0100  0.0517
 2685POPC   C4B32484  14.814  31.400  16.527  0.0161 -0.0950 -0.0368
 2686POPC   NC332485  10.748   5.891  15.444 -0.0485 -0.1124  0.1732
 2686POPC   PO432486  10.950   5.608  15.288  0.3392 -0.0568 -0.0842
 2686POPC   GL132487  11.116   5.653  15.666 -0.0536 -0.0578 -0.0661
 2686POPC   GL232488  11.251   5.907  15.700 -0.0984 -0.3166  0.2580
 2686POPC   C1A32489  11.095   5.435  16.078  0.1058 -0.0758 -0.0387
 2686POPC   D2A32490  10.753   5.295  16.374 -0.0743  0.1637 -0.0267
 2686POPC   C3A32491  10.623   5.563  16.743  0.0727  0.1296 -0.0365
 2686POPC   C4A32492  10.792   5.895  17.111 -0.0716 -0.3721 -0.0436
 2686POPC   C1B32493  10.912   5.916  16.021 -0.0095 -0.0263  0.1269
 2686POPC   C2B32494  10.978   5.801  16.487 -0.1912  0.1166  0.1463
 2686POPC   C3B32495  11.213   5.693  16.852 -0.3858  0.3636  0.2652
 2686POPC   C4B32496  11.262   5.744  17.292  0.3027 -0.0202  0.0306
 2687POPC   NC332497   6.105  14.038  15.295 -0.1850  0.2627  0.0489
 2687POPC   PO432498   6.244  13.657  15.153  0.0342 -0.0666 -0.1178
 2687POPC   GL132499   6.263  13.725  15.604  0.0843 -0.2686 -0.2704
 2687POPC   GL232500   6.296  13.476  15.683 -0.1219  0.3283 -0.1220
 2687POPC   C1A32501   6.166  13.797  16.081 -0.1000  0.1116  0.2383
 2687POPC   D2A32502   5.895  14.096  16.243  0.2209  0.0376  0.0392
 2687POPC   C3A32503   5.952  14.373  16.615  0.1996 -0.0393  0.0351
 2687POPC   C4A32504   6.295  14.345  16.995  0.2769  0.3570 -0.1685
 2687POPC   C1B32505   6.262  13.243  16.118 -0.2595  0.0991  0.1880
 2687POPC   C2B32506   6.097  13.263  16.500 -0.3398  0.0875 -0.3531
 2687POPC   C3B32507   6.026  13.423  16.979  0.1835 -0.1242  0.1342
 2687POPC   C4B32508   6.023  13.382  17.405 -0.0160 -0.0099  0.1835
 2688POPC   NC332509  18.023   7.385  15.085 -0.1522 -0.1863 -0.2250
 2688POPC   PO432510  18.005   7.766  15.209 -0.1024  0.0218 -0.2589
 2688POPC   GL132511  18.199   7.809  15.622 -0.1267 -0.0361 -0.0510
 2688POPC   GL232512  18.423   7.583  15.695  0.3951  0.1142 -0.0593
 2688POPC   C1A32513  17.949   8.023  15.984  0.0693 -0.1369 -0.0894
 2688POPC   D2A32514  17.990   8.138  16.402  0.2108  0.0361 -0.1352
 2688POPC   C3A32515  18.048   8.337  16.815 -0.3278  0.2653  0.1637
 2688POPC   C4A32516  17.999   8.163  17.248 -0.3404  0.2770 -0.0518
 2688POPC   C1B32517  18.389   7.760  16.143  0.0292  0.1768  0.3329
 2688POPC   C2B32518  18.408   7.597  16.558 -0.1051  0.0313  0.1978
 2688POPC   C3B32519  18.369   7.569  16.997 -0.2057  0.0944 -0.2699
 2688POPC   C4B32520  18.450   7.338  17.369 -0.2199  0.0352 -0.0431
 2689POPC   NC332521   5.764  25.030  15.219  0.0193 -0.1400  0.2172
 2689POPC   PO432522   5.666  25.389  15.148 -0.3593  0.3328 -0.1106
 2689POPC   GL132523   5.964  25.460  15.492  0.0098 -0.1397 -0.1989
 2689POPC   GL232524   6.152  25.205  15.443 -0.2295 -0.0602 -0.2420
 2689POPC   C1A32525   6.217  25.508  15.897 -0.0618 -0.1685 -0.2469
 2689POPC   D2A32526   6.241  25.242  16.295 -0.1073  0.4296 -0.0852
 2689POPC   C3A32527   6.042  25.177  16.710 -0.0050  0.4290 -0.1337
 2689POPC   C4A32528   5.851  25.337  17.098  0.1139 -0.2061  0.0048
 2689POPC   C1B32529   5.862  25.150  15.811  0.3780  0.2955 -0.0596
 2689POPC   C2B32530   5.761  24.976  16.220 -0.2077  0.0885 -0.1500
 2689POPC   C3B32531   5.644  24.789  16.560  0.0209 -0.3319  0.1136
 2689POPC   C4B32532   5.720  24.789  16.990  0.1880  0.1196 -0.1698
 2690POPC   NC332533   0.863  28.647  15.334 -0.0920 -0.1658 -0.1076
 2690POPC   PO432534   1.144  28.418  15.424 -0.3395 -0.1910  0.3620
 2690POPC   GL132535   1.000  28.480  15.777 -0.0481 -0.1087 -0.0932
 2690POPC   GL232536   0.812  28.220  15.856 -0.1170 -0.0282  0.1355
 2690POPC   C1A32537   1.104  28.577  16.250  0.0291  0.2651 -0.1192
 2690POPC   D2A32538   1.309  28.416  16.642 -0.3326  0.2011  0.2565
 2690POPC   C3A32539   1.213  28.664  17.019 -0.0740  0.1190  0.0801
 2690POPC   C4A32540   1.015  29.070  17.204  0.0354  0.1076  0.1183
 2690POPC   C1B32541   0.441  28.170  16.090  0.0100  0.1144  0.0304
 2690POPC   C2B32542   0.313  28.184  16.477  0.0337  0.1340  0.1217
 2690POPC   C3B32543   0.099  28.216  16.916  0.2829 -0.0517  0.1974
 2690POPC   C4B32544  -0.067  28.172  17.364  0.1661 -0.1585 -0.1403
 2691POPC   NC332545  13.108  23.175  14.877  0.2086  0.0259 -0.2001
 2691POPC   PO432546  12.928  22.880  15.057  0.3823 -0.1578  0.0845
 2691POPC   GL132547  12.927  22.991  15.366 -0.1249 -0.4400  0.2929
 2691POPC   GL232548  12.787  23.339  15.260 -0.1707  0.1009 -0.2942
 2691POPC   C1A32549  12.954  22.836  15.834  0.1171  0.1975  0.2406
 2691POPC   D2A32550  12.838  22.560  16.199  0.0292 -0.1010 -0.2017
 2691POPC   C3A32551  12.899  23.042  16.331  0.1049 -0.3240  0.3180
 2691POPC   C4A32552  12.830  23.452  16.590  0.0209  0.3586  0.2452
 2691POPC   C1B32553  12.958  23.305  15.726  0.0130 -0.0290  0.3135
 2691POPC   C2B32554  12.924  23.610  16.100 -0.2775 -0.0142  0.1396
 2691POPC   C3B32555  12.805  23.982  16.289 -0.0053 -0.2833  0.1278
 2691POPC   C4B32556  12.723  23.959  16.758  0.0323  0.4746  0.0253
 2692POPC   NC332557   1.163  14.443  15.669 -0.1641 -0.3402 -0.1210
 2692POPC   PO432558   0.924  14.796  15.670 -0.0927  0.2185  0.1264
 2692POPC   GL132559   0.883  14.693  16.053 -0.2391 -0.1264  0.1877
 2692POPC   GL232560   1.057  14.823  16.202  0.0699 -0.1955  0.0278
 2692POPC   C1A32561   1.013  14.322  16.238  0.1484 -0.0444 -0.1980
 2692POPC   D2A32562   1.140  13.908  16.300 -0.0984  0.2943 -0.1054
 2692POPC   C3A32563   1.561  13.990  16.455  0.0195  0.1069 -0.1371
 2692POPC   C4A32564   1.466  14.043  16.920  0.0410  0.1594 -0.0546
 2692POPC   C1B32565   0.894  14.788  16.605  0.1661  0.1547  0.1802
 2692POPC   C2B32566   0.948  14.774  17.074 -0.0603 -0.4012 -0.0120
 2692POPC   C3B32567   1.340  14.648  17.334  0.2710  0.2415 -0.3088
 2692POPC   C4B32568   1.698  14.465  17.304 -0.2804 -0.0771  0.1855
 2693POPC   NC332569   6.275  18.401  15.092 -0.1555 -0.0353 -0.0149
 2693POPC   PO432570   6.169  18.032  15.038  0.0970 -0.0771  0.0985
 2693POPC   GL132571   6.165  18.024  15.411  0.1898  0.0017  0.1075
 2693POPC   GL232572   6.393  17.873  15.576  0.2186 -0.3151 -0.2094
 2693POPC   C1A32573   6.045  18.227  15.805  0.0634 -0.0951  0.0883
 2693POPC   D2A32574   6.353  18.206  16.116 -0.2380  0.4917 -0.2564
 2693POPC   C3A32575   6.433  17.987  16.503 -0.2025  0.0138  0.1484
 2693POPC   C4A32576   6.488  18.154  16.950 -0.0873  0.0369 -0.0318
 2693POPC   C1B32577   6.159  17.767  15.976  0.2559 -0.1090  0.1113
 2693POPC   C2B32578   5.910  17.452  16.223 -0.1106  0.1485  0.0183
 2693POPC   C3B32579   6.006  17.197  16.633 -0.3409  0.0276 -0.2268
 2693POPC   C4B32580   6.108  16.984  17.033  0.2706  0.3090 -0.0703
 2694POPC   NC332581  17.967   8.219  15.442  0.2693 -0.2110  0.2616
 2694POPC   PO432582  17.654   8.402  15.353 -0.1683  0.0178  0.1600
 2694POPC   GL132583  17.600   8.543  15.704 -0.0625  0.2886  0.2521
 2694POPC   GL232584  17.820   8.797  15.615  0.3250  0.1113  0.2761
 2694POPC   C1A32585  17.671   8.592  16.146 -0.0638  0.0502 -0.2250
 2694POPC   D2A32586  17.547   8.332  16.487  0.0388  0.0352  0.1247
 2694POPC   C3A32587  17.620   8.102  16.894 -0.0080 -0.3575  0.0466
 2694POPC   C4A32588  17.903   7.755  16.925  0.1804 -0.1887 -0.0090
 2694POPC   C1B32589  17.974   8.971  16.024 -0.1616 -0.0717 -0.2088
 2694POPC   C2B32590  18.323   9.015  16.355 -0.2827  0.1353 -0.4319
 2694POPC   C3B32591  18.346   9.194  16.778  0.5074 -0.0787  0.0501
 2694POPC   C4B32592  18.655   8.990  17.075  0.0861 -0.0912 -0.4317
 2695POPC   NC332593  16.149  19.298  15.449  0.1629 -0.2268 -0.0837
 2695POPC   PO432594  16.326  18.983  15.316  0.0321 -0.0295 -0.0466
 2695POPC   GL132595  16.329  18.965  15.766  0.2105  0.1819  0.2281
 2695POPC   GL232596  16.114  18.733  15.731  0.0860 -0.0004  0.0599
 2695POPC   C1A32597  16.489  19.120  16.158 -0.1128 -0.1186 -0.1005
 2695POPC   D2A32598  16.680  19.217  16.547  0.1420  0.0961 -0.0794
 2695POPC   C3A32599  17.081  19.556  16.557  0.0739 -0.0797 -0.3019
 2695POPC   C4A32600  17.224  19.911  16.304  0.0142 -0.1301  0.1893
 2695POPC   C1B32601  16.072  18.828  16.158  0.1700  0.0129  0.4434
 2695POPC   C2B32602  16.095  18.657  16.573 -0.0947  0.4098 -0.0455
 2695POPC   C3B32603  15.712  18.687  16.836  0.1691  0.1322  0.0585
 2695POPC   C4B32604  15.346  18.953  16.887  0.0634  0.0688  0.1941
 2696POPC   NC332605   7.503   6.417  15.256 -0.0120  0.1261  0.0898
 2696POPC   PO432606   7.370   6.049  15.304 -0.0269 -0.1644  0.0371
 2696POPC   GL132607   7.216   6.150  15.687  0.3377  0.6413 -0.0215
 2696POPC   GL232608   6.983   6.052  15.629  0.1953  0.2011  0.2736
 2696POPC   C1A32609   7.374   6.156  16.123  0.0438 -0.0066 -0.1443
 2696POPC   D2A32610   7.608   6.247  16.479 -0.1024  0.1629  0.1400
 2696POPC   C3A32611   7.382   6.456  16.826 -0.1658 -0.0817 -0.1362
 2696POPC   C4A32612   7.050   6.750  17.003 -0.3159  0.0786 -0.1785
 2696POPC   C1B32613   6.664   6.189  15.947 -0.1144  0.1076 -0.2158
 2696POPC   C2B32614   6.269   6.159  16.244 -0.2041  0.2062 -0.4238
 2696POPC   C3B32615   6.059   5.883  16.579  0.0312 -0.0619  0.3516
 2696POPC   C4B32616   5.901   5.823  17.032 -0.3086 -0.1026  0.0587
 2697POPC   NC332617   4.902  24.953  14.967 -0.0623 -0.3618 -0.1587
 2697POPC   PO432618   4.984  24.590  14.948  0.3127 -0.1353 -0.4426
 2697POPC   GL132619   5.055  24.754  15.348  0.2503  0.0842  0.0409
 2697POPC   GL232620   5.342  24.722  15.253 -0.1389 -0.1300 -0.2271
 2697POPC   C1A32621   5.074  24.729  15.802  0.1709  0.0980 -0.0910
 2697POPC   D2A32622   5.198  24.755  16.237 -0.1470  0.0370 -0.2504
 2697POPC   C3A32623   5.209  24.962  16.649 -0.0101  0.1203  0.0869
 2697POPC   C4A32624   5.355  25.115  17.044 -0.1198 -0.2091 -0.1870
 2697POPC   C1B32625   5.606  24.751  15.633  0.0558  0.1511 -0.0315
 2697POPC   C2B32626   6.054  24.656  15.785 -0.3269 -0.3395  0.1539
 2697POPC   C3B32627   6.367  25.010  15.883 -0.0795 -0.2110  0.0982
 2697POPC   C4B32628   6.841  24.953  15.792 -0.2523 -0.1858  0.0691
 2698POPC   NC332629  15.581  19.353  15.195 -0.0133  0.1198  0.1720
 2698POPC   PO432630  15.322  19.612  15.385 -0.2707 -0.0946  0.1293
 2698POPC   GL132631  15.422  19.579  15.757  0.1157  0.2633  0.1966
 2698POPC   GL232632  15.756  19.663  15.629 -0.1472  0.0055  0.0480
 2698POPC   C1A32633  15.444  19.275  16.095 -0.3268  0.3031  0.0151
 2698POPC   D2A32634  15.169  18.956  16.194  0.0210 -0.1947  0.1315
 2698POPC   C3A32635  14.727  19.033  16.347 -0.3545  0.2149  0.1623
 2698POPC   C4A32636  14.318  18.964  16.652  0.0296  0.2068  0.0605
 2698POPC   C1B32637  15.846  19.724  16.070  0.4394 -0.0558 -0.0189
 2698POPC   C2B32638  15.755  19.759  16.484 -0.0685 -0.0361 -0.0543
 2698POPC   C3B32639  15.973  19.742  16.856  0.3637 -0.1910 -0.1560
 2698POPC   C4B32640  15.763  19.899  17.253 -0.1398 -0.0461  0.2705
 2699POPC   NC332641  20.451  10.410  15.393  0.2104 -0.4444 -0.3337
 2699POPC   PO432642  20.789  10.271  15.377  0.1403 -0.0128  0.2313
 2699POPC   GL132643  20.693  10.335  15.809  0.1406 -0.1545 -0.2287
 2699POPC   GL232644  21.016  10.424  15.862  0.3323  0.2957 -0.0680
 2699POPC   C1A32645  20.728  10.331  16.280 -0.4243  0.0893 -0.2675
 2699POPC   D2A32646  20.798  10.609  16.626  0.4170 -0.1161 -0.0433
 2699POPC   C3A32647  20.425  10.543  16.880  0.1324  0.0106 -0.1335
 2699POPC   C4A32648  20.201  10.265  17.227 -0.0257 -0.1535 -0.3801
 2699POPC   C1B32649  21.188  10.571  16.261 -0.2066 -0.0975  0.2575
 2699POPC   C2B32650  21.250  10.411  16.698 -0.1270 -0.2316 -0.1360
 2699POPC   C3B32651  21.379  10.239  17.071  0.1011 -0.0483  0.0274
 2699POPC   C4B32652  21.238  10.290  17.532  0.0939  0.1774 -0.4196
 2700POPC   NC332653  21.160  23.727  15.442  0.3993  0.2622  0.1778
 2700POPC   PO432654  21.433  23.934  15.306  0.0206 -0.1133  0.0077
 2700POPC   GL132655  21.496  23.925  15.675 -0.1207 -0.1192 -0.5446
 2700POPC   GL232656  21.300  24.171  15.746  0.2499  0.1078  0.0814
 2700POPC   C1A32657  21.706  23.675  16.007 -0.1893  0.1734  0.0670
 2700POPC   D2A32658  22.020  23.653  16.361  0.3825  0.2819  0.1105
 2700POPC   C3A32659  21.729  23.778  16.715  0.3784  0.1760 -0.2930
 2700POPC   C4A32660  21.591  23.835  17.123  0.2022  0.0439 -0.0818
 2700POPC   C1B32661  21.333  23.994  16.152 -0.2877  0.2324 -0.2946
 2700POPC   C2B32662  21.309  23.716  16.475 -0.4660 -0.2655 -0.2225
 2700POPC   C3B32663  21.380  23.400  16.751  0.1481  0.0402  0.2094
 2700POPC   C4B32664  21.140  23.111  16.987 -0.0036 -0.0192  0.3212
 2701POPC   NC332665  28.093  22.212  14.653 -0.0918  0.2283  0.1336
 2701POPC   PO432666  28.063  21.940  14.907 -0.2696  0.0147  0.3748
 2701POPC   GL132667  28.123  21.863  15.283 -0.6225  0.0885  0.1377
 2701POPC   GL232668  28.386  21.919  15.364  0.1249 -0.1174 -0.0865
 2701POPC   C1A32669  28.214  21.543  15.629 -0.1202 -0.3263  0.2967
 2701POPC   D2A32670  28.356  21.248  15.926  0.1758  0.0925 -0.0251
 2701POPC   C3A32671  28.640  21.147  16.244 -0.1618  0.1426  0.0192
 2701POPC   C4A32672  28.831  21.398  16.593 -0.1969  0.1174  0.5079
 2701POPC   C1B32673  28.087  22.108  15.700 -0.2441  0.0525  0.0866
 2701POPC   C2B32674  27.757  22.054  16.036  0.1792  0.0597 -0.0460
 2701POPC   C3B32675  27.776  21.761  16.375 -0.0946  0.1466  0.1645
 2701POPC   C4B32676  27.716  21.693  16.854  0.0942 -0.0077  0.1362
 2702POPC   NC332677  12.206  28.044  15.307  0.0366 -0.1788 -0.1254
 2702POPC   PO432678  11.967  28.216  15.573  0.2980  0.1417 -0.1615
 2702POPC   GL132679  12.140  28.016  15.822  0.3732  0.4939 -0.2894
 2702POPC   GL232680  12.424  28.155  15.846  0.1275  0.0909 -0.2777
 2702POPC   C1A32681  12.116  27.946  16.270  0.1355  0.1008 -0.3863
 2702POPC   D2A32682  12.193  27.818  16.682  0.4249  0.1386 -0.0622
 2702POPC   C3A32683  12.580  28.035  16.778  0.2691 -0.0508 -0.2145
 2702POPC   C4A32684  12.899  28.112  17.102 -0.1439  0.1231 -0.0816
 2702POPC   C1B32685  12.750  28.036  16.184 -0.3952  0.1452  0.0498
 2702POPC   C2B32686  13.010  27.808  16.461 -0.4428  0.1652 -0.3464
 2702POPC   C3B32687  13.073  27.372  16.629 -0.0410  0.0439 -0.1807
 2702POPC   C4B32688  12.832  27.203  17.006 -0.0711 -0.0607 -0.1562
 2703POPC   NC332689  15.961  31.710  14.660 -0.0876  0.0814 -0.2332
 2703POPC   PO432690  16.260  31.806  14.828  0.2360  0.0466 -0.2658
 2703POPC   GL132691  15.972  32.162  14.887  0.0661  0.0990 -0.1059
 2703POPC   GL232692  15.998  32.478  14.916  0.0948 -0.2107 -0.3132
 2703POPC   C1A32693  15.686  32.279  15.240  0.2591  0.1706  0.0956
 2703POPC   D2A32694  15.456  32.468  15.485  0.1490 -0.0428  0.0789
 2703POPC   C3A32695  15.120  32.319  15.747 -0.1310  0.1201 -0.1796
 2703POPC   C4A32696  14.810  32.496  15.973  0.0398  0.0697 -0.2146
 2703POPC   C1B32697  15.793  32.770  15.213  0.0945 -0.2782  0.0871
 2703POPC   C2B32698  15.657  33.010  15.578 -0.1841 -0.0383 -0.0765
 2703POPC   C3B32699  15.462  33.344  15.789  0.0752  0.3984  0.2446
 2703POPC   C4B32700  15.385  33.278  16.201  0.1270  0.2045 -0.2845
 2704POPC   NC332701  25.781   6.290  15.203 -0.1890  0.0180  0.0699
 2704POPC   PO432702  25.613   5.984  15.124  0.0766 -0.2055 -0.1851
 2704POPC   GL132703  25.559   5.971  15.476 -0.2036  0.2043 -0.2097
 2704POPC   GL232704  25.714   6.152  15.671  0.0681  0.0872 -0.1511
 2704POPC   C1A32705  25.371   5.822  15.898  0.1648  0.4309 -0.1277
 2704POPC   D2A32706  25.037   5.621  16.144  0.0767 -0.1017  0.0108
 2704POPC   C3A32707  24.954   5.528  16.618 -0.0911  0.0793  0.0616
 2704POPC   C4A32708  24.821   5.499  17.053 -0.0776  0.3012 -0.1995
 2704POPC   C1B32709  25.855   6.166  16.082 -0.2390 -0.2053  0.2461
 2704POPC   C2B32710  25.829   6.182  16.531  0.1515 -0.1379  0.0370
 2704POPC   C3B32711  25.866   5.988  16.889 -0.0144 -0.2658  0.2382
 2704POPC   C4B32712  25.627   5.855  17.221  0.3252  0.0584 -0.1378
 2705POPC   NC332713  10.874  11.024  15.145  0.0192  0.1357 -0.1705
 2705POPC   PO432714  10.802  11.404  15.084 -0.1130  0.4407 -0.0911
 2705POPC   GL132715  10.716  11.264  15.455  0.0847 -0.1901 -0.4059
 2705POPC   GL232716  10.509  11.486  15.543 -0.2075 -0.1164 -0.1098
 2705POPC   C1A32717  10.731  11.368  15.956  0.3995 -0.0218  0.1390
 2705POPC   D2A32718  10.757  11.431  16.446 -0.0775  0.1419 -0.1544
 2705POPC   C3A32719  10.771  11.046  16.709  0.3037  0.0434 -0.0924
 2705POPC   C4A32720  10.782  10.911  17.147  0.0487  0.2089 -0.2027
 2705POPC   C1B32721  10.234  11.197  15.716  0.2475  0.4369 -0.0444
 2705POPC   C2B32722   9.800  10.994  15.789 -0.2631 -0.0486 -0.0091
 2705POPC   C3B32723   9.735  10.681  16.106  0.1075 -0.2056  0.3254
 2705POPC   C4B32724   9.970  10.456  16.459 -0.2058  0.0273 -0.1102
 2706POPC   NC332725   8.597  10.104  14.837 -0.1051 -0.0348 -0.0061
 2706POPC   PO432726   8.482   9.788  15.074  0.4923 -0.1831 -0.0041
 2706POPC   GL132727   8.562  10.070  15.328  0.2142  0.1966 -0.0565
 2706POPC   GL232728   8.471   9.895  15.579  0.2496 -0.4416  0.1824
 2706POPC   C1A32729   8.559  10.329  15.721 -0.0002  0.1292 -0.0359
 2706POPC   D2A32730   8.434  10.320  16.168 -0.0574 -0.0511  0.3344
 2706POPC   C3A32731   8.014  10.406  16.315  0.3123  0.0512  0.0168
 2706POPC   C4A32732   7.800  10.424  16.714 -0.1229 -0.2424 -0.0268
 2706POPC   C1B32733   8.075  10.091  15.742 -0.1605 -0.2357 -0.0206
 2706POPC   C2B32734   7.704  10.184  15.994 -0.1523 -0.1307 -0.0407
 2706POPC   C3B32735   7.485  10.008  16.357 -0.0685 -0.0385  0.1313
 2706POPC   C4B32736   7.243   9.832  16.687 -0.1746 -0.2959 -0.0937
 2707POPC   NC332737  15.307  23.767  14.705  0.0390 -0.1612  0.0814
 2707POPC   PO432738  15.369  23.991  15.033 -0.0056 -0.1242  0.3247
 2707POPC   GL132739  15.217  23.758  15.297 -0.5408 -0.0976  0.0169
 2707POPC   GL232740  14.895  23.839  15.372  0.0121 -0.1758  0.0346
 2707POPC   C1A32741  14.953  23.365  15.342  0.1325  0.2369  0.1990
 2707POPC   D2A32742  14.810  22.978  15.453  0.3779 -0.0376 -0.2751
 2707POPC   C3A32743  14.928  23.105  15.921  0.1514  0.2291 -0.2879
 2707POPC   C4A32744  14.988  23.143  16.400 -0.1279  0.1331  0.2603
 2707POPC   C1B32745  15.114  23.602  15.729  0.1036 -0.1785 -0.2849
 2707POPC   C2B32746  15.189  23.508  16.123 -0.2762  0.0440 -0.0936
 2707POPC   C3B32747  15.219  23.535  16.581  0.2691  0.1718  0.1817
 2707POPC   C4B32748  15.089  23.521  17.057 -0.2941  0.2331 -0.1445
 2708POPC   NC332749   4.434  19.936  15.458  0.0565 -0.0939  0.1292
 2708POPC   PO432750   4.124  20.065  15.223 -0.1384  0.0445 -0.0783
 2708POPC   GL132751   4.090  20.157  15.683  0.0207 -0.1227 -0.4219
 2708POPC   GL232752   3.789  20.138  15.707 -0.3592 -0.2580  0.2171
 2708POPC   C1A32753   4.205  20.163  16.102  0.2252 -0.3486  0.1610
 2708POPC   D2A32754   4.240  19.998  16.532 -0.0663  0.0461 -0.1974
 2708POPC   C3A32755   4.603  19.957  16.860  0.0874  0.0597  0.0033
 2708POPC   C4A32756   4.768  20.071  17.240  0.1808 -0.2453 -0.1381
 2708POPC   C1B32757   3.764  19.840  16.026 -0.0158 -0.2043 -0.0397
 2708POPC   C2B32758   3.891  19.552  16.405  0.1086 -0.0106  0.3817
 2708POPC   C3B32759   4.121  19.151  16.417  0.1100 -0.0259  0.0159
 2708POPC   C4B32760   4.526  18.900  16.282  0.1048 -0.0852  0.1025
 2709POPC   NC332761  18.195  28.811  15.667 -0.2355 -0.1812  0.2158
 2709POPC   PO432762  18.488  28.747  15.460 -0.3705 -0.1945  0.0868
 2709POPC   GL132763  18.722  28.809  15.853 -0.2513  0.1933  0.0968
 2709POPC   GL232764  18.963  28.553  15.885 -0.1846  0.3318 -0.2724
 2709POPC   C1A32765  18.771  28.934  16.310  0.0250  0.1198  0.1056
 2709POPC   D2A32766  18.833  29.314  16.525 -0.0246 -0.2824 -0.2776
 2709POPC   C3A32767  18.984  29.072  16.956  0.0662 -0.3486  0.2444
 2709POPC   C4A32768  18.880  29.100  17.379  0.0355  0.0055 -0.0948
 2709POPC   C1B32769  19.002  28.399  16.378  0.0017  0.0670  0.0628
 2709POPC   C2B32770  18.978  28.613  16.816 -0.0904  0.0550  0.0227
 2709POPC   C3B32771  19.106  28.685  17.305  0.1053  0.1282  0.0437
 2709POPC   C4B32772  19.208  28.403  17.688  0.1787 -0.0663  0.2147
 2710POPC   NC332773  21.732  15.272  14.627  0.1141 -0.0811  0.0236
 2710POPC   PO432774  22.058  15.378  14.860  0.2160  0.1865  0.0758
 2710POPC   GL132775  22.275  15.374  15.167  0.2349 -0.0122  0.3196
 2710POPC   GL232776  22.428  15.112  15.180  0.1675 -0.0926  0.0677
 2710POPC   C1A32777  22.293  15.364  15.622  0.4495  0.0019 -0.1663
 2710POPC   D2A32778  22.356  15.065  15.970 -0.0472 -0.3951 -0.1588
 2710POPC   C3A32779  22.101  15.014  16.392  0.1138  0.0855 -0.1293
 2710POPC   C4A32780  21.966  15.406  16.612  0.0719 -0.0735 -0.3376
 2710POPC   C1B32781  22.194  14.917  15.509  0.3217 -0.0820 -0.2720
 2710POPC   C2B32782  21.774  15.043  15.743  0.0961 -0.1198  0.0644
 2710POPC   C3B32783  21.659  14.958  16.191  0.0225 -0.0308  0.0940
 2710POPC   C4B32784  21.650  15.003  16.698 -0.2098 -0.3355  0.0296
 2711POPC   NC332785  14.443  24.291  15.234  0.1167 -0.2650  0.0846
 2711POPC   PO432786  14.691  24.551  15.064 -0.0266  0.5009 -0.0288
 2711POPC   GL132787  14.503  24.814  15.130  0.0884  0.1762  0.2396
 2711POPC   GL232788  14.441  25.081  15.162  0.1048 -0.1239 -0.0682
 2711POPC   C1A32789  14.416  24.838  15.587 -0.1198  0.0753  0.0089
 2711POPC   D2A32790  14.416  25.084  15.998 -0.1534  0.0547  0.0552
 2711POPC   C3A32791  14.383  25.538  16.040 -0.3236 -0.1963  0.1684
 2711POPC   C4A32792  14.305  25.885  16.260  0.1286 -0.1092  0.1325
 2711POPC   C1B32793  14.184  25.274  15.541  0.3214 -0.1748  0.2857
 2711POPC   C2B32794  13.983  25.255  15.984  0.0687  0.0251  0.3383
 2711POPC   C3B32795  13.883  25.458  16.424  0.1877  0.3396  0.1384
 2711POPC   C4B32796  13.947  25.657  16.861  0.1598  0.1900 -0.0624
 2712POPC   NC332797  15.965   2.928  14.479 -0.2400 -0.0647  0.3449
 2712POPC   PO432798  16.044   2.591  14.608 -0.0334  0.0315  0.1031
 2712POPC   GL132799  16.133   2.498  15.007  0.0115  0.1416  0.2798
 2712POPC   GL232800  16.380   2.348  14.892  0.2494 -0.2221 -0.3099
 2712POPC   C1A32801  15.776   2.335  15.306  0.0116  0.0612  0.0356
 2712POPC   D2A32802  15.663   2.513  15.764 -0.1269 -0.0593 -0.1519
 2712POPC   C3A32803  15.365   2.568  16.170  0.0671  0.2890 -0.3391
 2712POPC   C4A32804  15.232   2.453  16.592  0.1179  0.1143 -0.0410
 2712POPC   C1B32805  16.372   2.468  15.387  0.0212  0.0369 -0.3257
 2712POPC   C2B32806  16.140   2.617  15.747 -0.4391 -0.3344 -0.2403
 2712POPC   C3B32807  15.943   2.606  16.193  0.0122  0.3099 -0.0782
 2712POPC   C4B32808  15.678   2.672  16.588 -0.1060  0.1873  0.2430
 2713POPC   NC332809   9.618   4.130  15.198  0.1964 -0.1477 -0.1049
 2713POPC   PO432810   9.619   3.998  15.582  0.1108  0.2927  0.1447
 2713POPC   GL132811   9.547   4.220  15.806 -0.1854 -0.0278  0.1370
 2713POPC   GL232812   9.234   4.291  15.772 -0.1900 -0.0418 -0.1690
 2713POPC   C1A32813   9.486   4.181  16.267 -0.1358  0.2492  0.2748
 2713POPC   D2A32814   9.408   4.081  16.744  0.0112  0.1827 -0.3744
 2713POPC   C3A32815   9.463   4.430  17.059  0.3108  0.0813  0.0293
 2713POPC   C4A32816   9.394   4.577  17.476  0.0481  0.3677  0.0957
 2713POPC   C1B32817   8.843   4.056  15.770 -0.0352  0.0367 -0.1161
 2713POPC   C2B32818   8.420   4.163  15.852  0.2116 -0.2845 -0.1697
 2713POPC   C3B32819   8.156   3.992  16.229 -0.3513 -0.1660  0.2505
 2713POPC   C4B32820   7.829   4.021  16.560 -0.3298  0.0060  0.0036
 2714POPC   NC332821   7.458   0.196  15.223  0.3458  0.0883 -0.0643
 2714POPC   PO432822   7.284  -0.151  15.278  0.3582  0.2385 -0.2307
 2714POPC   GL132823   7.355  -0.164  15.668  0.0830  0.2612  0.6286
 2714POPC   GL232824   7.620  -0.067  15.645 -0.0597 -0.2853 -0.0389
 2714POPC   C1A32825   7.147  -0.221  16.051  0.1709 -0.0479 -0.0920
 2714POPC   D2A32826   7.326  -0.472  16.408 -0.1294  0.0419  0.0161
 2714POPC   C3A32827   7.354  -0.450  16.872  0.3136  0.2127 -0.0112
 2714POPC   C4A32828   7.192  -0.617  17.293  0.0414  0.0021 -0.1145
 2714POPC   C1B32829   7.557   0.006  16.114  0.1286 -0.1227 -0.1102
 2714POPC   C2B32830   7.278   0.096  16.505 -0.1578 -0.0814  0.3099
 2714POPC   C3B32831   7.147   0.323  16.887 -0.1212 -0.0660  0.2240
 2714POPC   C4B32832   7.287   0.450  17.337  0.0218 -0.1143  0.1047
 2715POPC   NC332833  24.593  13.927  15.217  0.0144 -0.0140 -0.0234
 2715POPC   PO432834  24.292  13.685  15.242  0.0484  0.2652 -0.0182
 2715POPC   GL132835  24.373  13.811  15.614  0.2907 -0.2647  0.1730
 2715POPC   GL232836  24.605  13.961  15.728  0.0613  0.0592  0.2841
 2715POPC   C1A32837  24.331  13.697  16.043  0.0652  0.1801  0.2661
 2715POPC   D2A32838  24.252  13.809  16.481 -0.0951 -0.2690 -0.1458
 2715POPC   C3A32839  24.009  13.781  16.829 -0.2130 -0.2226  0.0377
 2715POPC   C4A32840  24.138  13.973  17.233 -0.1390  0.2823 -0.1883
 2715POPC   C1B32841  24.805  13.914  16.153 -0.0683  0.2695  0.1370
 2715POPC   C2B32842  24.867  13.853  16.625  0.0490 -0.2344 -0.2269
 2715POPC   C3B32843  24.927  13.711  17.068 -0.0461  0.0049  0.2255
 2715POPC   C4B32844  24.823  13.406  17.390 -0.2490  0.2115  0.0732
 2716POPC   NC332845  11.125  15.299  15.140  0.2571 -0.1107 -0.0518
 2716POPC   PO432846  11.088  15.652  14.900  0.0724 -0.1470 -0.2863
 2716POPC   GL132847  11.377  15.701  15.186 -0.3115  0.2261  0.0995
 2716POPC   GL232848  11.391  15.624  15.415 -0.0836 -0.2346 -0.0033
 2716POPC   C1A32849  11.628  16.094  15.152  0.0155 -0.1873  0.0075
 2716POPC   D2A32850  12.058  16.355  15.259  0.0660  0.1680 -0.2471
 2716POPC   C3A32851  12.198  16.649  15.532 -0.0274 -0.1532 -0.1800
 2716POPC   C4A32852  12.312  17.013  15.739  0.1438 -0.1554  0.2060
 2716POPC   C1B32853  11.487  15.457  15.844  0.0915 -0.1065 -0.1887
 2716POPC   C2B32854  11.570  15.532  16.327  0.1543 -0.2238  0.1584
 2716POPC   C3B32855  11.422  15.740  16.747  0.0249 -0.1605  0.2181
 2716POPC   C4B32856  11.548  16.049  17.046 -0.6032 -0.2257  0.1282
 2717POPC   NC332857   5.298  29.350  14.810 -0.1397  0.0371 -0.2946
 2717POPC   PO432858   5.085  29.159  15.047 -0.1647  0.0338 -0.1041
 2717POPC   GL132859   5.008  28.890  15.328  0.2678  0.1853  0.0474
 2717POPC   GL232860   5.202  28.931  15.591  0.2037  0.1632 -0.2207
 2717POPC   C1A32861   4.775  28.648  15.680  0.0371  0.3575 -0.2345
 2717POPC   D2A32862   4.882  28.393  16.014  0.0048 -0.1318  0.0999
 2717POPC   C3A32863   4.884  28.339  16.420 -0.1156 -0.0046 -0.0755
 2717POPC   C4A32864   4.929  28.232  16.875  0.0248 -0.1274 -0.0627
 2717POPC   C1B32865   5.370  28.978  16.027  0.0865  0.3838  0.1113
 2717POPC   C2B32866   5.200  29.245  16.352  0.0068  0.0494 -0.0282
 2717POPC   C3B32867   5.009  29.227  16.794 -0.0211 -0.0055  0.0216
 2717POPC   C4B32868   4.983  29.040  17.211  0.2165  0.1265 -0.0675
 2718POPC   NC332869  23.865  17.946  15.405  0.3213 -0.0763  0.2427
 2718POPC   PO432870  23.942  18.335  15.500 -0.2133  0.2216 -0.1033
 2718POPC   GL132871  23.796  18.242  15.874  0.2877  0.0898 -0.0763
 2718POPC   GL232872  23.542  18.063  15.893 -0.1821  0.0144  0.1713
 2718POPC   C1A32873  23.998  18.136  16.271  0.0359  0.0479 -0.1466
 2718POPC   D2A32874  23.967  18.204  16.725  0.1003  0.0464  0.0321
 2718POPC   C3A32875  24.209  18.137  17.125  0.5865 -0.1288  0.0707
 2718POPC   C4A32876  24.386  18.235  17.564 -0.1889  0.1641  0.3528
 2718POPC   C1B32877  23.620  17.816  16.281  0.2723 -0.0098 -0.1901
 2718POPC   C2B32878  23.673  17.803  16.774  0.1141  0.1627  0.0200
 2718POPC   C3B32879  23.872  17.808  17.216 -0.2799 -0.0063 -0.2366
 2718POPC   C4B32880  24.098  17.673  17.565 -0.1510  0.2057 -0.0561
 2719POPC   NC332881   0.290   4.896  15.309 -0.1050 -0.0194  0.1182
 2719POPC   PO432882   0.059   4.854  15.574  0.0918  0.0571  0.2245
 2719POPC   GL132883   0.272   4.800  15.817  0.1197 -0.0703 -0.4702
 2719POPC   GL232884   0.481   4.979  16.013  0.0270  0.1736  0.0843
 2719POPC   C1A32885   0.522   4.429  16.016 -0.0800 -0.4461  0.0039
 2719POPC   D2A32886   0.755   4.129  16.236 -0.0917 -0.0505  0.1066
 2719POPC   C3A32887   0.603   4.000  16.662 -0.4169  0.0404  0.1595
 2719POPC   C4A32888   0.551   3.755  17.106  0.2164 -0.2102 -0.1160
 2719POPC   C1B32889   0.513   5.036  16.423 -0.1359 -0.0309 -0.2740
 2719POPC   C2B32890   0.286   5.028  16.840 -0.0711 -0.3472 -0.1934
 2719POPC   C3B32891   0.136   4.667  17.106  0.4521 -0.0064  0.1566
 2719POPC   C4B32892  -0.204   4.668  17.406  0.2606 -0.0468 -0.0381
 2720POPC   NC332893  18.502   0.618  15.494  0.0517  0.0954  0.0312
 2720POPC   PO432894  18.788   0.351  15.480 -0.2057 -0.0472  0.2478
 2720POPC   GL132895  18.694   0.462  15.885  0.0529  0.0737 -0.3865
 2720POPC   GL232896  18.882   0.667  15.875  0.4294 -0.1422 -0.0030
 2720POPC   C1A32897  18.687   0.581  16.353  0.0683  0.1789  0.1236
 2720POPC   D2A32898  18.553   0.510  16.790  0.1458 -0.1246  0.1061
 2720POPC   C3A32899  18.627   0.756  17.200 -0.0577 -0.1937  0.0961
 2720POPC   C4A32900  18.532   0.987  17.566 -0.1088 -0.4330  0.2743
 2720POPC   C1B32901  19.255   0.843  16.000  0.1601  0.1570 -0.1019
 2720POPC   C2B32902  19.568   0.867  16.347 -0.1593  0.1376 -0.1040
 2720POPC   C3B32903  19.683   0.920  16.788  0.0685 -0.0241  0.0343
 2720POPC   C4B32904  19.831   1.077  17.197  0.1476 -0.0701  0.0280
 2721POPC   NC332905  26.433  17.192  15.282 -0.0230  0.0175  0.2132
 2721POPC   PO432906  26.267  17.486  15.117 -0.0989 -0.3829 -0.0869
 2721POPC   GL132907  26.627  17.598  15.328 -0.1512  0.2132 -0.0256
 2721POPC   GL232908  26.506  17.658  15.601  0.0768 -0.2423 -0.1566
 2721POPC   C1A32909  26.922  17.438  15.692  0.1589  0.0396 -0.1822
 2721POPC   D2A32910  27.235  17.361  16.062  0.0550 -0.0920 -0.4296
 2721POPC   C3A32911  27.236  16.941  16.313  0.0014 -0.0190  0.0035
 2721POPC   C4A32912  27.590  16.797  16.607 -0.0608  0.0775 -0.0600
 2721POPC   C1B32913  26.509  17.674  16.054  0.2886  0.0573 -0.0599
 2721POPC   C2B32914  26.828  17.574  16.369  0.1269  0.4178 -0.0671
 2721POPC   C3B32915  27.058  17.311  16.731 -0.3175  0.0705  0.1014
 2721POPC   C4B32916  27.216  16.941  16.958  0.0471 -0.0167  0.0706
 2722POPC   NC332917   3.958  28.852  14.695  0.1503 -0.1117 -0.3204
 2722POPC   PO432918   3.613  28.656  14.746  0.1689 -0.3254 -0.0707
 2722POPC   GL132919   3.700  28.670  15.143 -0.2042  0.2027 -0.1685
 2722POPC   GL232920   3.895  28.458  15.188 -0.0365  0.3297  0.0562
 2722POPC   C1A32921   4.033  28.966  15.190  0.0773 -0.0998 -0.2248
 2722POPC   D2A32922   4.269  29.268  15.512  0.3052 -0.2314  0.1898
 2722POPC   C3A32923   4.125  29.587  15.809 -0.0776 -0.1355 -0.2248
 2722POPC   C4A32924   3.861  29.901  16.035  0.0622  0.0727 -0.0362
 2722POPC   C1B32925   4.233  28.478  15.500  0.1018  0.0786 -0.0042
 2722POPC   C2B32926   4.291  28.688  15.915  0.1475  0.1272 -0.0545
 2722POPC   C3B32927   4.059  28.753  16.301 -0.0651 -0.3053 -0.1900
 2722POPC   C4B32928   4.119  28.967  16.745  0.1507  0.1752  0.0685
 2723POPC   NC332929  23.023  16.378  14.817 -0.1599 -0.3617  0.2164
 2723POPC   PO432930  22.844  16.562  15.077  0.1818 -0.0415  0.1145
 2723POPC   GL132931  22.682  16.603  15.427 -0.0846  0.0312 -0.1817
 2723POPC   GL232932  22.844  16.578  15.608 -0.3681  0.1276  0.1915
 2723POPC   C1A32933  22.348  16.857  15.633  0.1583 -0.2684  0.1210
 2723POPC   D2A32934  22.084  16.888  16.040 -0.0241  0.0940  0.0127
 2723POPC   C3A32935  22.025  16.651  16.482  0.3186  0.0776 -0.1998
 2723POPC   C4A32936  22.009  16.668  16.984 -0.0270  0.0337 -0.0988
 2723POPC   C1B32937  22.902  16.720  16.086  0.0261 -0.0946  0.1511
 2723POPC   C2B32938  22.927  16.587  16.521  0.0871 -0.1834 -0.0136
 2723POPC   C3B32939  22.973  16.573  17.004  0.2409 -0.6344  0.0319
 2723POPC   C4B32940  23.041  16.435  17.430 -0.1303 -0.2983  0.1249
 2724POPC   NC332941  22.165  18.300  15.453 -0.3544 -0.0606  0.1830
 2724POPC   PO432942  22.495  18.154  15.619  0.0312 -0.1528  0.0902
 2724POPC   GL132943  22.433  18.084  16.028 -0.3359 -0.0756 -0.0056
 2724POPC   GL232944  22.640  17.934  16.255 -0.0281 -0.2611  0.1507
 2724POPC   C1A32945  22.273  18.326  16.417 -0.3487  0.0872  0.1517
 2724POPC   D2A32946  21.966  18.631  16.630 -0.1333  0.1417 -0.2322
 2724POPC   C3A32947  21.839  18.957  16.887 -0.0403 -0.0163  0.0721
 2724POPC   C4A32948  21.547  18.909  17.213  0.4529  0.1613 -0.5474
 2724POPC   C1B32949  22.640  18.132  16.671 -0.0630 -0.2244 -0.0996
 2724POPC   C2B32950  22.796  18.145  17.101  0.5241 -0.2147 -0.0086
 2724POPC   C3B32951  22.986  18.076  17.520 -0.2082 -0.2053 -0.0871
 2724POPC   C4B32952  23.289  18.070  17.860  0.2987 -0.3209  0.0362
 2725POPC   NC332953  25.237   5.494  15.071 -0.1800  0.1353 -0.0668
 2725POPC   PO432954  25.348   5.108  14.989  0.1924 -0.1251 -0.1054
 2725POPC   GL132955  25.553   5.198  15.305  0.0712  0.0542 -0.4454
 2725POPC   GL232956  25.637   5.508  15.442  0.2925  0.0618  0.1911
 2725POPC   C1A32957  25.668   5.117  15.766  0.3817 -0.1127  0.3639
 2725POPC   D2A32958  26.026   5.288  16.008 -0.0458  0.1887 -0.0513
 2725POPC   C3A32959  26.122   5.262  16.443  0.0126 -0.2967  0.1945
 2725POPC   C4A32960  26.197   5.533  16.763  0.1632  0.1439  0.0968
 2725POPC   C1B32961  25.895   5.686  15.778  0.1924  0.0578  0.2924
 2725POPC   C2B32962  25.991   5.730  16.252  0.2685  0.2903  0.0099
 2725POPC   C3B32963  25.719   5.565  16.611 -0.5170  0.2531 -0.3010
 2725POPC   C4B32964  25.498   5.330  16.904  0.3427  0.1772 -0.1533
 2726POPC   NC332965  13.766   7.531  14.844  0.2213  0.4795 -0.2496
 2726POPC   PO432966  13.536   7.746  15.085  0.1456  0.1302  0.3083
 2726POPC   GL132967  13.517   7.926  15.400 -0.0507 -0.1198  0.2462
 2726POPC   GL232968  13.653   7.827  15.598 -0.1465 -0.1381  0.1676
 2726POPC   C1A32969  13.271   8.189  15.712 -0.4216  0.1006  0.2918
 2726POPC   D2A32970  13.226   8.429  16.105  0.1364  0.0452  0.1925
 2726POPC   C3A32971  13.564   8.688  16.040 -0.2506 -0.5131 -0.1687
 2726POPC   C4A32972  13.994   8.835  15.995 -0.1220 -0.1123 -0.0050
 2726POPC   C1B32973  13.820   7.687  16.032  0.5528  0.2492 -0.1342
 2726POPC   C2B32974  13.965   7.832  16.449  0.0356 -0.3230  0.0397
 2726POPC   C3B32975  14.034   7.845  16.854  0.4688 -0.0792 -0.1407
 2726POPC   C4B32976  14.021   7.886  17.304 -0.3440  0.0781 -0.1976
 2727POPC   NC332977   3.752  12.563  15.399 -0.0386 -0.0534 -0.3094
 2727POPC   PO432978   3.483  12.713  15.114  0.1473  0.0445  0.2262
 2727POPC   GL132979   3.332  12.720  15.538  0.1785 -0.0423 -0.1850
 2727POPC   GL232980   3.360  12.445  15.663 -0.0610  0.1509 -0.0532
 2727POPC   C1A32981   3.644  12.803  15.917  0.1534  0.0330  0.3278
 2727POPC   D2A32982   3.937  12.715  16.265  0.3676 -0.1225  0.0337
 2727POPC   C3A32983   3.687  12.874  16.639  0.0796  0.2082  0.0732
 2727POPC   C4A32984   3.684  13.141  17.019  0.0858 -0.2552 -0.0758
 2727POPC   C1B32985   3.233  12.549  16.074 -0.0748  0.0704 -0.0079
 2727POPC   C2B32986   3.180  12.801  16.443  0.0410  0.0762  0.1658
 2727POPC   C3B32987   3.251  12.799  16.879  0.2325 -0.0980 -0.0532
 2727POPC   C4B32988   3.484  12.756  17.276  0.2322 -0.2090  0.0594
 2728POPC   NC332989   8.560  24.137  15.253  0.2413  0.0855 -0.2407
 2728POPC   PO432990   8.359  24.319  14.969 -0.0602 -0.1358  0.0025
 2728POPC   GL132991   8.059  24.517  15.125 -0.0801 -0.2435 -0.4562
 2728POPC   GL232992   7.965  24.292  15.278 -0.3329  0.0775  0.2665
 2728POPC   C1A32993   7.845  24.733  15.471  0.1438  0.0784 -0.3566
 2728POPC   D2A32994   7.728  24.526  15.847 -0.0692 -0.1260 -0.2520
 2728POPC   C3A32995   7.895  24.349  16.196 -0.0655  0.1687  0.1732
 2728POPC   C4A32996   7.816  24.409  16.641 -0.2021  0.2131  0.3670
 2728POPC   C1B32997   8.199  24.221  15.666 -0.0206 -0.0474  0.1144
 2728POPC   C2B32998   8.361  24.208  16.097 -0.1096  0.1747  0.2107
 2728POPC   C3B32999   8.418  24.356  16.543  0.0020  0.0181  0.2110
 2728POPC   C4B33000   8.371  24.697  16.851 -0.1658  0.2819  0.1213
 2729POPC   NC333001  17.337  17.064  14.975 -0.3850  0.1318  0.1830
 2729POPC   PO433002  17.387  17.362  15.193 -0.3651 -0.3016 -0.3072
 2729POPC   GL133003  17.541  17.199  15.523 -0.2111 -0.1382  0.1920
 2729POPC   GL233004  17.835  17.142  15.596  0.0329  0.1448 -0.2643
 2729POPC   C1A33005  17.547  16.787  15.777  0.1200  0.0590 -0.1947
 2729POPC   D2A33006  17.553  16.503  16.117  0.0406 -0.1203  0.0270
 2729POPC   C3A33007  17.423  16.734  16.504 -0.3114 -0.1021 -0.0506
 2729POPC   C4A33008  17.651  16.927  16.860 -0.1484  0.1511 -0.0065
 2729POPC   C1B33009  17.915  17.022  16.010 -0.1481  0.2690  0.1513
 2729POPC   C2B33010  17.953  16.843  16.458 -0.1454 -0.2183 -0.0097
 2729POPC   C3B33011  18.151  17.073  16.855  0.0212 -0.2906 -0.2697
 2729POPC   C4B33012  17.926  17.047  17.249  0.0113  0.1089 -0.0841
 2730POPC   NC333013  24.244   2.294  15.588  0.0536  0.0806 -0.1105
 2730POPC   PO433014  24.179   1.955  15.365 -0.3344 -0.2607  0.0562
 2730POPC   GL133015  24.135   1.861  15.758 -0.1924 -0.2368  0.2326
 2730POPC   GL233016  23.867   2.001  15.851 -0.1167 -0.1147 -0.1443
 2730POPC   C1A33017  24.234   1.768  16.235  0.0283 -0.0777  0.1692
 2730POPC   D2A33018  24.129   1.426  16.517  0.0269  0.1587 -0.0699
 2730POPC   C3A33019  23.829   1.436  16.854  0.1515 -0.2919 -0.0102
 2730POPC   C4A33020  23.917   1.410  17.292 -0.0773 -0.0928 -0.0338
 2730POPC   C1B33021  23.653   2.171  16.246  0.0137 -0.0272  0.0672
 2730POPC   C2B33022  23.495   2.460  16.558 -0.1676 -0.0525 -0.0407
 2730POPC   C3B33023  23.436   2.562  16.966  0.1211  0.0133 -0.0175
 2730POPC   C4B33024  23.066   2.879  17.099  0.0681 -0.0164  0.0741
 2731POPC   NC333025   8.571  23.302  15.433 -0.0480  0.0344 -0.1734
 2731POPC   PO433026   8.228  23.046  15.485  0.0483  0.1274 -0.2757
 2731POPC   GL133027   8.384  23.274  15.872  0.1361  0.1693  0.2468
 2731POPC   GL233028   8.591  23.032  15.920  0.0521 -0.0169 -0.0421
 2731POPC   C1A33029   8.457  23.387  16.282  0.0343  0.1447 -0.0295
 2731POPC   D2A33030   8.352  23.277  16.725 -0.5141 -0.1007 -0.1299
 2731POPC   C3A33031   8.344  23.418  17.213  0.0481  0.0141  0.1170
 2731POPC   C4A33032   8.167  23.551  17.614 -0.2086 -0.3320  0.0259
 2731POPC   C1B33033   8.283  22.812  16.174 -0.1212  0.0582 -0.1393
 2731POPC   C2B33034   8.030  22.898  16.559 -0.0873  0.0791 -0.6391
 2731POPC   C3B33035   8.104  22.850  17.041 -0.0994  0.0498 -0.0795
 2731POPC   C4B33036   7.853  22.737  17.442  0.0644  0.0292  0.2058
 2732POPC   NC333037  20.388  28.523  15.196  0.0952 -0.0845  0.3030
 2732POPC   PO433038  20.695  28.510  14.942  0.0245 -0.0769 -0.0458
 2732POPC   GL133039  20.792  28.404  15.435 -0.0908 -0.0989  0.0835
 2732POPC   GL233040  20.871  28.724  15.493  0.1187 -0.1423  0.0222
 2732POPC   C1A33041  20.710  27.951  15.694 -0.2566 -0.1440  0.1698
 2732POPC   D2A33042  20.626  27.769  16.145  0.1274  0.0863  0.1648
 2732POPC   C3A33043  20.500  28.051  16.482 -0.3223  0.3294 -0.2549
 2732POPC   C4A33044  20.318  27.963  16.907 -0.2104 -0.1588  0.1341
 2732POPC   C1B33045  21.100  28.663  15.843  0.0923 -0.3628 -0.1961
 2732POPC   C2B33046  21.065  28.621  16.303 -0.0621 -0.0013 -0.2153
 2732POPC   C3B33047  20.987  28.198  16.546  0.1845 -0.1156  0.1793
 2732POPC   C4B33048  20.957  27.923  16.957  0.0930 -0.2461 -0.0100
 2733POPC   NC333049  25.927  26.150  15.180 -0.0492  0.0038  0.2916
 2733POPC   PO433050  25.682  26.374  15.371 -0.0769 -0.2608 -0.0325
 2733POPC   GL133051  25.837  26.237  15.656  0.0536  0.0504  0.4401
 2733POPC   GL233052  25.770  25.988  15.792  0.1391  0.2774 -0.1382
 2733POPC   C1A33053  25.837  26.327  16.116  0.0980 -0.0972  0.1842
 2733POPC   D2A33054  25.842  26.537  16.520  0.2745  0.2140  0.1461
 2733POPC   C3A33055  25.833  26.737  16.925  0.0526 -0.0088 -0.1107
 2733POPC   C4A33056  26.067  26.854  17.301  0.0225  0.1901  0.1426
 2733POPC   C1B33057  25.493  25.748  16.089 -0.1243  0.0812 -0.1470
 2733POPC   C2B33058  25.403  25.670  16.569  0.0077  0.0893 -0.1033
 2733POPC   C3B33059  25.450  25.245  16.698 -0.0138 -0.2640  0.1612
 2733POPC   C4B33060  25.766  25.106  17.028  0.3233  0.0109 -0.3412
 2734POPC   NC333061  27.243  20.742  15.244  0.0815  0.2249 -0.0918
 2734POPC   PO433062  26.850  20.919  15.222 -0.0044  0.2698  0.1777
 2734POPC   GL133063  26.882  20.560  15.454 -0.3059  0.0222 -0.3079
 2734POPC   GL233064  27.079  20.539  15.678  0.1972 -0.1682  0.3339
 2734POPC   C1A33065  26.602  20.552  15.812  0.4579 -0.3331 -0.2410
 2734POPC   D2A33066  26.163  20.678  15.904  0.1265 -0.0950 -0.2489
 2734POPC   C3A33067  25.960  20.920  16.244 -0.1422  0.0902  0.0405
 2734POPC   C4A33068  25.847  21.137  16.667 -0.0751  0.1336  0.0055
 2734POPC   C1B33069  27.153  20.466  16.096 -0.0176 -0.3660  0.0128
 2734POPC   C2B33070  27.144  20.643  16.546  0.1010 -0.0500  0.1368
 2734POPC   C3B33071  26.998  20.598  16.982  0.1612  0.0662  0.0563
 2734POPC   C4B33072  26.870  20.830  17.301 -0.0033 -0.0143 -0.1687
 2735POPC   NC333073   6.614  21.262  15.783 -0.4103 -0.0686 -0.0226
 2735POPC   PO433074   6.596  20.881  15.871 -0.3273  0.0738  0.1049
 2735POPC   GL133075   6.701  20.770  16.248 -0.0784  0.2023 -0.0229
 2735POPC   GL233076   6.515  20.943  16.385  0.0863 -0.2289 -0.1305
 2735POPC   C1A33077   6.896  20.914  16.668  0.0050 -0.1679  0.3188
 2735POPC   D2A33078   6.960  21.111  17.093 -0.0822  0.1393  0.4380
 2735POPC   C3A33079   7.277  21.485  17.195  0.0604  0.1540  0.3747
 2735POPC   C4A33080   7.471  21.710  17.587  0.1849 -0.1041  0.1117
 2735POPC   C1B33081   6.501  21.159  16.779 -0.0412  0.1371  0.1304
 2735POPC   C2B33082   6.526  21.229  17.267 -0.1545  0.0818 -0.2100
 2735POPC   C3B33083   6.812  21.165  17.641 -0.1428 -0.2262 -0.0269
 2735POPC   C4B33084   7.249  21.282  17.828 -0.0217 -0.3943 -0.0376
 2736POPC   NC333085  19.822  25.755  15.143  0.0367 -0.0528  0.0547
 2736POPC   PO433086  20.118  25.493  15.028  0.0220 -0.1807  0.2688
 2736POPC   GL133087  20.156  25.498  15.382  0.1351 -0.1712 -0.3948
 2736POPC   GL233088  20.330  25.278  15.489  0.3559  0.2301  0.1184
 2736POPC   C1A33089  19.897  25.298  15.707 -0.0813 -0.1421  0.2548
 2736POPC   D2A33090  19.744  25.099  16.036 -0.1506 -0.1907 -0.0178
 2736POPC   C3A33091  19.950  25.105  16.448  0.0614  0.1394 -0.1924
 2736POPC   C4A33092  19.692  24.966  16.834  0.1175  0.2280 -0.2134
 2736POPC   C1B33093  20.404  25.554  15.836 -0.0773 -0.0533  0.1951
 2736POPC   C2B33094  20.406  25.993  15.995  0.2406 -0.0618  0.0800
 2736POPC   C3B33095  20.175  26.391  16.070  0.0058  0.0376 -0.1080
 2736POPC   C4B33096  20.069  26.765  16.320 -0.1839  0.2712 -0.1304
 2737POPC   NC333097   8.880   0.798  15.502  0.1443  0.1042 -0.2856
 2737POPC   PO433098   9.110   0.999  15.329 -0.0676  0.3548  0.3798
 2737POPC   GL133099   9.259   1.031  15.683  0.1576 -0.2116 -0.2000
 2737POPC   GL233100   9.356   0.828  15.829 -0.3133  0.0928 -0.1682
 2737POPC   C1A33101   9.199   1.302  16.073 -0.1010  0.2778  0.0016
 2737POPC   D2A33102   9.099   1.483  16.520 -0.1152  0.1208 -0.0882
 2737POPC   C3A33103   9.387   1.514  16.870  0.0747  0.1287 -0.3315
 2737POPC   C4A33104   9.578   1.606  17.254 -0.0562  0.1164  0.0869
 2737POPC   C1B33105   9.425   0.802  16.276  0.1370 -0.1935 -0.0462
 2737POPC   C2B33106   9.492   0.523  16.637 -0.1584  0.1013  0.0946
 2737POPC   C3B33107   9.547   0.480  17.045 -0.1031  0.0830  0.0487
 2737POPC   C4B33108   9.495   0.239  17.385 -0.0178 -0.2797  0.0457
 2738POPC   NC333109  20.744   5.339  15.332  0.0573  0.0853  0.0620
 2738POPC   PO433110  20.625   5.669  15.402 -0.2270  0.1214  0.1135
 2738POPC   GL133111  20.885   5.779  15.605 -0.0032  0.0754 -0.0319
 2738POPC   GL233112  20.870   5.531  15.799 -0.1753 -0.0744  0.0821
 2738POPC   C1A33113  21.090   5.859  16.034  0.0334  0.0486 -0.0421
 2738POPC   D2A33114  21.387   5.638  16.319 -0.0362 -0.1758  0.0351
 2738POPC   C3A33115  21.550   5.583  16.743  0.0927 -0.0366  0.3401
 2738POPC   C4A33116  21.871   5.776  17.087 -0.2047  0.2371  0.2005
 2738POPC   C1B33117  21.030   5.325  16.232 -0.0712 -0.0109  0.0267
 2738POPC   C2B33118  20.990   5.399  16.673  0.0769  0.2909 -0.1898
 2738POPC   C3B33119  21.213   5.300  17.069  0.0887 -0.0877 -0.1561
 2738POPC   C4B33120  21.371   5.603  17.396 -0.0954 -0.0483 -0.0865
 2739POPC   NC333121  25.808  16.440  15.361 -0.1642  0.3305 -0.0890
 2739POPC   PO433122  25.851  16.665  15.042  0.3525 -0.2554 -0.2523
 2739POPC   GL133123  26.140  16.814  15.262  0.3256  0.1881  0.1945
 2739POPC   GL233124  25.974  17.005  15.398  0.3767  0.0589 -0.1454
 2739POPC   C1A33125  26.450  16.728  15.526 -0.2148 -0.0564  0.2304
 2739POPC   D2A33126  26.700  16.507  15.768 -0.3635  0.1747  0.0235
 2739POPC   C3A33127  26.852  16.605  16.180 -0.0194 -0.0445  0.1873
 2739POPC   C4A33128  26.896  16.826  16.597  0.0457 -0.0477 -0.2696
 2739POPC   C1B33129  25.894  17.303  15.659  0.1275  0.2931  0.1423
 2739POPC   C2B33130  26.045  17.697  15.865 -0.0955 -0.2434 -0.0393
 2739POPC   C3B33131  26.171  18.050  16.167 -0.2402 -0.3131 -0.1387
 2739POPC   C4B33132  26.091  18.174  16.616  0.0296 -0.0330 -0.0330
 2740POPC   NC333133  12.056  23.216  15.067  0.2222  0.1855 -0.3751
 2740POPC   PO433134  12.340  23.484  15.073  0.1256  0.0264 -0.1986
 2740POPC   GL133135  12.339  23.459  15.463  0.2561 -0.2359 -0.1612
 2740POPC   GL233136  12.529  23.664  15.613  0.1226  0.1307 -0.1350
 2740POPC   C1A33137  12.018  23.426  15.834 -0.2744  0.0076 -0.1389
 2740POPC   D2A33138  11.777  23.747  16.130 -0.2909 -0.0739 -0.0811
 2740POPC   C3A33139  11.409  23.785  16.407 -0.0253 -0.2929 -0.1579
 2740POPC   C4A33140  11.244  23.657  16.847 -0.2611  0.1527  0.3797
 2740POPC   C1B33141  12.351  23.845  16.017  0.2502  0.2192 -0.0255
 2740POPC   C2B33142  12.342  23.800  16.484  0.2461 -0.2250 -0.2049
 2740POPC   C3B33143  12.226  23.836  16.917  0.3269  0.1879 -0.0012
 2740POPC   C4B33144  11.917  23.622  17.218 -0.1220 -0.2553 -0.1732
 2741POPC   NC333145   5.520  25.836  15.318  0.0473 -0.1862 -0.0133
 2741POPC   PO433146   5.847  25.920  15.128 -0.3282 -0.2152  0.1371
 2741POPC   GL133147   5.993  25.892  15.468  0.2662 -0.0654  0.0181
 2741POPC   GL233148   6.230  26.106  15.461  0.0662 -0.1447 -0.0531
 2741POPC   C1A33149   5.825  26.060  15.833 -0.0416  0.0425 -0.1495
 2741POPC   D2A33150   6.057  26.055  16.213 -0.1933  0.3255 -0.0340
 2741POPC   C3A33151   6.162  26.182  16.632 -0.2078 -0.2878 -0.2698
 2741POPC   C4A33152   6.336  26.153  17.073 -0.0846 -0.2720  0.1265
 2741POPC   C1B33153   6.487  25.921  15.795  0.0249  0.1569  0.1572
 2741POPC   C2B33154   6.585  25.648  16.178 -0.0667 -0.1088  0.1224
 2741POPC   C3B33155   6.865  25.558  16.580  0.0929 -0.1505 -0.0419
 2741POPC   C4B33156   7.073  25.435  17.016  0.0843 -0.1178  0.1051
 2742POPC   NC333157  19.268   8.411  15.445 -0.1780 -0.0566 -0.0449
 2742POPC   PO433158  19.002   8.204  15.284 -0.1412  0.1865 -0.1280
 2742POPC   GL133159  18.895   8.161  15.610  0.1008 -0.2215 -0.2000
 2742POPC   GL233160  18.547   8.138  15.657 -0.1692 -0.1568  0.0193
 2742POPC   C1A33161  19.006   8.348  16.011 -0.1939  0.1599  0.1599
 2742POPC   D2A33162  19.095   8.318  16.475 -0.1257  0.0786  0.0856
 2742POPC   C3A33163  19.523   8.221  16.493 -0.1599 -0.0503 -0.0292
 2742POPC   C4A33164  19.850   8.241  16.123 -0.2382 -0.0552 -0.0290
 2742POPC   C1B33165  18.522   8.225  16.129 -0.0672  0.0732  0.0570
 2742POPC   C2B33166  18.438   8.084  16.543 -0.1296 -0.1967 -0.1194
 2742POPC   C3B33167  18.432   8.078  17.023  0.1590 -0.2231 -0.1589
 2742POPC   C4B33168  18.411   8.352  17.423  0.0981 -0.1769  0.2371
 2743POPC   NC333169  22.448  30.475  15.590 -0.1694  0.1169  0.0354
 2743POPC   PO433170  22.097  30.611  15.459 -0.1973  0.1722 -0.0622
 2743POPC   GL133171  21.904  31.004  15.615  0.0768  0.3788  0.0087
 2743POPC   GL233172  21.661  30.942  15.706  0.1052  0.2475  0.1146
 2743POPC   C1A33173  22.162  31.232  15.962  0.0404  0.2861  0.0255
 2743POPC   D2A33174  22.512  31.275  16.184  0.0785  0.1952  0.1378
 2743POPC   C3A33175  22.356  31.175  16.595  0.2678  0.0824  0.0468
 2743POPC   C4A33176  22.034  30.867  16.779  0.1504  0.0793  0.2605
 2743POPC   C1B33177  21.679  31.348  15.971 -0.1813  0.2054 -0.0238
 2743POPC   C2B33178  21.726  31.587  16.409 -0.0039 -0.2259 -0.0430
 2743POPC   C3B33179  21.518  31.660  16.807 -0.0821 -0.2611 -0.0611
 2743POPC   C4B33180  21.282  31.453  17.086 -0.0479 -0.0171  0.0169
 2744POPC   NC333181  10.634  15.001  15.326 -0.1829 -0.2621 -0.2121
 2744POPC   PO433182  10.693  15.370  15.376 -0.1999  0.0598 -0.2128
 2744POPC   GL133183  11.046  15.432  15.589  0.0428 -0.1707 -0.0623
 2744POPC   GL233184  10.977  15.594  15.793 -0.2457 -0.2334 -0.1700
 2744POPC   C1A33185  11.182  15.153  15.964  0.1082 -0.3033  0.2191
 2744POPC   D2A33186  11.281  14.924  16.347  0.1561  0.1214 -0.1177
 2744POPC   C3A33187  11.247  14.460  16.246 -0.1499 -0.0005 -0.3124
 2744POPC   C4A33188  11.396  14.135  16.524  0.1174 -0.1501 -0.0453
 2744POPC   C1B33189  11.273  15.816  16.111  0.1411 -0.4823  0.0363
 2744POPC   C2B33190  11.193  16.160  16.521  0.0165 -0.0607  0.1194
 2744POPC   C3B33191  11.371  16.456  16.797  0.2121 -0.1965  0.2760
 2744POPC   C4B33192  11.447  16.923  16.727  0.2657  0.1081  0.0645
 2745POPC   NC333193  13.639   3.713  14.737  0.0203  0.0861  0.2055
 2745POPC   PO433194  13.664   3.646  15.136  0.2691 -0.2958  0.2569
 2745POPC   GL133195  13.589   3.785  15.479  0.0709 -0.0098 -0.1565
 2745POPC   GL233196  13.758   4.079  15.413  0.3567  0.0742 -0.2625
 2745POPC   C1A33197  13.303   3.731  15.850 -0.3582 -0.3707 -0.0342
 2745POPC   D2A33198  13.105   3.780  16.296 -0.1883  0.0424 -0.3393
 2745POPC   C3A33199  12.804   3.515  16.650  0.1041  0.0797  0.0264
 2745POPC   C4A33200  12.596   3.307  16.948 -0.2124 -0.0663  0.0816
 2745POPC   C1B33201  13.783   3.826  15.872 -0.1712 -0.0728 -0.1039
 2745POPC   C2B33202  13.763   3.896  16.318  0.0781  0.1110  0.1185
 2745POPC   C3B33203  13.976   3.983  16.741  0.1327 -0.0422 -0.1193
 2745POPC   C4B33204  13.831   4.279  17.028  0.2546  0.2353 -0.1566
 2746POPC   NC333205  20.519  30.258  15.630 -0.2061 -0.5045  0.0965
 2746POPC   PO433206  20.255  30.335  15.403  0.1181 -0.1141 -0.0754
 2746POPC   GL133207  20.035  30.396  15.751  0.0732 -0.1530 -0.1180
 2746POPC   GL233208  19.813  30.467  15.925  0.0519 -0.3247 -0.1677
 2746POPC   C1A33209  20.125  30.082  16.163  0.0765  0.0329  0.0192
 2746POPC   D2A33210  20.377  29.757  16.379 -0.2830  0.3895 -0.1041
 2746POPC   C3A33211  20.736  29.873  16.632 -0.3615  0.2898  0.1277
 2746POPC   C4A33212  20.986  29.853  17.047 -0.1518 -0.4988 -0.0446
 2746POPC   C1B33213  19.725  30.901  16.077  0.0504  0.0397  0.0203
 2746POPC   C2B33214  19.715  31.309  16.303  0.1092  0.2158  0.0599
 2746POPC   C3B33215  19.780  31.759  16.348 -0.0285  0.3166  0.1501
 2746POPC   C4B33216  19.684  32.150  16.230  0.1321  0.0459 -0.2261
 2747POPC   NC333217  21.268   6.904  15.710  0.0517 -0.0041  0.0190
 2747POPC   PO433218  21.471   6.909  15.389  0.3050  0.1686 -0.1231
 2747POPC   GL133219  21.548   6.579  15.650 -0.0093 -0.3810  0.0386
 2747POPC   GL233220  21.345   6.412  15.710  0.1806  0.2056 -0.0431
 2747POPC   C1A33221  21.671   6.686  16.101  0.0832  0.4514 -0.0918
 2747POPC   D2A33222  21.765   6.777  16.523 -0.1941  0.1591  0.1277
 2747POPC   C3A33223  21.710   6.395  16.784  0.2989 -0.0155  0.0505
 2747POPC   C4A33224  21.472   6.091  17.052  0.0393 -0.0072 -0.0178
 2747POPC   C1B33225  21.102   6.515  16.073 -0.2102 -0.3698  0.3265
 2747POPC   C2B33226  21.176   6.498  16.500  0.1769  0.0608 -0.3802
 2747POPC   C3B33227  21.064   6.392  16.891 -0.2077  0.1458 -0.4011
 2747POPC   C4B33228  21.031   6.224  17.286 -0.0666  0.1710 -0.1391
 2748POPC   NC333229  24.287   0.751  15.337  0.2126  0.1326 -0.1335
 2748POPC   PO433230  24.592   0.936  15.494 -0.0185 -0.1087 -0.0267
 2748POPC   GL133231  24.647   1.117  15.836  0.0659  0.0370 -0.1754
 2748POPC   GL233232  24.457   1.296  16.009  0.2133 -0.0341 -0.3260
 2748POPC   C1A33233  24.885   1.127  16.250 -0.2553 -0.0151  0.4396
 2748POPC   D2A33234  24.955   0.902  16.583 -0.2623 -0.1886  0.2207
 2748POPC   C3A33235  25.127   1.040  16.974 -0.0771  0.1906 -0.3770
 2748POPC   C4A33236  25.186   1.410  17.358  0.2198 -0.0180 -0.0873
 2748POPC   C1B33237  24.375   0.971  16.346  0.0077  0.0599  0.1681
 2748POPC   C2B33238  24.430   0.616  16.578 -0.3218  0.1452  0.0084
 2748POPC   C3B33239  24.233   0.569  16.964  0.1513  0.0471  0.1814
 2748POPC   C4B33240  24.080   0.798  17.266  0.0279 -0.1659  0.1309
 2749POPC   NC333241   3.058  25.973  15.018  0.0479 -0.0791  0.1668
 2749POPC   PO433242   3.290  26.268  15.074 -0.0291  0.1101  0.3373
 2749POPC   GL133243   3.283  26.215  15.393  0.3194  0.1780  0.0898
 2749POPC   GL233244   3.041  26.002  15.500 -0.0939  0.3535 -0.1228
 2749POPC   C1A33245   3.462  26.391  15.751 -0.0705 -0.0398  0.0717
 2749POPC   D2A33246   3.435  26.683  16.086  0.0776  0.1155  0.2270
 2749POPC   C3A33247   3.282  26.979  16.340  0.2251 -0.5214  0.1049
 2749POPC   C4A33248   3.388  27.019  16.790  0.2737  0.3378 -0.0243
 2749POPC   C1B33249   3.054  26.136  15.946  0.0456  0.0528  0.3276
 2749POPC   C2B33250   3.025  26.351  16.342 -0.0488 -0.0108  0.2058
 2749POPC   C3B33251   3.362  26.524  16.602  0.0031  0.0886 -0.1975
 2749POPC   C4B33252   3.724  26.475  16.911 -0.2549  0.2345 -0.2486
 2750POPC   NC333253  15.984   8.844  15.255  0.3056  0.0363 -0.3146
 2750POPC   PO433254  16.288   8.932  15.519 -0.2607 -0.0240 -0.1466
 2750POPC   GL133255  16.308   8.919  15.899 -0.2792  0.0971 -0.1040
 2750POPC   GL233256  16.227   8.705  16.079 -0.0140 -0.0737 -0.2589
 2750POPC   C1A33257  16.374   9.060  16.349 -0.0735 -0.1441  0.1820
 2750POPC   D2A33258  16.259   8.924  16.800 -0.1278 -0.1669  0.1270
 2750POPC   C3A33259  16.593   8.808  17.098 -0.1679 -0.3425  0.0911
 2750POPC   C4A33260  16.765   8.408  17.283 -0.0713  0.0221 -0.1588
 2750POPC   C1B33261  16.386   8.594  16.469  0.3290  0.4670 -0.0544
 2750POPC   C2B33262  16.721   8.438  16.759 -0.0309 -0.2022  0.0181
 2750POPC   C3B33263  17.186   8.332  16.983  0.2833 -0.0202  0.1437
 2750POPC   C4B33264  17.532   8.348  17.365  0.1776 -0.1753 -0.1075
 2751POPC   NC333265  13.640   9.708  14.687  0.2152 -0.1402 -0.0854
 2751POPC   PO433266  13.982   9.724  14.479 -0.2904 -0.0729  0.2297
 2751POPC   GL133267  14.126  10.156  14.405  0.0003  0.2547  0.1604
 2751POPC   GL233268  14.371  10.064  14.524 -0.3027 -0.1823 -0.0559
 2751POPC   C1A33269  14.108  10.461  14.746 -0.2733 -0.2273 -0.0836
 2751POPC   D2A33270  13.923  10.609  15.154  0.1643  0.0436  0.0792
 2751POPC   C3A33271  14.031  10.989  15.345  0.6694  0.0780  0.0417
 2751POPC   C4A33272  13.917  11.403  15.214  0.0697 -0.2245  0.1029
 2751POPC   C1B33273  14.599  10.282  14.887 -0.2341  0.1432 -0.3492
 2751POPC   C2B33274  14.832  10.352  15.279  0.1039 -0.1233 -0.0506
 2751POPC   C3B33275  14.904  10.173  15.734 -0.2800 -0.2287 -0.0341
 2751POPC   C4B33276  15.169  10.391  16.070  0.3329 -0.3707 -0.0112
 2752POPC   NC333277  26.360   3.636  15.236  0.0639  0.2712 -0.1032
 2752POPC   PO433278  26.474   3.323  15.502 -0.0603 -0.3299  0.1115
 2752POPC   GL133279  26.262   3.059  15.850  0.2250 -0.3537  0.0209
 2752POPC   GL233280  26.074   2.855  15.623  0.2853  0.2216 -0.2912
 2752POPC   C1A33281  26.325   3.021  16.277 -0.0525  0.1761  0.2219
 2752POPC   D2A33282  26.233   2.891  16.750  0.0809  0.0964 -0.1763
 2752POPC   C3A33283  26.565   2.958  17.085 -0.1506  0.0171  0.2143
 2752POPC   C4A33284  26.751   2.856  17.475 -0.1408  0.0412  0.2065
 2752POPC   C1B33285  25.999   2.613  16.039 -0.1427  0.1695 -0.2640
 2752POPC   C2B33286  25.854   2.728  16.467 -0.2552  0.1519  0.0153
 2752POPC   C3B33287  25.694   3.008  16.755  0.3245  0.0423  0.1575
 2752POPC   C4B33288  25.570   3.500  16.875  0.1847 -0.1080  0.0748
 2753POPC   NC333289  25.389   8.334  15.612  0.1645  0.1173  0.1170
 2753POPC   PO433290  25.719   8.425  15.432  0.1754 -0.1505 -0.1297
 2753POPC   GL133291  25.805   8.448  15.845  0.2675  0.1021 -0.0044
 2753POPC   GL233292  25.805   8.174  15.973 -0.2310 -0.2170  0.1748
 2753POPC   C1A33293  25.717   8.806  16.131 -0.0136  0.1479  0.0031
 2753POPC   D2A33294  25.607   9.020  16.472  0.0325 -0.0977 -0.1844
 2753POPC   C3A33295  25.733   8.817  16.822 -0.1400  0.2915 -0.1054
 2753POPC   C4A33296  25.820   8.493  17.148 -0.1436 -0.0195  0.0854
 2753POPC   C1B33297  25.823   7.921  16.398  0.1513  0.2525 -0.1461
 2753POPC   C2B33298  26.068   7.619  16.640 -0.1098  0.1672 -0.0216
 2753POPC   C3B33299  26.335   7.570  16.994  0.1000 -0.0917 -0.0749
 2753POPC   C4B33300  26.583   7.637  17.416 -0.3644  0.1207 -0.0094
 2754POPC   NC333301  10.961   9.056  15.476 -0.0709 -0.1011  0.1500
 2754POPC   PO433302  10.760   8.787  15.609  0.0212 -0.0721 -0.1113
 2754POPC   GL133303  10.856   8.772  16.022  0.3526 -0.1634  0.3366
 2754POPC   GL233304  10.609   8.943  16.169 -0.0777  0.0443  0.3781
 2754POPC   C1A33305  10.995   8.835  16.480  0.2966 -0.1830  0.2224
 2754POPC   D2A33306  11.238   9.186  16.760 -0.4233 -0.2582 -0.0322
 2754POPC   C3A33307  11.265   9.255  17.233 -0.2201 -0.0743 -0.1789
 2754POPC   C4A33308  11.246   9.353  17.664  0.2685  0.0232  0.1487
 2754POPC   C1B33309  10.104   8.761  16.313 -0.2941 -0.2958 -0.2249
 2754POPC   C2B33310   9.974   8.828  16.714 -0.3025 -0.0253  0.0817
 2754POPC   C3B33311  10.109   9.082  17.060  0.0603  0.2538 -0.1515
 2754POPC   C4B33312   9.822   9.406  17.293  0.2555  0.3704  0.3075
 2755POPC   NC333313  16.027  12.189  14.741 -0.0174 -0.0891 -0.2250
 2755POPC   PO433314  16.307  12.012  14.918 -0.1466  0.0228  0.1457
 2755POPC   GL133315  16.269  11.843  15.251  0.0386 -0.2681  0.0746
 2755POPC   GL233316  15.933  11.773  15.210 -0.1481 -0.0771 -0.0281
 2755POPC   C1A33317  15.996  11.982  15.628  0.0274  0.1918  0.1350
 2755POPC   D2A33318  15.653  12.120  15.843  0.0269 -0.0050  0.1365
 2755POPC   C3A33319  15.535  12.039  16.258 -0.2506  0.1333  0.2474
 2755POPC   C4A33320  15.368  11.921  16.647  0.0141 -0.3082 -0.0675
 2755POPC   C1B33321  15.683  11.566  15.584 -0.2804  0.0503  0.0365
 2755POPC   C2B33322  15.377  11.324  15.795  0.0683  0.2924 -0.1159
 2755POPC   C3B33323  15.241  10.874  15.756 -0.1383 -0.0684 -0.1723
 2755POPC   C4B33324  15.242  10.487  15.572  0.0965 -0.0736  0.0052
 2756POPC   NC333325  22.917  17.843  15.215 -0.0378 -0.0532  0.2051
 2756POPC   PO433326  22.865  18.275  15.220 -0.0838 -0.0816 -0.0019
 2756POPC   GL133327  22.894  18.293  15.751 -0.2217 -0.0434 -0.1344
 2756POPC   GL233328  23.006  18.002  15.793 -0.4526  0.0701  0.2138
 2756POPC   C1A33329  23.266  18.445  16.019  0.0970 -0.1315  0.1891
 2756POPC   D2A33330  23.489  18.298  16.415  0.2107  0.1118 -0.2025
 2756POPC   C3A33331  23.449  18.403  16.867 -0.0070 -0.0101  0.2807
 2756POPC   C4A33332  23.359  18.390  17.303  0.2610  0.0632  0.4366
 2756POPC   C1B33333  23.109  18.018  16.224 -0.1367  0.2177  0.1849
 2756POPC   C2B33334  23.139  17.870  16.635 -0.0405  0.0563  0.0418
 2756POPC   C3B33335  23.266  17.899  17.081 -0.1050  0.0729 -0.3024
 2756POPC   C4B33336  23.459  17.726  17.470  0.1244  0.1456  0.2355
 2757POPC   NC333337  19.382  29.924  15.148  0.0970  0.0352 -0.0233
 2757POPC   PO433338  19.595  29.714  15.405 -0.0757  0.3722  0.1332
 2757POPC   GL133339  19.589  29.568  15.781 -0.1969 -0.2488 -0.1010
 2757POPC   GL233340  19.414  29.355  15.668  0.0902 -0.3134  0.2666
 2757POPC   C1A33341  19.752  29.597  16.201 -0.2367  0.2453  0.2959
 2757POPC   D2A33342  19.845  29.807  16.592 -0.0150 -0.0675  0.2954
 2757POPC   C3A33343  20.218  29.939  16.784  0.0507 -0.0493  0.2304
 2757POPC   C4A33344  20.516  29.760  17.048  0.2674 -0.1741 -0.1738
 2757POPC   C1B33345  19.759  29.158  15.950 -0.0667 -0.1838 -0.0783
 2757POPC   C2B33346  19.707  29.075  16.393 -0.1539 -0.3141 -0.2042
 2757POPC   C3B33347  19.634  29.322  16.789  0.2647 -0.0613  0.0254
 2757POPC   C4B33348  19.506  29.644  17.041 -0.0624 -0.4366  0.1412
 2758POPC   NC333349   1.267  14.927  15.097 -0.0212 -0.0479  0.0120
 2758POPC   PO433350   1.308  15.153  15.415  0.5384 -0.2428 -0.0742
 2758POPC   GL133351   1.264  15.412  15.778  0.1081 -0.0271  0.0753
 2758POPC   GL233352   0.995  15.272  15.832 -0.0415 -0.0283  0.0397
 2758POPC   C1A33353   1.142  15.780  16.041 -0.0915 -0.0296 -0.0937
 2758POPC   D2A33354   1.217  16.102  16.379  0.4378 -0.0444 -0.4775
 2758POPC   C3A33355   1.569  16.148  16.658  0.0086 -0.0108 -0.0089
 2758POPC   C4A33356   1.679  16.046  17.099  0.0857  0.0237 -0.2648
 2758POPC   C1B33357   0.857  15.387  16.210  0.0972 -0.3203  0.1459
 2758POPC   C2B33358   0.881  15.325  16.659  0.2453  0.0394  0.0156
 2758POPC   C3B33359   0.863  15.586  17.046 -0.3862  0.0981 -0.2137
 2758POPC   C4B33360   0.959  15.518  17.453  0.0364 -0.3789 -0.3047
 2759POPC   NC333361  10.477  27.280  15.296 -0.0163 -0.1594 -0.0052
 2759POPC   PO433362  10.217  27.503  15.240  0.2352  0.2256 -0.2242
 2759POPC   GL133363  10.088  27.573  15.590  0.0794  0.6270 -0.2206
 2759POPC   GL233364  10.250  27.766  15.721 -0.0767  0.1379 -0.0646
 2759POPC   C1A33365   9.732  27.657  15.841 -0.1662  0.1526  0.3101
 2759POPC   D2A33366   9.383  27.658  16.168  0.3097 -0.0626  0.5525
 2759POPC   C3A33367   9.487  27.675  16.621  0.2202 -0.1304  0.1040
 2759POPC   C4A33368   9.664  27.581  17.002  0.1930 -0.0900  0.3132
 2759POPC   C1B33369  10.260  27.545  16.102 -0.1528  0.0318 -0.2441
 2759POPC   C2B33370  10.459  27.611  16.503 -0.0801  0.0135 -0.0739
 2759POPC   C3B33371  10.699  27.687  16.823  0.0738  0.0120  0.0534
 2759POPC   C4B33372  10.626  27.963  17.134 -0.1758  0.0786 -0.2775
 2760POPC   NC333373  30.456   5.336  14.821 -0.1086 -0.0138  0.0497
 2760POPC   PO433374  30.686   5.288  15.154  0.0776  0.0521 -0.2286
 2760POPC   GL133375  30.428   5.594  15.305 -0.3438 -0.1255 -0.1000
 2760POPC   GL233376  30.224   5.487  15.213  0.2121  0.1295 -0.0850
 2760POPC   C1A33377  30.116   5.910  15.499  0.0085 -0.0047  0.2724
 2760POPC   D2A33378  29.760   6.135  15.755  0.0983  0.0015  0.2257
 2760POPC   C3A33379  29.329   6.204  15.549 -0.3713  0.2077  0.1313
 2760POPC   C4A33380  29.130   6.332  15.142  0.1132 -0.1751  0.1594
 2760POPC   C1B33381  29.830   5.240  15.339 -0.1336 -0.2648 -0.0258
 2760POPC   C2B33382  29.527   5.242  15.704  0.4425 -0.0359  0.0458
 2760POPC   C3B33383  29.355   5.319  16.131 -0.0471 -0.3440 -0.2882
 2760POPC   C4B33384  29.223   5.324  16.577  0.0524  0.1377  0.4311
 2761POPC   NC333385  31.021   3.278  15.755  0.0046 -0.0377 -0.0649
 2761POPC   PO433386  30.642   3.166  15.661  0.1036 -0.1994  0.1754
 2761POPC   GL133387  30.693   3.058  15.989  0.4059  0.2427 -0.1610
 2761POPC   GL233388  30.551   2.802  16.037 -0.1000 -0.1875 -0.0078
 2761POPC   C1A33389  30.948   3.101  16.303 -0.1343  0.3848  0.0482
 2761POPC   D2A33390  30.857   3.059  16.731  0.1033  0.0095  0.0574
 2761POPC   C3A33391  30.492   3.165  17.063  0.3334  0.2766 -0.0308
 2761POPC   C4A33392  30.007   3.229  17.127 -0.4208  0.0622  0.0843
 2761POPC   C1B33393  30.608   2.679  16.499  0.2631 -0.0447 -0.4419
 2761POPC   C2B33394  30.643   2.646  16.953  0.3220 -0.1364  0.3498
 2761POPC   C3B33395  30.668   2.847  17.372  0.2763 -0.1558  0.2970
 2761POPC   C4B33396  30.675   3.167  17.666 -0.1830  0.0449  0.2587
 2762POPC   NC333397  29.813   2.128  14.913 -0.2687 -0.1384  0.1073
 2762POPC   PO433398  30.011   1.914  15.229 -0.1582 -0.0154 -0.3201
 2762POPC   GL133399  30.157   1.691  15.530 -0.1764 -0.3671 -0.0006
 2762POPC   GL233400  30.014   1.446  15.554  0.1145  0.1146  0.0194
 2762POPC   C1A33401  30.450   1.867  15.857  0.0203  0.2983 -0.0833
 2762POPC   D2A33402  30.748   1.954  16.165  0.1354  0.4157  0.1735
 2762POPC   C3A33403  30.671   1.736  16.586 -0.3253  0.0617 -0.1010
 2762POPC   C4A33404  30.511   1.599  17.002 -0.2696 -0.1102  0.2432
 2762POPC   C1B33405  29.987   1.071  15.780  0.0200  0.1333  0.0118
 2762POPC   C2B33406  30.086   0.986  16.227  0.2302  0.0983  0.0586
 2762POPC   C3B33407  29.749   0.764  16.466  0.1101 -0.0233  0.0724
 2762POPC   C4B33408  29.366   0.584  16.687  0.0306  0.3273 -0.0968
 2763POPC   NC333409   6.109  25.521  15.020  0.1342  0.1355  0.1429
 2763POPC   PO433410   6.311  25.196  14.998 -0.0569 -0.1115 -0.2185
 2763POPC   GL133411   6.626  24.919  15.200 -0.3063  0.2406  0.1370
 2763POPC   GL233412   6.599  25.019  15.404 -0.0565  0.0287 -0.3077
 2763POPC   C1A33413   7.068  24.973  15.304  0.3461 -0.3164  0.0549
 2763POPC   D2A33414   7.501  25.099  15.362  0.1853  0.0775  0.0885
 2763POPC   C3A33415   7.624  25.118  15.842 -0.1033 -0.0751 -0.0285
 2763POPC   C4A33416   7.698  25.234  16.294 -0.1056 -0.1362 -0.0340
 2763POPC   C1B33417   6.708  25.381  15.749 -0.0841  0.0974  0.2569
 2763POPC   C2B33418   6.947  25.782  15.839  0.0649  0.1151 -0.2931
 2763POPC   C3B33419   6.974  26.042  16.230  0.0056 -0.0551 -0.0914
 2763POPC   C4B33420   7.077  26.041  16.682 -0.0122 -0.3038  0.0047
 2764POPC   NC333421  20.100   6.491  15.276 -0.0496  0.0899  0.1919
 2764POPC   PO433422  20.034   6.877  15.188 -0.0481  0.3872 -0.1072
 2764POPC   GL133423  19.762   6.901  15.468  0.4746 -0.0572 -0.0157
 2764POPC   GL233424  19.926   6.764  15.686  0.2615 -0.1964 -0.4346
 2764POPC   C1A33425  19.489   6.534  15.637  0.3060  0.0868 -0.0110
 2764POPC   D2A33426  19.105   6.404  15.806 -0.1311  0.0514  0.0619
 2764POPC   C3A33427  19.069   6.476  16.293  0.1963  0.0792 -0.0003
 2764POPC   C4A33428  19.088   6.365  16.746 -0.2763  0.1309  0.3073
 2764POPC   C1B33429  19.840   6.408  15.983 -0.0801 -0.2056 -0.2867
 2764POPC   C2B33430  19.604   6.421  16.366 -0.1373 -0.0730 -0.1071
 2764POPC   C3B33431  19.607   6.343  16.832 -0.3072 -0.3162 -0.2833
 2764POPC   C4B33432  19.709   6.386  17.278 -0.2336  0.2811  0.0453
 2765POPC   NC333433  11.681  26.813  15.122 -0.2705  0.3741  0.0929
 2765POPC   PO433434  11.284  26.690  15.112 -0.1624  0.2019  0.1472
 2765POPC   GL133435  11.297  26.526  15.467 -0.1892  0.1205  0.2110
 2765POPC   GL233436  11.007  26.395  15.439 -0.3414 -0.0727  0.1838
 2765POPC   C1A33437  11.297  26.521  15.929  0.1570  0.1214  0.1989
 2765POPC   D2A33438  11.270  26.461  16.403 -0.0407 -0.0179  0.0722
 2765POPC   C3A33439  11.282  26.206  16.786 -0.1104 -0.1507  0.1293
 2765POPC   C4A33440  11.498  26.201  17.196 -0.0582  0.2250  0.1591
 2765POPC   C1B33441  11.381  26.122  15.671 -0.1683  0.1964  0.0384
 2765POPC   C2B33442  11.472  26.067  16.140 -0.1559 -0.1252  0.1074
 2765POPC   C3B33443  11.613  25.935  16.577  0.1095  0.1383  0.0158
 2765POPC   C4B33444  11.714  25.717  16.996  0.1851  0.1000  0.0607
 2766POPC   NC333445   0.137  27.252  15.371 -0.2336 -0.3203  0.1157
 2766POPC   PO433446   0.550  27.269  15.492  0.4867 -0.1318  0.0815
 2766POPC   GL133447   0.545  27.330  15.905  0.0022 -0.2756 -0.1078
 2766POPC   GL233448   0.300  27.382  15.930 -0.0523  0.2841  0.3093
 2766POPC   C1A33449   0.756  27.288  16.325  0.2618  0.0276  0.0058
 2766POPC   D2A33450   0.602  27.180  16.786 -0.1411  0.0945 -0.0143
 2766POPC   C3A33451   0.550  27.473  17.130  0.1211 -0.0164  0.1800
 2766POPC   C4A33452   0.210  27.507  17.440 -0.1805 -0.1459  0.2723
 2766POPC   C1B33453   0.134  27.005  15.906 -0.0365  0.1193  0.2093
 2766POPC   C2B33454   0.190  26.658  16.202  0.0500  0.0657 -0.0552
 2766POPC   C3B33455   0.228  26.172  16.344  0.1635 -0.0083  0.1895
 2766POPC   C4B33456   0.081  25.843  16.597  0.0157 -0.0357  0.0988
 2767POPC   NC333457  18.851   4.515  15.467 -0.0890 -0.0918  0.2048
 2767POPC   PO433458  19.062   4.487  15.152  0.1038 -0.3325  0.2563
 2767POPC   GL133459  19.454   4.538  15.350  0.1378 -0.1748  0.2691
 2767POPC   GL233460  19.349   4.621  15.561 -0.0917  0.0927 -0.2678
 2767POPC   C1A33461  19.725   4.324  15.688 -0.1921  0.0199  0.0806
 2767POPC   D2A33462  19.718   4.221  16.146  0.0311  0.1906 -0.2121
 2767POPC   C3A33463  19.871   4.358  16.524  0.0122  0.2742 -0.2201
 2767POPC   C4A33464  20.266   4.328  16.800 -0.0373  0.0730 -0.1606
 2767POPC   C1B33465  19.638   4.774  15.884 -0.1259  0.1940  0.2868
 2767POPC   C2B33466  19.534   4.813  16.303 -0.1298 -0.1150 -0.2658
 2767POPC   C3B33467  19.348   4.973  16.697  0.1839 -0.3105  0.0328
 2767POPC   C4B33468  19.180   4.904  17.138  0.1088 -0.3162  0.2446
 2768POPC   NC333469   7.548   2.101  15.165 -0.0655  0.1132 -0.1003
 2768POPC   PO433470   7.758   1.827  15.342 -0.1279 -0.3943  0.1464
 2768POPC   GL133471   7.829   1.976  15.674 -0.3504 -0.2233 -0.2350
 2768POPC   GL233472   7.777   1.714  15.881 -0.0604 -0.2812  0.1594
 2768POPC   C1A33473   7.957   2.204  16.068  0.1088 -0.0808 -0.0250
 2768POPC   D2A33474   8.055   2.282  16.513  0.1616  0.0281  0.1744
 2768POPC   C3A33475   7.869   2.677  16.755  0.0359 -0.2085  0.0013
 2768POPC   C4A33476   7.882   3.150  16.901 -0.1424  0.0312  0.4097
 2768POPC   C1B33477   7.860   1.761  16.312 -0.1115  0.2560 -0.0357
 2768POPC   C2B33478   8.089   1.820  16.693  0.2815  0.2076  0.0637
 2768POPC   C3B33479   8.174   1.615  17.109 -0.2546 -0.0049  0.1055
 2768POPC   C4B33480   8.104   1.540  17.591  0.1160 -0.3248 -0.1078
 2769POPC   NC333481   8.036   9.947  15.205 -0.0886  0.0473  0.2167
 2769POPC   PO433482   7.709   9.970  14.975 -0.0226 -0.0170  0.0529
 2769POPC   GL133483   7.461  10.068  15.369  0.0649 -0.1767 -0.3625
 2769POPC   GL233484   7.619   9.891  15.608 -0.1021 -0.0418  0.0076
 2769POPC   C1A33485   7.014  10.169  15.362  0.1386 -0.0077  0.2658
 2769POPC   D2A33486   6.824  10.342  15.711 -0.2760 -0.0052  0.0048
 2769POPC   C3A33487   7.130  10.666  15.884 -0.0586  0.1919 -0.1659
 2769POPC   C4A33488   7.218  11.145  15.947 -0.0579 -0.0019 -0.0086
 2769POPC   C1B33489   7.270  10.094  15.769 -0.0404 -0.4676 -0.2209
 2769POPC   C2B33490   7.134  10.265  16.157 -0.2078 -0.0032  0.1595
 2769POPC   C3B33491   6.838  10.133  16.503  0.0354  0.0597  0.4818
 2769POPC   C4B33492   6.455   9.812  16.623  0.1274 -0.5346  0.1970
 2770POPC   NC333493   0.434  17.851  15.167 -0.0168  0.1564  0.0883
 2770POPC   PO433494   0.677  18.135  15.288 -0.1406 -0.0756  0.2678
 2770POPC   GL133495   0.663  17.827  15.614 -0.1289  0.0106  0.4001
 2770POPC   GL233496   0.903  17.894  15.775  0.2715  0.2131  0.0433
 2770POPC   C1A33497   0.570  17.594  16.037 -0.0244 -0.2325 -0.0258
 2770POPC   D2A33498   0.731  17.344  16.405  0.1861  0.0765 -0.0074
 2770POPC   C3A33499   0.734  17.362  16.865  0.0574  0.0410  0.0820
 2770POPC   C4A33500   0.879  17.141  17.243  0.2622  0.1702  0.0401
 2770POPC   C1B33501   0.891  18.025  16.191 -0.0433  0.1768  0.0697
 2770POPC   C2B33502   1.027  17.876  16.600 -0.3070 -0.3363  0.1276
 2770POPC   C3B33503   1.434  17.809  16.934 -0.1794  0.0322 -0.1252
 2770POPC   C4B33504   1.733  17.835  17.307 -0.2001  0.4159 -0.0864
 2771POPC   NC333505   8.631   3.119  15.261 -0.1101  0.0202  0.0274
 2771POPC   PO433506   8.926   2.870  15.173 -0.0128  0.0609  0.1428
 2771POPC   GL133507   9.076   3.025  15.539 -0.2004  0.2439 -0.3345
 2771POPC   GL233508   9.060   2.787  15.731 -0.0982  0.1269 -0.0434
 2771POPC   C1A33509   9.232   3.238  15.951  0.0245  0.2444  0.3615
 2771POPC   D2A33510   9.666   3.200  16.107 -0.0878 -0.0665  0.0499
 2771POPC   C3A33511   9.864   2.883  16.347  0.1730  0.1991  0.0797
 2771POPC   C4A33512   9.664   2.885  16.762  0.2560  0.1631  0.3503
 2771POPC   C1B33513   8.761   2.871  16.053 -0.0430 -0.2777 -0.3615
 2771POPC   C2B33514   8.677   3.020  16.506  0.1123  0.1193  0.0953
 2771POPC   C3B33515   8.804   3.310  16.831 -0.1264  0.2736 -0.0401
 2771POPC   C4B33516   9.049   3.314  17.204  0.2796  0.0540  0.0035
 2772POPC   NC333517  23.435   2.057  14.976  0.0302 -0.0614 -0.0170
 2772POPC   PO433518  23.412   2.465  15.040  0.1884 -0.0613 -0.1106
 2772POPC   GL133519  23.298   2.404  15.415 -0.1362  0.0162  0.1435
 2772POPC   GL233520  23.370   2.639  15.534 -0.0893 -0.3535  0.0132
 2772POPC   C1A33521  23.318   2.070  15.742 -0.1575 -0.1037 -0.0097
 2772POPC   D2A33522  23.270   1.863  16.150  0.1241 -0.0879  0.3084
 2772POPC   C3A33523  23.288   1.942  16.631 -0.3281  0.0414 -0.0022
 2772POPC   C4A33524  23.205   2.082  17.032  0.0289  0.1020 -0.1275
 2772POPC   C1B33525  23.229   2.615  15.962 -0.0707  0.0817  0.3113
 2772POPC   C2B33526  23.017   2.367  16.303 -0.1123 -0.0129 -0.0253
 2772POPC   C3B33527  22.663   2.387  16.539 -0.2739  0.0584 -0.1250
 2772POPC   C4B33528  22.271   2.430  16.837 -0.0924 -0.0632 -0.0353
 2773POPC   NC333529   2.253  25.941  15.277 -0.1176 -0.2076  0.3694
 2773POPC   PO433530   1.904  25.908  15.386  0.0818  0.1439 -0.2031
 2773POPC   GL133531   2.128  25.791  15.735  0.2296 -0.0212 -0.0370
 2773POPC   GL233532   1.928  25.852  15.941 -0.1029  0.0690  0.2151
 2773POPC   C1A33533   2.078  25.382  15.977  0.1352  0.0502 -0.2964
 2773POPC   D2A33534   2.250  25.268  16.425  0.1201  0.1388 -0.0943
 2773POPC   C3A33535   2.167  25.171  16.849 -0.1559  0.1878  0.0722
 2773POPC   C4A33536   2.292  25.421  17.234 -0.0460 -0.2054 -0.0643
 2773POPC   C1B33537   1.953  25.692  16.345 -0.1282 -0.1399 -0.0618
 2773POPC   C2B33538   1.895  25.542  16.751 -0.3211  0.1947 -0.1131
 2773POPC   C3B33539   1.834  25.459  17.210 -0.2648  0.0884  0.0949
 2773POPC   C4B33540   2.023  25.348  17.652  0.3268  0.1890 -0.1607
 2774POPC   NC333541  25.291   6.319  15.357  0.0679  0.1123  0.0410
 2774POPC   PO433542  25.112   5.951  15.230 -0.0576 -0.0294  0.1206
 2774POPC   GL133543  25.164   5.717  15.486 -0.0284  0.1438  0.0520
 2774POPC   GL233544  24.948   5.852  15.702 -0.3406  0.1378  0.0155
 2774POPC   C1A33545  25.230   5.347  15.722  0.0606 -0.0499 -0.1453
 2774POPC   D2A33546  24.977   5.092  15.913  0.0724 -0.2803  0.3453
 2774POPC   C3A33547  24.913   5.114  16.365  0.1712 -0.0174  0.1618
 2774POPC   C4A33548  24.747   5.043  16.789  0.1310 -0.0049 -0.3609
 2774POPC   C1B33549  24.587   5.597  15.907  0.2010 -0.2991 -0.5953
 2774POPC   C2B33550  24.518   5.587  16.376  0.1467  0.0496  0.0417
 2774POPC   C3B33551  24.507   5.782  16.809  0.1718  0.2889 -0.1456
 2774POPC   C4B33552  24.379   6.135  17.032  0.2908 -0.1396 -0.5424
 2775POPC   NC333553  25.375  28.726  15.092 -0.2279  0.0505 -0.3243
 2775POPC   PO433554  25.073  28.630  15.331 -0.0306  0.1776  0.0596
 2775POPC   GL133555  25.070  28.662  15.753  0.0191  0.0320 -0.0229
 2775POPC   GL233556  24.914  28.362  15.745 -0.2989 -0.1192  0.0111
 2775POPC   C1A33557  24.943  29.030  16.003 -0.0436 -0.0217  0.2564
 2775POPC   D2A33558  24.943  29.489  16.177 -0.0130  0.0166  0.2826
 2775POPC   C3A33559  24.981  29.539  16.674 -0.3539  0.0396 -0.0753
 2775POPC   C4A33560  25.274  29.593  17.037 -0.1200  0.1496  0.1229
 2775POPC   C1B33561  24.810  28.609  16.113  0.1503  0.0102  0.1693
 2775POPC   C2B33562  24.862  28.544  16.559  0.1072 -0.1813  0.1912
 2775POPC   C3B33563  25.182  28.686  16.913  0.0331  0.2040 -0.1668
 2775POPC   C4B33564  25.470  28.904  17.128 -0.4230  0.3573 -0.1838
 2776POPC   NC333565   4.946   8.570  15.092 -0.0373 -0.5107  0.1093
 2776POPC   PO433566   4.885   8.935  14.994 -0.2316 -0.1678  0.1000
 2776POPC   GL133567   4.847   9.250  15.346  0.0651  0.3248  0.1934
 2776POPC   GL233568   4.978   9.528  15.319  0.2113 -0.1373 -0.1029
 2776POPC   C1A33569   4.987   9.205  15.776 -0.4213  0.3492  0.0235
 2776POPC   D2A33570   5.184   8.983  16.102 -0.0731  0.0737  0.0491
 2776POPC   C3A33571   5.209   8.950  16.526  0.2172 -0.0895  0.1854
 2776POPC   C4A33572   4.994   8.971  16.893  0.0534 -0.3314  0.0729
 2776POPC   C1B33573   4.750   9.633  15.702  0.0955 -0.2317 -0.2578
 2776POPC   C2B33574   4.577   9.823  16.118 -0.1081  0.1766  0.0588
 2776POPC   C3B33575   4.237   9.733  16.333 -0.1344 -0.1215  0.0376
 2776POPC   C4B33576   3.832   9.509  16.403 -0.4058  0.1093 -0.0872
 2777POPC   NC333577   8.395  17.094  15.439 -0.0967 -0.0748 -0.1962
 2777POPC   PO433578   8.302  17.400  15.196  0.1274  0.1698 -0.0195
 2777POPC   GL133579   8.164  17.509  15.563 -0.0848 -0.1869  0.5284
 2777POPC   GL233580   7.968  17.360  15.538  0.0570  0.2769 -0.1291
 2777POPC   C1A33581   8.290  17.911  15.812 -0.0170  0.2224  0.2900
 2777POPC   D2A33582   8.594  18.217  15.952  0.0866  0.1315 -0.0441
 2777POPC   C3A33583   8.616  18.207  16.414  0.0311  0.0557  0.0932
 2777POPC   C4A33584   8.927  18.241  16.791 -0.3320 -0.0713 -0.0256
 2777POPC   C1B33585   8.114  17.060  15.835  0.0095 -0.3417  0.1110
 2777POPC   C2B33586   7.985  16.990  16.307 -0.1058 -0.1048  0.5645
 2777POPC   C3B33587   8.054  16.967  16.794  0.0176 -0.1438  0.0329
 2777POPC   C4B33588   8.005  17.236  17.120 -0.1202 -0.2051 -0.0574
 2778POPC   NC333589  24.287   1.543  15.000  0.0451 -0.0919 -0.4883
 2778POPC   PO433590  24.250   1.223  15.202 -0.2567 -0.2919 -0.2869
 2778POPC   GL133591  24.182   1.135  15.638 -0.3006  0.0082 -0.1953
 2778POPC   GL233592  24.216   0.859  15.868 -0.2352  0.0228  0.0909
 2778POPC   C1A33593  23.984   1.422  15.907  0.0927  0.3230 -0.0792
 2778POPC   D2A33594  23.683   1.619  16.225  0.0308 -0.0864 -0.0664
 2778POPC   C3A33595  23.872   1.850  16.564 -0.1244  0.0424  0.0745
 2778POPC   C4A33596  23.742   2.010  16.987 -0.0273 -0.0872 -0.1983
 2778POPC   C1B33597  24.012   0.594  16.198 -0.0730  0.3600 -0.1780
 2778POPC   C2B33598  23.859   0.476  16.626 -0.1820  0.3060 -0.0499
 2778POPC   C3B33599  23.750   0.390  17.071 -0.1120 -0.3644  0.1497
 2778POPC   C4B33600  23.557   0.156  17.474  0.0252  0.0323  0.1616
 2779POPC   NC333601   3.207   8.455  15.096  0.0624 -0.1998 -0.1637
 2779POPC   PO433602   3.141   8.097  15.149  0.2090 -0.0411 -0.3244
 2779POPC   GL133603   3.270   8.313  15.567  0.0732 -0.1608  0.0098
 2779POPC   GL233604   3.477   8.513  15.500 -0.0748  0.0134  0.2481
 2779POPC   C1A33605   3.349   8.497  15.976  0.3101 -0.0771  0.0141
 2779POPC   D2A33606   3.278   8.700  16.389  0.0413  0.3267 -0.0739
 2779POPC   C3A33607   3.468   8.632  16.776 -0.2402 -0.1502 -0.1066
 2779POPC   C4A33608   3.747   8.663  17.115  0.4389 -0.3556  0.0260
 2779POPC   C1B33609   3.792   8.298  15.769  0.1441 -0.1293 -0.2331
 2779POPC   C2B33610   3.990   8.186  16.171  0.1401  0.1429 -0.1487
 2779POPC   C3B33611   4.216   8.084  16.557  0.2932 -0.1759  0.1727
 2779POPC   C4B33612   4.384   7.996  16.999 -0.0399  0.1605  0.0340
 2780POPC   NC333613  22.741  21.156  14.964 -0.2929 -0.2105 -0.2404
 2780POPC   PO433614  22.880  21.466  15.131 -0.1533 -0.1590  0.0183
 2780POPC   GL133615  22.817  21.108  15.397 -0.0333  0.2829 -0.0333
 2780POPC   GL233616  23.121  21.057  15.501 -0.0546  0.1131  0.3127
 2780POPC   C1A33617  22.578  21.123  15.797  0.0832  0.3180 -0.1045
 2780POPC   D2A33618  22.507  21.036  16.266  0.2181 -0.2138  0.0706
 2780POPC   C3A33619  22.606  20.654  16.503 -0.0646  0.1512  0.2900
 2780POPC   C4A33620  22.909  20.525  16.849 -0.0177 -0.0160 -0.3919
 2780POPC   C1B33621  23.023  21.325  15.848  0.0362 -0.1379 -0.1832
 2780POPC   C2B33622  22.840  21.392  16.230  0.0006 -0.3367  0.2638
 2780POPC   C3B33623  22.928  21.600  16.622  0.1480  0.0502 -0.0814
 2780POPC   C4B33624  23.107  21.760  16.994  0.0531  0.4342 -0.1482
 2781POPC   NC333625   2.673  28.306  15.652 -0.3749  0.0842 -0.0650
 2781POPC   PO433626   2.501  28.632  15.540  0.1783 -0.0118 -0.0967
 2781POPC   GL133627   2.684  28.822  15.816  0.0093 -0.3223 -0.1355
 2781POPC   GL233628   2.537  29.103  15.677  0.3003 -0.0721 -0.3092
 2781POPC   C1A33629   2.703  29.143  16.152 -0.1678  0.1701  0.1930
 2781POPC   D2A33630   2.840  29.315  16.548 -0.1184  0.0056  0.1850
 2781POPC   C3A33631   3.185  29.104  16.722 -0.0398  0.0970  0.1623
 2781POPC   C4A33632   3.148  28.682  16.516  0.0039 -0.1164  0.2420
 2781POPC   C1B33633   2.219  29.135  16.036  0.0164 -0.1979 -0.1122
 2781POPC   C2B33634   2.310  29.219  16.487  0.1308 -0.0031 -0.1962
 2781POPC   C3B33635   2.358  29.410  16.894 -0.0949  0.2548 -0.1276
 2781POPC   C4B33636   2.686  29.809  16.915  0.1709  0.0699 -0.2811
 2782POPC   NC333637  11.568   8.845  15.718 -0.3586 -0.3414  0.1629
 2782POPC   PO433638  11.408   9.157  15.538  0.0370 -0.1374 -0.0168
 2782POPC   GL133639  11.565   9.289  15.888 -0.3973  0.0182  0.0052
 2782POPC   GL233640  11.736   9.570  15.770  0.1373  0.3355 -0.0646
 2782POPC   C1A33641  11.718   9.047  16.256 -0.2050  0.2111 -0.1286
 2782POPC   D2A33642  11.474   8.812  16.568 -0.0867 -0.0267  0.0844
 2782POPC   C3A33643  11.765   8.730  16.908  0.1678  0.1178  0.3570
 2782POPC   C4A33644  11.993   8.764  17.296 -0.3250 -0.0346  0.3176
 2782POPC   C1B33645  11.755   9.576  16.224  0.0869 -0.1458 -0.0147
 2782POPC   C2B33646  11.777   9.385  16.662 -0.1038 -0.2016 -0.0753
 2782POPC   C3B33647  11.745   9.178  17.095  0.0968  0.3780  0.0924
 2782POPC   C4B33648  11.641   9.015  17.547  0.0378 -0.0949  0.2607
 2783POPC   NC333649   9.568   1.948  15.410 -0.2119 -0.2312 -0.0243
 2783POPC   PO433650   9.826   1.691  15.334  0.0936  0.0277 -0.0256
 2783POPC   GL133651   9.903   1.723  15.685 -0.0635 -0.2801 -0.2235
 2783POPC   GL233652   9.910   2.059  15.739  0.0435  0.1339 -0.5019
 2783POPC   C1A33653  10.044   1.550  16.118  0.0487 -0.4246 -0.0290
 2783POPC   D2A33654   9.928   1.517  16.559 -0.0906 -0.0828  0.2049
 2783POPC   C3A33655  10.056   1.585  17.047  0.0217 -0.2037  0.1758
 2783POPC   C4A33656  10.431   1.533  17.329 -0.3107  0.0378  0.0422
 2783POPC   C1B33657   9.819   2.128  16.136  0.0081 -0.1756  0.1528
 2783POPC   C2B33658   9.559   2.342  16.428 -0.0548 -0.1677 -0.0241
 2783POPC   C3B33659   9.282   2.528  16.708  0.1638  0.1112  0.0621
 2783POPC   C4B33660   9.162   2.878  16.954  0.1610 -0.4066  0.1117
 2784POPC   NC333661   7.568  31.161  15.178  0.2085 -0.1131 -0.2825
 2784POPC   PO433662   7.780  31.476  15.251 -0.3879  0.1907  0.1363
 2784POPC   GL133663   7.703  31.272  15.610  0.0961  0.1743  0.1094
 2784POPC   GL233664   7.889  31.108  15.631 -0.1376 -0.0123  0.1875
 2784POPC   C1A33665   7.696  31.225  16.076 -0.4758 -0.0897 -0.2052
 2784POPC   D2A33666   7.838  31.467  16.422 -0.1711 -0.1038  0.0345
 2784POPC   C3A33667   7.908  31.414  16.897  0.0503 -0.1648 -0.0668
 2784POPC   C4A33668   7.637  31.404  17.335 -0.0021 -0.3429  0.0842
 2784POPC   C1B33669   8.212  31.085  16.025 -0.3452  0.1603  0.1033
 2784POPC   C2B33670   8.161  31.040  16.461 -0.1568 -0.0863 -0.0613
 2784POPC   C3B33671   8.469  31.007  16.780  0.2611  0.1772  0.0483
 2784POPC   C4B33672   8.759  30.877  17.100  0.1075  0.0898 -0.0674
 2785POPC   NC333673  28.684  26.162  15.450 -0.2410  0.0768  0.3666
 2785POPC   PO433674  28.974  26.006  15.226 -0.0023 -0.3117 -0.2968
 2785POPC   GL133675  29.111  25.924  15.625 -0.0442  0.1810 -0.1408
 2785POPC   GL233676  29.192  26.212  15.725  0.1338 -0.0473 -0.2736
 2785POPC   C1A33677  29.013  25.640  15.939 -0.0284 -0.1805 -0.0901
 2785POPC   D2A33678  28.913  25.209  16.081  0.1084 -0.1289  0.1250
 2785POPC   C3A33679  28.756  25.037  16.462  0.2215  0.0106 -0.0581
 2785POPC   C4A33680  28.776  24.715  16.852  0.0959 -0.0585 -0.0572
 2785POPC   C1B33681  29.435  26.262  16.165  0.0977  0.1002  0.1156
 2785POPC   C2B33682  29.510  26.077  16.590 -0.1766  0.0122 -0.1086
 2785POPC   C3B33683  29.545  26.228  17.044 -0.0505  0.0296  0.0070
 2785POPC   C4B33684  29.412  26.347  17.481  0.0123 -0.2149 -0.0806
 2786POPC   NC333685  14.480  19.298  15.365  0.1973 -0.2463  0.0718
 2786POPC   PO433686  14.697  19.044  15.218 -0.3233 -0.2528  0.2382
 2786POPC   GL133687  14.546  18.825  15.578 -0.5854  0.0272  0.1160
 2786POPC   GL233688  14.777  18.921  15.727  0.0773 -0.2686  0.0178
 2786POPC   C1A33689  14.463  18.725  16.015 -0.1311 -0.1827  0.3666
 2786POPC   D2A33690  14.345  18.465  16.346 -0.3645  0.3558 -0.0695
 2786POPC   C3A33691  13.963  18.238  16.333  0.2754  0.0004 -0.1896
 2786POPC   C4A33692  13.764  17.859  16.392  0.2886 -0.0578  0.0545
 2786POPC   C1B33693  14.548  19.271  15.943 -0.1843 -0.0790  0.1194
 2786POPC   C2B33694  14.539  19.579  16.324  0.0359  0.2047  0.2740
 2786POPC   C3B33695  14.346  19.739  16.726  0.0860  0.1288  0.0603
 2786POPC   C4B33696  14.402  19.747  17.225  0.1289 -0.0880 -0.0551
 2787POPC   NC333697  10.838  19.431  15.518  0.1761  0.0140  0.0268
 2787POPC   PO433698  10.674  19.081  15.446  0.1655 -0.0085 -0.3126
 2787POPC   GL133699  10.866  18.927  15.744  0.2281  0.0223 -0.1325
 2787POPC   GL233700  11.172  18.919  15.658  0.2969  0.2048  0.1175
 2787POPC   C1A33701  10.882  18.914  16.187  0.0483 -0.1716 -0.1029
 2787POPC   D2A33702  11.095  18.786  16.562 -0.1416  0.1008 -0.0336
 2787POPC   C3A33703  10.774  18.969  16.838  0.2964 -0.1211  0.0344
 2787POPC   C4A33704  10.911  19.201  17.201  0.2830 -0.1972  0.0796
 2787POPC   C1B33705  11.332  18.943  16.041 -0.0159  0.1208 -0.2171
 2787POPC   C2B33706  11.572  18.941  16.472 -0.1198 -0.3387 -0.0966
 2787POPC   C3B33707  11.566  18.743  16.894  0.0987 -0.0207 -0.0147
 2787POPC   C4B33708  11.700  18.502  17.259  0.1003  0.1600 -0.1094
 2788POPC   NC333709   0.211   7.968  15.121  0.0757 -0.0397 -0.0522
 2788POPC   PO433710   0.368   7.633  15.337  0.1302 -0.1243 -0.4282
 2788POPC   GL133711   0.337   7.578  15.734  0.1060  0.2782  0.2336
 2788POPC   GL233712   0.486   7.869  15.758 -0.1152  0.2661 -0.2657
 2788POPC   C1A33713   0.461   7.566  16.123 -0.0385  0.0539  0.0390
 2788POPC   D2A33714   0.598   7.669  16.600 -0.0793  0.0050  0.0400
 2788POPC   C3A33715   0.901   7.454  16.826  0.1103  0.1211  0.1003
 2788POPC   C4A33716   1.219   7.449  17.158 -0.0635  0.3372 -0.0003
 2788POPC   C1B33717   0.537   8.033  16.224 -0.0364  0.3800  0.0894
 2788POPC   C2B33718   0.709   8.205  16.658 -0.2654  0.1265  0.0368
 2788POPC   C3B33719   0.609   8.560  16.895  0.4083  0.3610  0.2717
 2788POPC   C4B33720   0.692   8.656  17.376  0.0113  0.0517 -0.2550
 2789POPC   NC333721  10.044  10.976  14.753 -0.0429 -0.3832 -0.3568
 2789POPC   PO433722   9.952  10.782  15.049  0.0542  0.0209 -0.1576
 2789POPC   GL133723  10.155  10.815  15.442 -0.0761  0.2227  0.2137
 2789POPC   GL233724  10.225  10.592  15.661  0.0571  0.2932 -0.0655
 2789POPC   C1A33725  10.620  10.785  15.544  0.2101  0.0282  0.2525
 2789POPC   D2A33726  10.939  10.964  15.788  0.0650 -0.1023  0.1122
 2789POPC   C3A33727  10.773  10.932  16.246  0.1122  0.2205  0.1907
 2789POPC   C4A33728  10.629  10.616  16.527 -0.0351  0.2962  0.0849
 2789POPC   C1B33729  10.289  10.690  16.073 -0.0220 -0.2547  0.1852
 2789POPC   C2B33730  10.212  10.935  16.472  0.0216 -0.0239 -0.2668
 2789POPC   C3B33731  10.102  10.737  16.875  0.1444  0.2652  0.3567
 2789POPC   C4B33732   9.800  10.946  17.179 -0.0160 -0.0203 -0.4271
 2790POPC   NC333733   5.370  20.759  15.750 -0.1291  0.0320  0.1361
 2790POPC   PO433734   5.338  20.425  15.484 -0.0015 -0.0963 -0.1166
 2790POPC   GL133735   5.272  20.218  15.820 -0.3458  0.3628 -0.5417
 2790POPC   GL233736   5.050  20.338  15.908 -0.0497 -0.0864 -0.0409
 2790POPC   C1A33737   5.412  19.983  16.212 -0.0941  0.4580 -0.1627
 2790POPC   D2A33738   5.381  19.542  16.372  0.0281 -0.0336  0.2724
 2790POPC   C3A33739   5.224  19.434  16.829  0.0178  0.3226 -0.3677
 2790POPC   C4A33740   5.129  19.060  17.102 -0.0127  0.0424  0.2194
 2790POPC   C1B33741   5.150  20.383  16.353 -0.0102 -0.0068  0.0305
 2790POPC   C2B33742   5.347  20.607  16.765 -0.1932  0.0407  0.3717
 2790POPC   C3B33743   5.613  20.848  17.093  0.0277 -0.0300  0.0447
 2790POPC   C4B33744   5.668  21.266  17.322 -0.0980 -0.1832 -0.0287
 2791POPC   NC333745   2.836  10.219  15.608 -0.1519 -0.2879  0.2775
 2791POPC   PO433746   2.510  10.289  15.335 -0.1697 -0.0156 -0.1634
 2791POPC   GL133747   2.441  10.004  15.582  0.3282 -0.0606 -0.0507
 2791POPC   GL233748   2.222   9.893  15.493 -0.1330 -0.0004 -0.1866
 2791POPC   C1A33749   2.546  10.090  16.037  0.4050 -0.2102  0.3512
 2791POPC   D2A33750   2.644  10.104  16.491  0.1705  0.2386 -0.1976
 2791POPC   C3A33751   2.462   9.788  16.741  0.0569 -0.3939 -0.1918
 2791POPC   C4A33752   2.330   9.515  17.105  0.1561  0.1268  0.1047
 2791POPC   C1B33753   2.141   9.795  15.957 -0.0083 -0.0976  0.0226
 2791POPC   C2B33754   2.096   9.960  16.410 -0.0871  0.2583 -0.0760
 2791POPC   C3B33755   2.147  10.303  16.598  0.2724  0.3433 -0.0887
 2791POPC   C4B33756   1.976  10.715  16.484 -0.4310 -0.1171 -0.0829
 2792POPC   NC333757  11.352  28.432  15.377 -0.1980 -0.0647 -0.1975
 2792POPC   PO433758  11.231  28.029  15.419  0.1570 -0.0875  0.1595
 2792POPC   GL133759  11.279  28.080  15.787 -0.1651 -0.1551 -0.0102
 2792POPC   GL233760  11.542  28.245  15.872  0.2459 -0.0392 -0.4567
 2792POPC   C1A33761  11.009  27.985  16.130  0.0621  0.0958 -0.0647
 2792POPC   D2A33762  10.819  28.091  16.545  0.1941 -0.0989 -0.2535
 2792POPC   C3A33763  11.041  28.275  16.953 -0.2192  0.0227  0.0379
 2792POPC   C4A33764  11.392  28.216  17.265  0.1933  0.0985  0.0379
 2792POPC   C1B33765  11.530  27.876  16.134 -0.0180 -0.0254  0.3847
 2792POPC   C2B33766  11.733  27.547  16.466  0.4436 -0.0662  0.3103
 2792POPC   C3B33767  11.889  27.388  16.851  0.0116 -0.0787  0.0040
 2792POPC   C4B33768  12.025  27.429  17.312  0.0026  0.0933  0.1654
 2793POPC   NC333769  17.781  20.769  15.270 -0.1162  0.1732 -0.0408
 2793POPC   PO433770  17.618  20.896  14.942  0.1749 -0.1530 -0.0698
 2793POPC   GL133771  17.362  21.133  15.110  0.0402 -0.0307 -0.0011
 2793POPC   GL233772  17.486  21.166  15.439 -0.2011  0.3326  0.3550
 2793POPC   C1A33773  17.216  21.543  15.217 -0.3083  0.0388  0.0264
 2793POPC   D2A33774  17.005  21.868  14.926  0.0928 -0.1804  0.0687
 2793POPC   C3A33775  16.796  22.084  15.258  0.4210  0.0999  0.2554
 2793POPC   C4A33776  16.920  22.459  15.507  0.0565 -0.3581  0.0506
 2793POPC   C1B33777  17.231  21.300  15.758 -0.2973  0.0646 -0.1235
 2793POPC   C2B33778  17.342  21.720  15.827  0.1521 -0.1650 -0.1017
 2793POPC   C3B33779  17.387  21.959  15.469 -0.0490 -0.1076  0.0470
 2793POPC   C4B33780  17.312  22.271  15.156 -0.2409 -0.0777 -0.0974
 2794POPC   NC333781  19.642  30.851  14.919  0.1249  0.0145 -0.2441
 2794POPC   PO433782  19.360  30.830  15.205  0.1073  0.0924  0.1938
 2794POPC   GL133783  19.414  30.885  15.563 -0.0298 -0.2187 -0.3588
 2794POPC   GL233784  19.307  30.631  15.719  0.0872  0.1998 -0.4637
 2794POPC   C1A33785  19.481  31.292  15.843 -0.0126  0.4652  0.0151
 2794POPC   D2A33786  19.626  31.690  15.780  0.1185  0.1978 -0.0876
 2794POPC   C3A33787  20.059  31.729  15.923 -0.2921  0.0278  0.1253
 2794POPC   C4A33788  20.174  31.992  16.323  0.0615 -0.2512  0.1075
 2794POPC   C1B33789  19.363  30.566  16.170  0.1154  0.2419  0.1929
 2794POPC   C2B33790  19.254  30.542  16.638  0.1401 -0.0287  0.2062
 2794POPC   C3B33791  19.336  30.648  17.070 -0.0760 -0.2079 -0.0120
 2794POPC   C4B33792  19.236  31.038  17.181 -0.0825 -0.2102  0.1454
 2795POPC   NC333793  21.363   8.321  15.674 -0.1091 -0.0173  0.0750
 2795POPC   PO433794  21.038   8.114  15.616 -0.1224  0.3096  0.0284
 2795POPC   GL133795  20.983   8.222  15.958  0.0510  0.0455 -0.1111
 2795POPC   GL233796  20.770   8.361  15.892  0.0806  0.1460  0.1613
 2795POPC   C1A33797  21.306   8.110  16.306 -0.0369  0.2452 -0.1522
 2795POPC   D2A33798  21.647   8.094  16.690  0.0919 -0.0513 -0.0766
 2795POPC   C3A33799  21.946   7.944  17.034  0.2240  0.0924  0.2027
 2795POPC   C4A33800  21.872   7.610  17.303  0.1735 -0.5140 -0.2471
 2795POPC   C1B33801  20.437   8.336  16.176 -0.1717 -0.5952 -0.1311
 2795POPC   C2B33802  20.121   8.309  16.520 -0.2684  0.1486  0.2449
 2795POPC   C3B33803  19.877   8.012  16.762  0.0471 -0.1114 -0.1312
 2795POPC   C4B33804  19.751   7.638  17.008  0.0769 -0.1229 -0.0807
 2796POPC   NC333805  11.176  25.902  15.214  0.1301 -0.4046  0.0612
 2796POPC   PO433806  11.523  25.875  14.989 -0.1900  0.0711  0.0203
 2796POPC   GL133807  11.703  26.094  15.345 -0.2778  0.1560 -0.2775
 2796POPC   GL233808  11.716  26.351  15.234 -0.3817  0.2163  0.4628
 2796POPC   C1A33809  11.799  25.889  15.768 -0.1479  0.1200 -0.0437
 2796POPC   D2A33810  11.631  25.619  16.182 -0.0765 -0.1502  0.0643
 2796POPC   C3A33811  11.298  25.408  16.364  0.0775 -0.2986  0.0288
 2796POPC   C4A33812  10.900  25.430  16.543 -0.1936 -0.0788  0.2487
 2796POPC   C1B33813  11.752  26.521  15.638 -0.1777 -0.1989  0.0730
 2796POPC   C2B33814  11.731  26.540  16.152  0.3647  0.0328  0.1776
 2796POPC   C3B33815  11.939  26.322  16.517 -0.2135  0.1830  0.0887
 2796POPC   C4B33816  11.939  26.153  16.972 -0.1167  0.0451  0.3114
 2797POPC   NC333817  12.875  22.488  14.784  0.2764 -0.0134 -0.1618
 2797POPC   PO433818  13.075  22.401  15.088  0.2218 -0.3279 -0.0294
 2797POPC   GL133819  12.899  22.368  15.499 -0.0649  0.1766  0.2232
 2797POPC   GL233820  12.673  22.590  15.478 -0.1886 -0.0703 -0.0429
 2797POPC   C1A33821  12.530  22.216  15.780 -0.4305  0.1622  0.1922
 2797POPC   D2A33822  12.139  22.303  15.940 -0.1711  0.1216  0.0315
 2797POPC   C3A33823  12.364  22.300  16.353  0.2636  0.2424  0.0560
 2797POPC   C4A33824  12.651  22.344  16.693 -0.1688 -0.1122  0.2445
 2797POPC   C1B33825  12.486  22.683  15.886  0.3273 -0.3818  0.1218
 2797POPC   C2B33826  12.402  22.892  16.290  0.3117 -0.1456  0.1840
 2797POPC   C3B33827  12.270  22.805  16.680  0.0473  0.0289 -0.2449
 2797POPC   C4B33828  11.934  22.684  16.972 -0.0511  0.2679 -0.1886
 2798POPC   NC333829  27.010  23.565  15.754 -0.1479  0.0629 -0.1789
 2798POPC   PO433830  27.386  23.554  15.590 -0.1725 -0.1670 -0.0413
 2798POPC   GL133831  27.374  23.275  15.919  0.0001  0.3060 -0.3088
 2798POPC   GL233832  27.179  23.106  15.759 -0.0188  0.3090 -0.0145
 2798POPC   C1A33833  27.331  23.483  16.325  0.0432 -0.0696 -0.2936
 2798POPC   D2A33834  27.372  23.919  16.506 -0.0111  0.2414 -0.1841
 2798POPC   C3A33835  27.490  24.025  16.975  0.1262  0.1575 -0.1044
 2798POPC   C4A33836  27.365  24.181  17.404 -0.0217  0.3148 -0.0660
 2798POPC   C1B33837  27.079  22.956  16.181  0.0164 -0.0463  0.0655
 2798POPC   C2B33838  26.883  22.719  16.536  0.0989  0.0548 -0.0089
 2798POPC   C3B33839  26.835  22.594  16.987 -0.0874 -0.0157 -0.2392
 2798POPC   C4B33840  26.756  22.872  17.373 -0.1920 -0.0577 -0.3874
 2799POPC   NC333841   1.224  16.082  14.664 -0.1558  0.2260  0.1596
 2799POPC   PO433842   0.928  15.865  14.883 -0.0169  0.0890  0.1391
 2799POPC   GL133843   1.159  15.940  15.200 -0.2866  0.0595  0.0703
 2799POPC   GL233844   1.375  15.965  15.146  0.0219  0.2102  0.1214
 2799POPC   C1A33845   1.282  15.809  15.604  0.1615  0.1681 -0.4447
 2799POPC   D2A33846   1.617  15.827  15.910 -0.1920 -0.0190 -0.1188
 2799POPC   C3A33847   1.586  15.770  16.331  0.2158 -0.2352 -0.0672
 2799POPC   C4A33848   1.291  15.607  16.615  0.1861 -0.3462  0.1064
 2799POPC   C1B33849   1.721  15.853  15.408 -0.0200 -0.0333  0.1269
 2799POPC   C2B33850   1.994  15.596  15.675  0.1393  0.1191 -0.1098
 2799POPC   C3B33851   2.012  15.553  16.145  0.0279 -0.0579  0.0730
 2799POPC   C4B33852   2.128  15.704  16.570  0.0717 -0.0363 -0.1400
 2800POPC   NC333853  27.984  28.758  14.982  0.1817 -0.1982  0.1469
 2800POPC   PO433854  27.676  28.832  15.158 -0.0370  0.1190 -0.0544
 2800POPC   GL133855  27.645  28.949  15.507 -0.2464 -0.1786 -0.1402
 2800POPC   GL233856  27.666  28.647  15.629 -0.0760  0.2242 -0.2150
 2800POPC   C1A33857  27.736  28.997  15.937  0.3006 -0.0436 -0.1299
 2800POPC   D2A33858  27.810  29.270  16.312 -0.1193  0.2579 -0.1438
 2800POPC   C3A33859  27.794  29.218  16.819  0.0858 -0.1847  0.2041
 2800POPC   C4A33860  27.717  29.288  17.225  0.1160  0.0255 -0.2174
 2800POPC   C1B33861  27.819  28.477  16.082 -0.1188  0.1250 -0.1379
 2800POPC   C2B33862  27.689  28.292  16.496 -0.6496 -0.1471 -0.2121
 2800POPC   C3B33863  27.474  28.400  16.940  0.1201  0.1971 -0.3354
 2800POPC   C4B33864  27.266  28.470  17.378 -0.2183  0.2119 -0.0432
 2801POPC   NC333865   3.212  14.561  15.255  0.1781 -0.3161  0.0719
 2801POPC   PO433866   3.234  14.188  15.236 -0.3198  0.0349  0.2149
 2801POPC   GL133867   3.307  14.187  15.605  0.4315  0.3672  0.2602
 2801POPC   GL233868   3.495  14.389  15.670 -0.0408 -0.0080 -0.2393
 2801POPC   C1A33869   3.450  13.939  15.953  0.0269 -0.2010  0.2988
 2801POPC   D2A33870   3.561  13.746  16.323  0.2557 -0.1026 -0.0804
 2801POPC   C3A33871   3.615  13.767  16.772  0.2738  0.0285 -0.0860
 2801POPC   C4A33872   3.505  13.728  17.219 -0.1434 -0.3092  0.1191
 2801POPC   C1B33873   3.471  14.472  16.079  0.2990 -0.1660  0.0836
 2801POPC   C2B33874   3.224  14.522  16.489  0.0412 -0.0318 -0.3175
 2801POPC   C3B33875   3.141  14.594  17.005 -0.0101 -0.0637  0.1282
 2801POPC   C4B33876   2.994  14.712  17.407  0.0082 -0.2570 -0.0248
 2802POPC   NC333877  21.343  25.045  15.507  0.2605 -0.2412  0.0371
 2802POPC   PO433878  21.258  24.667  15.437 -0.1259 -0.0061 -0.0191
 2802POPC   GL133879  21.296  24.614  15.782  0.0611 -0.4163 -0.1364
 2802POPC   GL233880  21.125  24.808  15.954 -0.1289 -0.5309 -0.0818
 2802POPC   C1A33881  21.478  24.521  16.145 -0.0035  0.1559  0.1030
 2802POPC   D2A33882  21.984  24.562  16.299  0.3795 -0.1149 -0.2501
 2802POPC   C3A33883  21.946  24.451  16.768 -0.0161 -0.2371 -0.0835
 2802POPC   C4A33884  22.326  24.527  17.019 -0.0918  0.1152  0.0149
 2802POPC   C1B33885  21.046  24.909  16.371  0.0370 -0.3190 -0.0312
 2802POPC   C2B33886  21.149  25.076  16.760  0.0313 -0.0475  0.2019
 2802POPC   C3B33887  21.182  25.542  16.844 -0.1073 -0.3296  0.0368
 2802POPC   C4B33888  20.995  25.868  17.163 -0.0654 -0.0077 -0.1572
 2803POPC   NC333889  30.660   8.495  14.826 -0.1342 -0.1243 -0.0243
 2803POPC   PO433890  30.629   8.438  15.216  0.0431 -0.1556  0.1757
 2803POPC   GL133891  30.271   8.429  15.344  0.1702  0.1734  0.1172
 2803POPC   GL233892  30.200   8.754  15.300  0.0674 -0.2393  0.0314
 2803POPC   C1A33893  29.996   8.225  15.685 -0.0340  0.0715  0.0933
 2803POPC   D2A33894  29.754   7.878  15.741  0.1840 -0.0048  0.3440
 2803POPC   C3A33895  29.335   8.015  15.846  0.2069 -0.0333 -0.1860
 2803POPC   C4A33896  28.920   8.091  16.009 -0.0369 -0.0514  0.1477
 2803POPC   C1B33897  30.185   8.695  15.767 -0.0693 -0.1594  0.1024
 2803POPC   C2B33898  30.093   8.523  16.121  0.0021 -0.1618 -0.2839
 2803POPC   C3B33899  30.157   8.498  16.528 -0.1858 -0.2545 -0.0620
 2803POPC   C4B33900  30.229   8.497  17.005 -0.0134 -0.2381 -0.1882
 2804POPC   NC333901  24.467  31.340  15.491  0.0413 -0.0302  0.1585
 2804POPC   PO433902  24.598  31.360  15.146 -0.0985 -0.2072  0.1646
 2804POPC   GL133903  24.895  31.200  15.511  0.1339  0.0998  0.1251
 2804POPC   GL233904  24.841  30.992  15.692  0.2505  0.3185 -0.0431
 2804POPC   C1A33905  25.085  31.374  15.910  0.2266 -0.0061  0.0367
 2804POPC   D2A33906  25.108  31.439  16.343  0.2255 -0.1746  0.0285
 2804POPC   C3A33907  25.115  31.505  16.785 -0.1020 -0.2541  0.1701
 2804POPC   C4A33908  25.352  31.477  17.186 -0.0040 -0.1550  0.1330
 2804POPC   C1B33909  25.197  30.889  15.926 -0.1836 -0.1112 -0.1400
 2804POPC   C2B33910  25.487  30.920  16.238 -0.0896 -0.0479 -0.1719
 2804POPC   C3B33911  25.592  31.214  16.628 -0.0583  0.1026  0.2015
 2804POPC   C4B33912  25.789  31.154  17.006  0.1325  0.2668  0.0415
 2805POPC   NC333913  24.546  17.328  15.325 -0.1409 -0.1194 -0.1297
 2805POPC   PO433914  24.928  17.232  15.407  0.2544 -0.1131  0.1721
 2805POPC   GL133915  24.978  17.007  15.759  0.0628 -0.2109  0.2336
 2805POPC   GL233916  24.693  17.087  15.895 -0.2208  0.2075 -0.2003
 2805POPC   C1A33917  25.164  16.843  16.210  0.0320 -0.0020  0.2857
 2805POPC   D2A33918  25.251  16.643  16.663  0.1747 -0.3667  0.1431
 2805POPC   C3A33919  25.521  16.321  16.856  0.0544 -0.1569 -0.1692
 2805POPC   C4A33920  25.788  16.260  17.227 -0.2337  0.1624 -0.0915
 2805POPC   C1B33921  24.697  17.101  16.333 -0.3191  0.1166 -0.1970
 2805POPC   C2B33922  24.698  17.424  16.682  0.1561 -0.0966 -0.1176
 2805POPC   C3B33923  25.045  17.653  16.966  0.0414  0.1210  0.2772
 2805POPC   C4B33924  25.445  17.750  17.156  0.1441 -0.1004  0.0175
 2806POPC   NC333925  27.233  18.128  15.112  0.3270  0.3257  0.2072
 2806POPC   PO433926  27.024  17.790  15.219  0.1144  0.3288  0.4069
 2806POPC   GL133927  27.129  17.912  15.581  0.2189 -0.1059 -0.0341
 2806POPC   GL233928  27.303  18.206  15.587  0.0345 -0.0369  0.1694
 2806POPC   C1A33929  27.118  17.846  16.031 -0.0003  0.1308 -0.2887
 2806POPC   D2A33930  27.242  17.861  16.516 -0.1918  0.1045 -0.2832
 2806POPC   C3A33931  27.414  17.801  16.959  0.2564 -0.0605  0.0744
 2806POPC   C4A33932  27.183  17.473  17.183  0.2199  0.0964  0.0379
 2806POPC   C1B33933  27.536  18.195  15.940 -0.0640  0.0438  0.0280
 2806POPC   C2B33934  27.642  18.205  16.357  0.0057  0.2181 -0.0111
 2806POPC   C3B33935  27.614  18.430  16.736  0.0053 -0.1436 -0.0560
 2806POPC   C4B33936  27.830  18.716  16.997 -0.1325 -0.0967  0.3880
 2807POPC   NC333937   3.231   2.384  15.165  0.0134  0.0047  0.1725
 2807POPC   PO433938   2.892   2.583  15.099  0.0708 -0.2134  0.0192
 2807POPC   GL133939   2.827   2.429  15.468 -0.0412 -0.1534  0.2306
 2807POPC   GL233940   2.944   2.148  15.516  0.0736  0.1318 -0.1977
 2807POPC   C1A33941   2.449   2.216  15.549  0.0430 -0.0024  0.2196
 2807POPC   D2A33942   2.029   2.216  15.618  0.0867 -0.1660 -0.1952
 2807POPC   C3A33943   1.815   2.642  15.816  0.0402  0.0500  0.2527
 2807POPC   C4A33944   1.957   3.048  15.972 -0.0904 -0.0348  0.0934
 2807POPC   C1B33945   2.705   2.100  15.947  0.0961 -0.2730 -0.2518
 2807POPC   C2B33946   2.714   2.082  16.436  0.2363  0.1454  0.3746
 2807POPC   C3B33947   2.911   2.272  16.796 -0.0326 -0.0202 -0.0240
 2807POPC   C4B33948   3.181   2.082  17.052  0.1623 -0.2076  0.0257
 2808POPC   NC333949  20.032  13.005  14.917 -0.3074 -0.2273  0.4491
 2808POPC   PO433950  19.916  12.892  15.277  0.0104 -0.1049 -0.1991
 2808POPC   GL133951  19.924  12.857  15.695  0.0515 -0.0150  0.0214
 2808POPC   GL233952  20.009  12.666  15.894 -0.2370  0.0346 -0.0425
 2808POPC   C1A33953  19.637  13.060  15.965  0.1947  0.0119  0.2491
 2808POPC   D2A33954  19.706  13.444  16.249 -0.2493  0.0265 -0.0566
 2808POPC   C3A33955  19.759  13.369  16.718  0.0627 -0.2687  0.1265
 2808POPC   C4A33956  19.584  13.577  17.085  0.0456  0.0753  0.1712
 2808POPC   C1B33957  19.795  12.504  16.275  0.1655 -0.1045 -0.1048
 2808POPC   C2B33958  19.887  12.446  16.722 -0.0314  0.2465  0.2754
 2808POPC   C3B33959  20.104  12.751  16.967  0.0486  0.2228  0.1384
 2808POPC   C4B33960  20.386  12.871  17.286  0.0322 -0.0781  0.2315
 2809POPC   NC333961   6.689  30.791  15.170  0.2245 -0.1207 -0.0659
 2809POPC   PO433962   6.314  30.809  15.325  0.1292 -0.0592  0.0389
 2809POPC   GL133963   6.207  30.971  15.751  0.0170  0.0928  0.0548
 2809POPC   GL233964   6.071  30.670  15.811  0.0745 -0.1068 -0.0176
 2809POPC   C1A33965   6.311  31.300  16.027  0.1426  0.0904 -0.2663
 2809POPC   D2A33966   6.622  31.626  16.153 -0.0763 -0.1080  0.1659
 2809POPC   C3A33967   6.850  31.603  16.588 -0.1671  0.0726 -0.2917
 2809POPC   C4A33968   6.975  31.560  17.013 -0.1364 -0.2422 -0.0031
 2809POPC   C1B33969   5.891  30.224  15.960  0.0822  0.1176  0.1126
 2809POPC   C2B33970   5.821  30.131  16.391 -0.1126 -0.0328 -0.1068
 2809POPC   C3B33971   5.496  30.029  16.680  0.0503 -0.1628 -0.2721
 2809POPC   C4B33972   5.189  30.098  16.994 -0.0069 -0.2493  0.1149
 2810POPC   NC333973  31.616  30.477  15.198  0.2244 -0.0864  0.2919
 2810POPC   PO433974  31.863  30.330  14.951 -0.1154 -0.0619  0.2501
 2810POPC   GL133975  31.884  30.235  15.426  0.0180  0.0668  0.3120
 2810POPC   GL233976  31.726  29.927  15.496 -0.0201  0.3546  0.1607
 2810POPC   C1A33977  32.046  30.514  15.712 -0.0671 -0.2736 -0.1365
 2810POPC   D2A33978  32.001  30.786  16.022  0.3753 -0.0485  0.2705
 2810POPC   C3A33979  32.188  30.869  16.401 -0.1580 -0.3598  0.1082
 2810POPC   C4A33980  32.158  30.966  16.875  0.1128 -0.3373  0.1104
 2810POPC   C1B33981  31.666  29.985  15.955 -0.0781  0.0149  0.0839
 2810POPC   C2B33982  31.729  30.047  16.499 -0.1573 -0.0642  0.6044
 2810POPC   C3B33983  31.775  29.951  16.914  0.1920 -0.3857  0.0568
 2810POPC   C4B33984  32.033  29.743  17.203  0.1426  0.2419  0.2185
 2811POPC   NC333985  30.319  23.021  14.769  0.1119  0.0787 -0.1263
 2811POPC   PO433986  29.932  22.994  14.882 -0.0901 -0.2391 -0.0210
 2811POPC   GL133987  30.059  23.307  15.149  0.0050 -0.1578 -0.5086
 2811POPC   GL233988  29.885  23.536  15.279 -0.0646  0.0739 -0.3001
 2811POPC   C1A33989  30.266  23.656  15.005 -0.0217  0.0501 -0.0425
 2811POPC   D2A33990  30.602  24.021  15.144 -0.0638  0.1974 -0.1021
 2811POPC   C3A33991  30.450  24.085  15.603 -0.0996  0.0915 -0.1392
 2811POPC   C4A33992  30.427  24.150  16.063  0.3193 -0.1320  0.2131
 2811POPC   C1B33993  30.057  23.952  15.331 -0.0833  0.1414 -0.0425
 2811POPC   C2B33994  29.963  24.304  15.643 -0.1545  0.0555  0.2977
 2811POPC   C3B33995  29.990  24.506  16.073 -0.1353  0.0025  0.2953
 2811POPC   C4B33996  30.144  24.305  16.478 -0.0750 -0.0031 -0.0908
 2812POPC   NC333997   9.381  15.559  15.434  0.0337 -0.0923  0.0383
 2812POPC   PO433998   9.661  15.281  15.333  0.0319 -0.1701 -0.2717
 2812POPC   GL133999   9.763  15.373  15.663 -0.2428  0.6633 -0.2589
 2812POPC   GL234000  10.069  15.477  15.706  0.0929 -0.0730 -0.1412
 2812POPC   C1A34001   9.926  15.191  16.089 -0.1460  0.0512  0.2091
 2812POPC   D2A34002  10.202  15.080  16.401  0.3224 -0.1380 -0.2850
 2812POPC   C3A34003  10.409  15.165  16.787  0.1537 -0.3972 -0.2083
 2812POPC   C4A34004  10.584  15.048  17.222 -0.0215 -0.0865 -0.0149
 2812POPC   C1B34005  10.272  15.605  16.094  0.0813  0.2076  0.0429
 2812POPC   C2B34006  10.382  15.639  16.593  0.0828  0.1843  0.1601
 2812POPC   C3B34007  10.774  15.548  16.797 -0.2222  0.1000  0.0485
 2812POPC   C4B34008  10.984  15.609  17.198 -0.0701  0.2638 -0.0337
 2813POPC   NC334009  13.123   5.751  14.825  0.3253  0.1905 -0.0891
 2813POPC   PO434010  13.495   5.976  14.870  0.0137 -0.0668  0.0699
 2813POPC   GL134011  13.411   5.755  15.240  0.0013  0.1785  0.2125
 2813POPC   GL234012  13.213   5.538  15.272 -0.2602  0.2208 -0.2481
 2813POPC   C1A34013  13.530   5.781  15.706  0.1645  0.1668  0.3461
 2813POPC   D2A34014  13.737   5.923  16.031 -0.2151 -0.2114  0.1964
 2813POPC   C3A34015  13.635   5.956  16.484  0.3883  0.3609 -0.3100
 2813POPC   C4A34016  13.369   5.816  16.788  0.2573 -0.2026  0.0992
 2813POPC   C1B34017  12.996   5.649  15.703  0.0210 -0.0187  0.2015
 2813POPC   C2B34018  12.745   6.033  15.845 -0.0467  0.0963 -0.1781
 2813POPC   C3B34019  12.642   6.351  16.225  0.0810  0.3256 -0.2242
 2813POPC   C4B34020  12.703   6.363  16.628  0.1028  0.0933 -0.1206
 2814POPC   NC334021  16.376  26.971  15.470  0.1195 -0.2105 -0.1906
 2814POPC   PO434022  16.365  26.589  15.572  0.3443  0.0150 -0.2785
 2814POPC   GL134023  16.124  26.810  15.919  0.0210  0.0168 -0.1599
 2814POPC   GL234024  16.129  27.042  15.877 -0.1170  0.1443  0.0952
 2814POPC   C1A34025  16.086  26.713  16.377  0.1299  0.1526  0.0277
 2814POPC   D2A34026  16.229  26.415  16.708  0.0778  0.2534 -0.2100
 2814POPC   C3A34027  16.246  26.100  17.058  0.1624 -0.2169 -0.0749
 2814POPC   C4A34028  16.079  25.783  17.374  0.0450 -0.1469  0.0169
 2814POPC   C1B34029  15.910  27.143  16.284 -0.3056 -0.1120  0.0256
 2814POPC   C2B34030  15.948  27.196  16.712  0.3034 -0.4023 -0.1210
 2814POPC   C3B34031  15.973  27.133  17.160  0.0717 -0.0850 -0.1819
 2814POPC   C4B34032  16.207  27.407  17.463  0.1670  0.1386 -0.0695
 2815POPC   NC334033  14.868  29.492  15.172  0.1352  0.0677 -0.1254
 2815POPC   PO434034  14.797  29.074  15.154  0.1867 -0.0439  0.0987
 2815POPC   GL134035  14.823  29.176  15.586  0.4177 -0.1576  0.0169
 2815POPC   GL234036  14.625  29.037  15.748  0.4848  0.0317  0.0827
 2815POPC   C1A34037  15.011  29.373  15.992  0.1317 -0.1940 -0.0301
 2815POPC   D2A34038  14.834  29.248  16.403 -0.2311  0.0253 -0.0020
 2815POPC   C3A34039  14.907  29.457  16.804 -0.1513  0.2834  0.1509
 2815POPC   C4A34040  15.286  29.577  17.034  0.2420 -0.2023 -0.3531
 2815POPC   C1B34041  14.444  29.322  16.085 -0.1344 -0.0375  0.2600
 2815POPC   C2B34042  14.426  29.415  16.539  0.0855  0.0800 -0.0462
 2815POPC   C3B34043  14.424  29.402  16.988 -0.0379  0.0709  0.0891
 2815POPC   C4B34044  14.332  29.513  17.384  0.0444 -0.2938  0.2165
 2816POPC   NC334045  12.793   9.383  14.942  0.2658 -0.0038  0.1471
 2816POPC   PO434046  12.574   9.171  15.221  0.0366 -0.0174 -0.2126
 2816POPC   GL134047  12.783   8.914  15.566  0.1450  0.0016 -0.1723
 2816POPC   GL234048  12.540   9.036  15.695 -0.0369 -0.0831 -0.1828
 2816POPC   C1A34049  13.219   8.733  15.712  0.0658  0.0096  0.1075
 2816POPC   D2A34050  13.646   8.956  15.613 -0.0713 -0.1008  0.0655
 2816POPC   C3A34051  13.657   9.414  15.657 -0.2297  0.0737  0.3596
 2816POPC   C4A34052  13.793   9.778  15.866  0.2537  0.0386  0.1243
 2816POPC   C1B34053  12.668   9.382  16.009 -0.2615 -0.2886  0.1725
 2816POPC   C2B34054  12.647   9.512  16.506  0.0459  0.1519 -0.1144
 2816POPC   C3B34055  12.978   9.665  16.787 -0.1982 -0.0824 -0.1224
 2816POPC   C4B34056  13.212   9.996  16.921  0.2309 -0.1048 -0.2524
 2817POPC   NC334057  25.569   0.924  15.630 -0.0495  0.0628  0.5669
 2817POPC   PO434058  25.468   0.550  15.537  0.1160  0.1910 -0.1579
 2817POPC   GL134059  25.505   0.519  15.933  0.1048  0.1916 -0.0224
 2817POPC   GL234060  25.771   0.594  15.996 -0.3855 -0.0554  0.0081
 2817POPC   C1A34061  25.312   0.543  16.369 -0.2078  0.0604 -0.1733
 2817POPC   D2A34062  25.065   0.252  16.632 -0.0195 -0.0351 -0.0804
 2817POPC   C3A34063  24.737   0.450  16.882 -0.0836 -0.1022 -0.0643
 2817POPC   C4A34064  24.722   0.832  17.261 -0.1321 -0.1331 -0.3410
 2817POPC   C1B34065  25.833   0.538  16.478 -0.1928 -0.0113  0.0742
 2817POPC   C2B34066  25.867   0.434  16.913 -0.0375  0.3960 -0.0175
 2817POPC   C3B34067  25.725   0.590  17.361 -0.0107  0.2000 -0.1501
 2817POPC   C4B34068  25.738   0.861  17.790  0.1465 -0.0596  0.2641
 2818POPC   NC334069  21.719  16.248  15.338  0.0618 -0.0163  0.4103
 2818POPC   PO434070  21.886  16.075  14.999 -0.1005 -0.0099 -0.2738
 2818POPC   GL134071  21.910  15.851  15.310  0.0780 -0.1748 -0.3492
 2818POPC   GL234072  22.163  15.794  15.423  0.0252 -0.1571 -0.1876
 2818POPC   C1A34073  21.776  15.470  15.557  0.0258 -0.0364 -0.1310
 2818POPC   D2A34074  21.939  15.446  15.971 -0.2867 -0.0826 -0.2295
 2818POPC   C3A34075  21.806  15.736  16.274  0.1129 -0.0170 -0.1919
 2818POPC   C4A34076  21.584  16.045  16.511 -0.1885  0.1406  0.1824
 2818POPC   C1B34077  21.990  15.937  15.818  0.2467  0.0319 -0.2539
 2818POPC   C2B34078  22.016  16.183  16.227  0.0262  0.1119 -0.2358
 2818POPC   C3B34079  22.088  16.196  16.686  0.2073 -0.1549  0.1750
 2818POPC   C4B34080  22.275  16.222  17.086  0.2399 -0.2572 -0.0527
 2819POPC   NC334081  19.243  11.743  15.465 -0.4256 -0.3203  0.0489
 2819POPC   PO434082  19.484  11.675  15.181  0.0933  0.2531 -0.1360
 2819POPC   GL134083  19.647  11.394  15.365  0.1890  0.0210  0.1281
 2819POPC   GL234084  19.762  11.436  15.669 -0.1006  0.0542  0.1914
 2819POPC   C1A34085  19.336  11.240  15.638  0.2357 -0.4308  0.3151
 2819POPC   D2A34086  18.906  11.122  15.933  0.2422 -0.0995 -0.0116
 2819POPC   C3A34087  18.901  11.273  16.397 -0.0858 -0.0006 -0.2194
 2819POPC   C4A34088  19.117  11.297  16.821  0.1700 -0.1452  0.1152
 2819POPC   C1B34089  19.878  11.331  16.095 -0.1360 -0.0757  0.0092
 2819POPC   C2B34090  19.941  11.271  16.499 -0.0214 -0.0912  0.1699
 2819POPC   C3B34091  20.183  11.470  16.825  0.0730  0.2991 -0.5449
 2819POPC   C4B34092  20.258  11.806  17.163  0.1425 -0.1216 -0.4260
 2820POPC   NC334093   4.966  14.472  15.187 -0.1680 -0.3617 -0.3609
 2820POPC   PO434094   4.641  14.194  15.156 -0.0177 -0.3195 -0.0340
 2820POPC   GL134095   4.732  14.022  15.509  0.2858 -0.0908 -0.2183
 2820POPC   GL234096   5.027  14.065  15.562 -0.0220 -0.1083  0.0766
 2820POPC   C1A34097   4.518  13.954  15.887  0.1329  0.0643 -0.0617
 2820POPC   D2A34098   4.401  14.078  16.340  0.1526 -0.0206  0.1315
 2820POPC   C3A34099   4.124  14.135  16.731  0.0541 -0.0600  0.1894
 2820POPC   C4A34100   3.910  14.046  17.052  0.0901 -0.4407  0.2178
 2820POPC   C1B34101   4.956  14.209  15.947  0.0366 -0.0480 -0.3917
 2820POPC   C2B34102   4.913  14.307  16.407 -0.2199  0.0051 -0.0682
 2820POPC   C3B34103   4.736  14.118  16.827  0.1023  0.0306 -0.2096
 2820POPC   C4B34104   4.416  13.876  17.018  0.0021  0.0665 -0.0904
 2821POPC   NC334105  12.518   6.862  15.374 -0.0161  0.1969 -0.3858
 2821POPC   PO434106  12.152   7.016  15.307 -0.3155 -0.0133 -0.3738
 2821POPC   GL134107  12.139   6.986  15.742 -0.1036  0.2879  0.0248
 2821POPC   GL234108  12.256   7.251  15.870  0.0943  0.4173  0.2305
 2821POPC   C1A34109  11.895   7.055  16.123  0.3960  0.0295  0.2731
 2821POPC   D2A34110  11.966   7.049  16.589  0.0831 -0.3094 -0.0880
 2821POPC   C3A34111  11.764   7.426  16.798 -0.1362 -0.0754 -0.0305
 2821POPC   C4A34112  11.650   7.670  17.165  0.0659 -0.2522  0.2533
 2821POPC   C1B34113  12.341   7.177  16.313  0.2436  0.0991 -0.0200
 2821POPC   C2B34114  12.498   7.096  16.799 -0.1961  0.1856  0.0262
 2821POPC   C3B34115  12.646   7.181  17.245  0.2004  0.0972 -0.3947
 2821POPC   C4B34116  12.853   7.336  17.613  0.2172  0.3496  0.1111
 2822POPC   NC334117  25.030  27.101  15.204 -0.1762 -0.0384  0.1364
 2822POPC   PO434118  25.357  27.281  15.291  0.0522 -0.1106 -0.1023
 2822POPC   GL134119  25.237  26.953  15.633  0.4926  0.2157  0.1173
 2822POPC   GL234120  25.492  26.758  15.755  0.2160 -0.1133  0.1898
 2822POPC   C1A34121  24.921  26.845  15.988 -0.0864 -0.0577 -0.1744
 2822POPC   D2A34122  24.845  26.748  16.430  0.2364 -0.1067 -0.3174
 2822POPC   C3A34123  24.776  26.884  16.881 -0.2083 -0.1160 -0.1284
 2822POPC   C4A34124  24.438  26.747  17.189  0.0807  0.1952 -0.0130
 2822POPC   C1B34125  25.463  26.726  16.188 -0.2446  0.0900  0.0141
 2822POPC   C2B34126  25.341  26.807  16.633  0.1582  0.2088  0.0815
 2822POPC   C3B34127  25.237  27.015  17.004  0.0497  0.0966 -0.2835
 2822POPC   C4B34128  24.935  27.245  17.241  0.1853  0.0393 -0.1630
 2823POPC   NC334129  29.838   5.397  14.797  0.2577 -0.0215 -0.3776
 2823POPC   PO434130  29.562   5.290  14.560 -0.0704 -0.0544  0.0727
 2823POPC   GL134131  29.259   5.605  14.715 -0.1752 -0.2468 -0.2944
 2823POPC   GL234132  29.361   5.623  15.002 -0.3185  0.1413  0.1594
 2823POPC   C1A34133  28.917   5.934  14.778 -0.1789 -0.0498  0.1312
 2823POPC   D2A34134  28.670   6.191  15.109 -0.1443  0.0630 -0.0746
 2823POPC   C3A34135  28.410   6.424  14.844 -0.2994 -0.0513 -0.1397
 2823POPC   C4A34136  28.171   6.370  14.453  0.0841  0.2345 -0.0688
 2823POPC   C1B34137  29.087   5.815  15.316 -0.0715 -0.1443  0.1195
 2823POPC   C2B34138  28.907   6.015  15.634 -0.0670  0.1257 -0.1701
 2823POPC   C3B34139  28.888   6.140  16.103 -0.2656  0.0712  0.0461
 2823POPC   C4B34140  28.922   6.545  16.301  0.1233  0.1715 -0.0432
 2824POPC   NC334141  10.514  15.788  15.626  0.0515  0.1494  0.1717
 2824POPC   PO434142  10.179  15.863  15.423 -0.0897 -0.2036 -0.1577
 2824POPC   GL134143  10.166  16.238  15.657  0.0750 -0.1356 -0.1099
 2824POPC   GL234144  10.372  16.267  15.876 -0.1845  0.1202  0.0213
 2824POPC   C1A34145   9.957  16.118  16.076  0.1221  0.0793  0.2658
 2824POPC   D2A34146  10.053  15.955  16.476  0.5673  0.1182 -0.0153
 2824POPC   C3A34147   9.887  16.190  16.813  0.0264 -0.1429  0.1160
 2824POPC   C4A34148   9.608  16.417  17.079 -0.2437 -0.2697 -0.1310
 2824POPC   C1B34149  10.567  16.129  16.255  0.0126  0.0297  0.2552
 2824POPC   C2B34150  10.781  15.728  16.264 -0.1315  0.1336  0.1531
 2824POPC   C3B34151  11.107  15.447  16.474 -0.2343  0.0367 -0.0446
 2824POPC   C4B34152  11.409  15.233  16.754  0.0156  0.0095  0.0848
 2825POPC   NC334153  17.875  26.463  15.347  0.1662 -0.1599 -0.0408
 2825POPC   PO434154  17.914  26.866  15.454  0.1889  0.0512 -0.1490
 2825POPC   GL134155  17.590  26.922  15.763  0.0333  0.2244  0.2711
 2825POPC   GL234156  17.314  26.949  15.736 -0.0325 -0.0797  0.0706
 2825POPC   C1A34157  17.605  27.126  16.190 -0.3241  0.0949  0.6615
 2825POPC   D2A34158  17.833  27.127  16.585 -0.0243 -0.1249  0.0258
 2825POPC   C3A34159  17.779  26.893  17.001 -0.5037 -0.2906 -0.1225
 2825POPC   C4A34160  17.712  26.626  17.392 -0.1407 -0.1963  0.1706
 2825POPC   C1B34161  17.244  26.573  16.016 -0.1496 -0.4323  0.1348
 2825POPC   C2B34162  17.226  26.309  16.333  0.2499  0.1582  0.1537
 2825POPC   C3B34163  17.261  26.191  16.719 -0.1434 -0.4325 -0.0708
 2825POPC   C4B34164  17.302  25.873  17.067  0.0093 -0.1504  0.3251
 2826POPC   NC334165  10.224   0.349  15.284  0.3518  0.1828  0.1347
 2826POPC   PO434166  10.534   0.582  15.335  0.3440 -0.0162 -0.0543
 2826POPC   GL134167  10.776   0.885  15.580 -0.2718  0.1072  0.0647
 2826POPC   GL234168  11.015   0.673  15.636 -0.0310  0.2919 -0.1135
 2826POPC   C1A34169  10.756   0.884  16.085  0.1673  0.1432 -0.0819
 2826POPC   D2A34170  10.600   0.840  16.489  0.2231 -0.0176 -0.1439
 2826POPC   C3A34171  10.736   1.179  16.740  0.0721  0.1556  0.0006
 2826POPC   C4A34172  11.052   1.216  17.118 -0.0696  0.1360  0.1566
 2826POPC   C1B34173  10.890   0.402  15.994  0.2592 -0.0003 -0.1790
 2826POPC   C2B34174  10.868   0.395  16.455  0.0974  0.1291 -0.1035
 2826POPC   C3B34175  10.981   0.165  16.819  0.0292 -0.1065 -0.0185
 2826POPC   C4B34176  11.045  -0.147  17.126  0.3879  0.1621  0.2379
 2827POPC   NC334177  29.724  11.408  15.813 -0.0363 -0.1923  0.0028
 2827POPC   PO434178  30.082  11.390  15.649  0.2215  0.1883  0.1347
 2827POPC   GL134179  30.201  11.287  15.980  0.3027  0.0544  0.1171
 2827POPC   GL234180  30.373  11.015  15.953 -0.1530  0.0923  0.0127
 2827POPC   C1A34181  29.947  11.266  16.406  0.0545 -0.2557  0.1968
 2827POPC   D2A34182  29.810  11.554  16.792  0.1158 -0.3468 -0.0168
 2827POPC   C3A34183  29.488  11.794  16.974  0.1093 -0.3209  0.0136
 2827POPC   C4A34184  29.265  12.173  17.144 -0.2202  0.0097 -0.0938
 2827POPC   C1B34185  30.429  10.975  16.424  0.1666  0.3399 -0.3780
 2827POPC   C2B34186  30.420  10.938  16.877 -0.0084  0.0604 -0.0087
 2827POPC   C3B34187  30.275  10.749  17.270  0.5098 -0.0986 -0.1502
 2827POPC   C4B34188  30.338  10.484  17.662 -0.1761 -0.3551  0.1015
 2828POPC   NC334189  27.026  10.823  15.117 -0.2932  0.0397 -0.0685
 2828POPC   PO434190  26.934  10.477  15.000  0.0188 -0.0291  0.0405
 2828POPC   GL134191  26.691  10.522  15.307  0.3462  0.2944  0.5448
 2828POPC   GL234192  26.976  10.485  15.520 -0.2407 -0.2103  0.0456
 2828POPC   C1A34193  26.482  10.678  15.668 -0.1564 -0.0267  0.1199
 2828POPC   D2A34194  26.596  10.918  16.080 -0.0988 -0.1236  0.0939
 2828POPC   C3A34195  26.277  10.867  16.402  0.2059 -0.0730 -0.0301
 2828POPC   C4A34196  25.895  10.828  16.666  0.1312 -0.1527 -0.2337
 2828POPC   C1B34197  26.956  10.894  15.734 -0.0585  0.3194 -0.1628
 2828POPC   C2B34198  26.924  11.324  15.951 -0.0043 -0.3215 -0.2698
 2828POPC   C3B34199  26.662  11.671  16.132  0.3698 -0.1003 -0.3116
 2828POPC   C4B34200  26.564  11.667  16.596 -0.1175 -0.0152  0.1176
 2829POPC   NC334201  28.970  27.901  15.523  0.2610 -0.1702 -0.1453
 2829POPC   PO434202  28.735  28.216  15.418  0.1058 -0.1572  0.1216
 2829POPC   GL134203  28.484  28.179  15.693  0.0832  0.0557  0.2487
 2829POPC   GL234204  28.681  28.143  15.965 -0.5482 -0.1000 -0.0057
 2829POPC   C1A34205  28.037  28.320  15.624 -0.2297 -0.1706 -0.3919
 2829POPC   D2A34206  27.638  28.084  15.661  0.0043  0.3836 -0.0303
 2829POPC   C3A34207  27.531  28.013  16.153  0.0834 -0.0875  0.2214
 2829POPC   C4A34208  27.290  28.013  16.541  0.1176 -0.0149  0.1108
 2829POPC   C1B34209  28.309  28.319  16.126  0.0161 -0.5199  0.1447
 2829POPC   C2B34210  28.217  28.486  16.507 -0.1257 -0.1083 -0.1987
 2829POPC   C3B34211  27.991  28.300  16.884 -0.3876  0.0322  0.0309
 2829POPC   C4B34212  27.731  27.934  16.946  0.0400 -0.1839  0.1122
 2830POPC   NC334213  23.917  28.858  15.696  0.3810 -0.0936 -0.0831
 2830POPC   PO434214  24.093  28.792  15.360 -0.2534 -0.0887  0.1087
 2830POPC   GL134215  24.327  28.727  15.655 -0.2508 -0.0196 -0.2445
 2830POPC   GL234216  24.531  28.939  15.708  0.1544  0.2143 -0.0409
 2830POPC   C1A34217  24.346  28.457  16.016 -0.2367  0.1084  0.0005
 2830POPC   D2A34218  24.539  28.163  16.302  0.0648 -0.0184 -0.0626
 2830POPC   C3A34219  24.231  28.213  16.653  0.0777  0.1710 -0.1712
 2830POPC   C4A34220  23.988  28.405  16.949 -0.2342 -0.0640  0.0858
 2830POPC   C1B34221  24.342  28.910  16.156 -0.1793  0.2175 -0.2345
 2830POPC   C2B34222  24.368  28.845  16.627 -0.0100 -0.2201  0.2193
 2830POPC   C3B34223  24.631  28.799  17.013 -0.3819  0.2663  0.1758
 2830POPC   C4B34224  24.878  28.615  17.309  0.0580  0.2600 -0.0958
 2831POPC   NC334225   8.567  24.489  14.499 -0.0943 -0.5559 -0.1211
 2831POPC   PO434226   8.711  24.816  14.643 -0.1410  0.1036  0.0167
 2831POPC   GL134227   8.442  24.823  14.968  0.0433 -0.3044 -0.1961
 2831POPC   GL234228   8.557  24.678  15.182 -0.0839 -0.1799  0.0693
 2831POPC   C1A34229   7.990  24.976  15.015 -0.0644  0.1284  0.1464
 2831POPC   D2A34230   7.600  25.130  14.895 -0.0331 -0.1024  0.2000
 2831POPC   C3A34231   7.242  25.404  15.062 -0.0068 -0.0047 -0.1813
 2831POPC   C4A34232   6.864  25.503  15.292  0.1241  0.1839  0.0595
 2831POPC   C1B34233   8.320  24.746  15.521  0.0948 -0.0660 -0.3880
 2831POPC   C2B34234   8.183  24.725  15.947  0.2486  0.0684 -0.0220
 2831POPC   C3B34235   8.001  24.875  16.359  0.0673 -0.0746 -0.2749
 2831POPC   C4B34236   8.043  25.171  16.705  0.1183 -0.1231  0.0669
 2832POPC   NC334237  28.517  30.447  14.115 -0.3322  0.0124 -0.0955
 2832POPC   PO434238  28.597  30.286  14.455  0.1091 -0.1396 -0.1770
 2832POPC   GL134239  28.429  30.496  14.638 -0.0419 -0.2197  0.4166
 2832POPC   GL234240  28.399  30.467  14.965 -0.3280 -0.0262  0.0035
 2832POPC   C1A34241  28.095  30.745  14.524  0.3137  0.0105  0.0003
 2832POPC   D2A34242  27.853  31.034  14.267  0.3171 -0.1502 -0.3404
 2832POPC   C3A34243  27.687  31.434  14.530 -0.2377 -0.2518  0.1176
 2832POPC   C4A34244  27.607  31.609  14.934  0.0308 -0.1568  0.0389
 2832POPC   C1B34245  27.919  30.436  15.146 -0.0528 -0.0036 -0.1084
 2832POPC   C2B34246  27.596  30.356  15.468 -0.0312 -0.1740 -0.2548
 2832POPC   C3B34247  27.492  29.957  15.668  0.4996  0.2802 -0.0871
 2832POPC   C4B34248  27.597  29.821  16.109 -0.2315 -0.3004 -0.0309
 2833POPC   NC334249   1.757  31.692  14.959  0.3359 -0.0419  0.1703
 2833POPC   PO434250   2.120  31.795  15.008 -0.1431  0.2371  0.3205
 2833POPC   GL134251   2.121  31.778  15.331  0.0893  0.0339  0.0229
 2833POPC   GL234252   2.371  31.947  15.425 -0.2021 -0.0683 -0.2350
 2833POPC   C1A34253   2.024  31.774  15.735 -0.1294  0.0847  0.0014
 2833POPC   D2A34254   1.849  31.813  16.151 -0.0586  0.0640  0.0005
 2833POPC   C3A34255   1.854  32.024  16.558  0.2229  0.3280  0.0649
 2833POPC   C4A34256   2.071  31.972  17.009  0.2812  0.0599  0.2270
 2833POPC   C1B34257   2.570  31.796  15.834 -0.0685  0.0549 -0.1537
 2833POPC   C2B34258   2.606  31.649  16.301  0.1911 -0.1842 -0.0450
 2833POPC   C3B34259   2.402  31.479  16.670  0.3301  0.2935 -0.0637
 2833POPC   C4B34260   2.171  31.177  17.011  0.0926  0.1408  0.0245
 2834POPC   NC334261  23.845   1.501  15.431 -0.1010  0.0276 -0.2114
 2834POPC   PO434262  23.545   1.685  15.303  0.3339  0.0071  0.0167
 2834POPC   GL134263  23.302   1.555  15.533 -0.1650  0.3687 -0.0362
 2834POPC   GL234264  23.454   1.516  15.794 -0.0962 -0.2388  0.0244
 2834POPC   C1A34265  22.950   1.603  15.833  0.0684  0.1472 -0.0045
 2834POPC   D2A34266  22.557   1.586  16.096  0.2668 -0.2389 -0.3666
 2834POPC   C3A34267  22.733   1.794  16.559  0.2180 -0.2629 -0.2685
 2834POPC   C4A34268  22.614   2.041  16.995  0.1158  0.3688 -0.0085
 2834POPC   C1B34269  23.413   1.220  16.153 -0.0619 -0.1791  0.0522
 2834POPC   C2B34270  23.460   0.990  16.539 -0.0178 -0.2002 -0.2363
 2834POPC   C3B34271  23.528   0.915  16.998 -0.3136 -0.1644  0.0301
 2834POPC   C4B34272  23.488   0.857  17.451  0.0571 -0.5314 -0.1854
 2835POPC   NC334273  11.590  11.653  15.482 -0.3482 -0.0905 -0.1458
 2835POPC   PO434274  11.795  11.977  15.533  0.0161  0.2223 -0.3550
 2835POPC   GL134275  11.694  11.909  15.874  0.1385  0.1156  0.3548
 2835POPC   GL234276  11.981  11.886  16.011  0.0082 -0.1291 -0.2301
 2835POPC   C1A34277  11.333  11.614  16.002  0.1962  0.2519 -0.1364
 2835POPC   D2A34278  11.169  11.261  16.193  0.0959 -0.0256  0.1802
 2835POPC   C3A34279  11.206  11.248  16.639 -0.1082 -0.1278  0.1919
 2835POPC   C4A34280  11.193  11.120  17.035 -0.5485  0.0406 -0.1830
 2835POPC   C1B34281  11.692  12.070  16.344 -0.1919 -0.0725  0.1051
 2835POPC   C2B34282  11.580  12.115  16.816 -0.0807 -0.4441 -0.2261
 2835POPC   C3B34283  11.635  11.879  17.243  0.0680 -0.0218 -0.0580
 2835POPC   C4B34284  11.680  11.485  17.545 -0.2309  0.5101  0.1216
 2836POPC   NC334285  30.150  21.179  15.647  0.2458 -0.1285  0.0170
 2836POPC   PO434286  30.352  21.075  15.298  0.1672  0.0676 -0.2544
 2836POPC   GL134287  30.624  21.177  15.583 -0.0189  0.0167 -0.2536
 2836POPC   GL234288  30.822  20.940  15.544  0.1500 -0.1838 -0.1049
 2836POPC   C1A34289  30.503  21.292  16.008 -0.0679 -0.3108  0.1582
 2836POPC   D2A34290  30.540  21.287  16.453  0.1178  0.2703  0.0815
 2836POPC   C3A34291  30.817  21.305  16.791  0.0092 -0.2655 -0.1322
 2836POPC   C4A34292  31.022  21.150  17.208  0.2314 -0.2244  0.0489
 2836POPC   C1B34293  30.759  20.897  15.983 -0.0956  0.0715  0.2334
 2836POPC   C2B34294  30.380  20.869  16.206  0.0307 -0.1771  0.0665
 2836POPC   C3B34295  30.000  20.781  16.466 -0.3740 -0.0941  0.2640
 2836POPC   C4B34296  29.699  20.822  16.793  0.2387  0.1577  0.1733
 2837POPC   NC334297  14.737  26.230  14.976  0.0704  0.2383 -0.0251
 2837POPC   PO434298  14.508  26.001  14.793 -0.6500 -0.0243 -0.0440
 2837POPC   GL134299  14.325  26.000  15.176  0.1880 -0.1488 -0.3276
 2837POPC   GL234300  14.402  26.280  15.338 -0.2121 -0.1624  0.1884
 2837POPC   C1A34301  14.125  25.750  15.513 -0.3206 -0.2625  0.1456
 2837POPC   D2A34302  13.750  25.509  15.540  0.2298 -0.0317  0.0200
 2837POPC   C3A34303  13.390  25.630  15.763 -0.1005  0.0523  0.0143
 2837POPC   C4A34304  13.180  26.034  15.811  0.1306 -0.1245  0.0757
 2837POPC   C1B34305  14.291  26.140  15.815 -0.2209 -0.0146  0.4055
 2837POPC   C2B34306  13.996  26.324  16.158  0.0446  0.1450 -0.1955
 2837POPC   C3B34307  13.920  26.409  16.563 -0.1743 -0.1824 -0.1565
 2837POPC   C4B34308  13.659  26.641  16.894 -0.2394  0.0338 -0.1912
 2838POPC   NC334309  23.744  10.561  15.492 -0.4534  0.0581 -0.1143
 2838POPC   PO434310  23.819  10.938  15.330 -0.0780  0.1625  0.0753
 2838POPC   GL134311  23.904  10.934  15.708  0.0920  0.0050  0.2799
 2838POPC   GL234312  23.695  10.832  15.903 -0.0469 -0.1058  0.2377
 2838POPC   C1A34313  24.307  11.109  15.921  0.2758  0.0868  0.0634
 2838POPC   D2A34314  24.661  11.327  16.069 -0.1502  0.0888 -0.2367
 2838POPC   C3A34315  24.864  11.516  16.474 -0.2363  0.2853  0.1170
 2838POPC   C4A34316  25.231  11.553  16.764  0.0601  0.0689 -0.2936
 2838POPC   C1B34317  23.750  11.059  16.347 -0.0854 -0.0351  0.0231
 2838POPC   C2B34318  23.876  11.054  16.794 -0.0195 -0.4447  0.1111
 2838POPC   C3B34319  24.250  11.113  17.036  0.0780  0.2011 -0.2268
 2838POPC   C4B34320  24.661  11.042  17.236 -0.0789  0.3402 -0.3059
 2839POPC   NC334321   1.041  31.012  15.136  0.0836  0.0148 -0.0629
 2839POPC   PO434322   1.084  30.621  15.043  0.1590 -0.0999  0.1882
 2839POPC   GL134323   1.184  30.626  15.474 -0.1223 -0.0777 -0.0414
 2839POPC   GL234324   1.237  30.360  15.463  0.3083  0.0975  0.1490
 2839POPC   C1A34325   1.226  30.791  15.882 -0.0117 -0.1581 -0.1152
 2839POPC   D2A34326   0.983  30.860  16.241 -0.3747 -0.4690 -0.0082
 2839POPC   C3A34327   0.967  30.926  16.700  0.1870  0.1717  0.2761
 2839POPC   C4A34328   0.988  30.986  17.178  0.1203  0.1473  0.1978
 2839POPC   C1B34329   1.227  30.325  15.913  0.0056 -0.0652 -0.1077
 2839POPC   C2B34330   1.317  30.474  16.309 -0.4232 -0.2556  0.1696
 2839POPC   C3B34331   1.235  30.518  16.756  0.0204  0.1709  0.1448
 2839POPC   C4B34332   1.125  30.382  17.162  0.1204  0.1121  0.2443
 2840POPC   NC334333  31.391  19.810  15.670  0.1294  0.0041  0.1291
 2840POPC   PO434334  31.112  20.119  15.637  0.0308 -0.3448  0.1490
 2840POPC   GL134335  31.271  20.384  15.861 -0.1720  0.2191 -0.2380
 2840POPC   GL234336  31.446  20.162  16.020 -0.1761 -0.0053  0.0806
 2840POPC   C1A34337  31.064  20.518  16.245 -0.2335 -0.1804 -0.0025
 2840POPC   D2A34338  30.926  20.901  16.498  0.1431  0.0510 -0.1463
 2840POPC   C3A34339  30.941  20.779  16.913  0.1387  0.1033  0.1587
 2840POPC   C4A34340  30.639  20.848  17.203  0.3169  0.5566 -0.0023
 2840POPC   C1B34341  31.480  20.363  16.359 -0.0257  0.1454 -0.1007
 2840POPC   C2B34342  31.441  20.738  16.633  0.0323  0.2602  0.1048
 2840POPC   C3B34343  31.489  20.873  17.038  0.1588  0.1934  0.1103
 2840POPC   C4B34344  31.773  21.222  17.100  0.1147  0.0722  0.0584
 2841POPC   NC334345   9.801  13.375  15.129 -0.1600  0.3097  0.0675
 2841POPC   PO434346   9.889  13.707  15.020 -0.0973 -0.2879 -0.0649
 2841POPC   GL134347   9.976  13.742  15.387  0.1315 -0.6244  0.3898
 2841POPC   GL234348   9.818  13.954  15.485 -0.3695  0.2603 -0.0015
 2841POPC   C1A34349  10.210  13.782  15.751 -0.2283 -0.1752 -0.1527
 2841POPC   D2A34350  10.001  13.658  16.093 -0.1225  0.2122  0.0418
 2841POPC   C3A34351  10.011  13.669  16.566  0.0626 -0.2134  0.2925
 2841POPC   C4A34352  10.005  13.934  16.975  0.0838 -0.1137  0.2508
 2841POPC   C1B34353   9.776  14.059  15.953  0.2013 -0.0364  0.1709
 2841POPC   C2B34354   9.837  14.161  16.375  0.0935 -0.0070 -0.4961
 2841POPC   C3B34355   9.562  14.118  16.798 -0.0163 -0.2566 -0.1675
 2841POPC   C4B34356   9.653  14.079  17.316 -0.0098  0.0904  0.1276
 2842POPC   NC334357  28.726  13.680  15.146  0.0344 -0.0513  0.1237
 2842POPC   PO434358  28.931  13.966  15.011  0.2585  0.1080  0.0642
 2842POPC   GL134359  28.939  14.122  15.401 -0.1133  0.1566 -0.0702
 2842POPC   GL234360  28.646  14.012  15.466  0.2743 -0.1100 -0.1743
 2842POPC   C1A34361  28.703  14.377  15.719 -0.0751  0.0589 -0.1561
 2842POPC   D2A34362  28.292  14.554  15.935 -0.3004 -0.1100  0.0173
 2842POPC   C3A34363  27.931  14.383  16.166  0.1026  0.1227 -0.3006
 2842POPC   C4A34364  27.782  14.286  16.588  0.0901 -0.0337 -0.2380
 2842POPC   C1B34365  28.917  13.917  15.858 -0.1537 -0.0464  0.0260
 2842POPC   C2B34366  28.999  13.871  16.332  0.0114 -0.3189 -0.1845
 2842POPC   C3B34367  28.885  14.014  16.710 -0.1264 -0.0386 -0.1946
 2842POPC   C4B34368  28.624  14.056  17.123 -0.1751 -0.3998 -0.1755
 2843POPC   NC334369  20.366   5.077  14.736  0.3238  0.0187  0.1914
 2843POPC   PO434370  20.120   4.919  14.974  0.0072 -0.2761 -0.1131
 2843POPC   GL134371  20.317   4.880  15.388  0.0000 -0.5784  0.0527
 2843POPC   GL234372  20.179   4.704  15.492 -0.1339 -0.0230 -0.0102
 2843POPC   C1A34373  20.472   5.141  15.781 -0.1515 -0.1521 -0.1512
 2843POPC   D2A34374  20.651   5.000  16.200 -0.0431 -0.1950 -0.0882
 2843POPC   C3A34375  21.005   4.920  16.522 -0.2732 -0.0099 -0.0683
 2843POPC   C4A34376  21.108   4.717  16.958  0.2300 -0.4303  0.1644
 2843POPC   C1B34377  20.144   4.831  15.962 -0.1106  0.1049  0.2706
 2843POPC   C2B34378  20.016   4.968  16.366  0.4133  0.0558  0.2307
 2843POPC   C3B34379  20.022   4.819  16.798  0.1438 -0.1560 -0.0823
 2843POPC   C4B34380  20.167   5.043  17.202 -0.0486 -0.1733 -0.0046
 2844POPC   NC334381  23.861   7.911  15.190 -0.1718 -0.0161  0.0208
 2844POPC   PO434382  23.733   8.286  15.152 -0.4116 -0.0874 -0.0539
 2844POPC   GL134383  23.518   8.391  15.499 -0.0703 -0.2215 -0.0093
 2844POPC   GL234384  23.709   8.354  15.780 -0.0847  0.1549 -0.2027
 2844POPC   C1A34385  23.107   8.408  15.731 -0.1439  0.2024  0.2248
 2844POPC   D2A34386  22.901   8.728  16.008 -0.0518 -0.0449 -0.0251
 2844POPC   C3A34387  22.831   8.707  16.484  0.2919 -0.0903 -0.3216
 2844POPC   C4A34388  22.778   8.712  16.974  0.0007 -0.1941 -0.0716
 2844POPC   C1B34389  23.414   8.533  16.061  0.2034 -0.0815  0.0622
 2844POPC   C2B34390  23.307   8.738  16.460 -0.1617  0.0545 -0.0790
 2844POPC   C3B34391  23.251   8.878  16.870  0.0754 -0.1386 -0.0833
 2844POPC   C4B34392  23.434   9.231  17.104 -0.0334 -0.0219  0.0354
 2845POPC   NC334393  23.161  13.995  15.361 -0.2310 -0.1759  0.1499
 2845POPC   PO434394  23.374  13.769  15.072  0.0020 -0.3483 -0.3287
 2845POPC   GL134395  23.281  13.539  15.442  0.2582 -0.1633 -0.4939
 2845POPC   GL234396  23.409  13.616  15.650 -0.0946 -0.1271  0.0254
 2845POPC   C1A34397  22.983  13.562  15.809  0.0159 -0.2581  0.2765
 2845POPC   D2A34398  22.790  13.733  16.236  0.3859  0.0554 -0.1199
 2845POPC   C3A34399  22.803  13.502  16.660 -0.1037  0.1450 -0.1335
 2845POPC   C4A34400  23.060  13.473  17.053 -0.2178 -0.2381 -0.0488
 2845POPC   C1B34401  23.376  13.748  16.102 -0.1067  0.0164 -0.1714
 2845POPC   C2B34402  23.535  13.614  16.509  0.0238  0.1990  0.0791
 2845POPC   C3B34403  23.617  13.504  16.958 -0.2408 -0.0828  0.0377
 2845POPC   C4B34404  23.923  13.549  17.327  0.1977 -0.0380 -0.3425
 2846POPC   NC334405  25.639   3.506  15.265 -0.0026  0.2793  0.1339
 2846POPC   PO434406  25.972   3.301  15.313 -0.0360  0.2266  0.1046
 2846POPC   GL134407  25.905   3.521  15.714  0.1900 -0.3435  0.0480
 2846POPC   GL234408  25.612   3.460  15.735  0.0472 -0.0569  0.0798
 2846POPC   C1A34409  25.901   3.739  16.131  0.0329 -0.1118 -0.0699
 2846POPC   D2A34410  25.516   3.866  16.464  0.0669 -0.0991 -0.2906
 2846POPC   C3A34411  25.210   4.029  16.784  0.0920  0.2436 -0.1733
 2846POPC   C4A34412  24.773   4.051  16.924 -0.2844 -0.3576 -0.1909
 2846POPC   C1B34413  25.505   3.900  15.949  0.2843  0.1392 -0.0561
 2846POPC   C2B34414  25.194   4.146  16.199 -0.0465  0.0204 -0.1126
 2846POPC   C3B34415  24.881   4.320  16.499 -0.3556 -0.0865  0.0514
 2846POPC   C4B34416  24.520   4.503  16.759  0.0311 -0.1792  0.2331
 2847POPC   NC334417  11.067  19.340  14.767  0.0428  0.1975 -0.1133
 2847POPC   PO434418  11.404  19.427  14.883 -0.1601  0.2717 -0.0757
 2847POPC   GL134419  11.581  19.422  15.207 -0.1815  0.0493  0.2072
 2847POPC   GL234420  11.664  19.140  15.252 -0.1919 -0.0479 -0.2480
 2847POPC   C1A34421  11.497  19.343  15.672 -0.1524  0.0415  0.1466
 2847POPC   D2A34422  11.672  19.318  16.061  0.1174 -0.0484 -0.2637
 2847POPC   C3A34423  11.802  19.363  16.485  0.1834  0.0298  0.4167
 2847POPC   C4A34424  11.768  19.211  16.920 -0.5555  0.0602  0.2293
 2847POPC   C1B34425  11.877  19.013  15.678 -0.0392  0.3606  0.3831
 2847POPC   C2B34426  11.829  18.812  16.061 -0.0667  0.1067 -0.1993
 2847POPC   C3B34427  11.885  18.567  16.489 -0.0946 -0.0456  0.2025
 2847POPC   C4B34428  11.786  18.270  16.766 -0.1739  0.1895 -0.0465
 2848POPC   NC334429   7.265  18.206  14.687  0.1003  0.0140 -0.0318
 2848POPC   PO434430   6.911  18.415  14.763 -0.0176  0.1510 -0.0262
 2848POPC   GL134431   7.059  18.287  15.116  0.0212 -0.3905  0.0255
 2848POPC   GL234432   7.352  18.330  15.132  0.1422 -0.4006  0.3336
 2848POPC   C1A34433   6.987  18.142  15.596  0.1129  0.0859  0.1297
 2848POPC   D2A34434   6.756  17.943  15.909 -0.0276  0.0772 -0.1847
 2848POPC   C3A34435   6.886  17.795  16.318 -0.0937  0.0717 -0.2174
 2848POPC   C4A34436   6.763  17.605  16.770  0.1871  0.1786 -0.0412
 2848POPC   C1B34437   7.377  18.567  15.541 -0.0374  0.0420 -0.1473
 2848POPC   C2B34438   7.303  18.687  15.985  0.2293  0.1839  0.0693
 2848POPC   C3B34439   7.092  18.726  16.392 -0.1162 -0.0950  0.1421
 2848POPC   C4B34440   7.103  19.073  16.747  0.1298  0.0580  0.0483
 2849POPC   NC334441  12.722   7.670  15.239  0.3241 -0.1836  0.3033
 2849POPC   PO434442  12.579   7.319  15.403 -0.0641 -0.0758  0.1737
 2849POPC   GL134443  12.971   7.258  15.595 -0.0269  0.4743  0.0463
 2849POPC   GL234444  12.998   6.981  15.601 -0.1026 -0.2708  0.0430
 2849POPC   C1A34445  13.160   7.195  16.002  0.1077 -0.0852 -0.1137
 2849POPC   D2A34446  13.113   7.176  16.453 -0.0173 -0.0270 -0.0253
 2849POPC   C3A34447  13.460   7.453  16.457 -0.0194  0.0457  0.0559
 2849POPC   C4A34448  13.487   7.898  16.380 -0.0269  0.1191 -0.1776
 2849POPC   C1B34449  12.679   6.976  15.921 -0.1480 -0.0839 -0.0734
 2849POPC   C2B34450  12.740   6.842  16.384 -0.1255  0.0678  0.0038
 2849POPC   C3B34451  13.118   6.741  16.636 -0.1179  0.1470 -0.0829
 2849POPC   C4B34452  13.095   6.757  17.095  0.0556  0.0095 -0.0249
 2850POPC   NC334453  23.845  12.896  15.083  0.3331 -0.0539  0.2046
 2850POPC   PO434454  23.770  12.689  15.416 -0.1032 -0.1000  0.1657
 2850POPC   GL134455  24.011  12.870  15.562 -0.0823  0.1783 -0.0748
 2850POPC   GL234456  24.288  12.735  15.482  0.0160  0.0225 -0.1255
 2850POPC   C1A34457  23.988  12.925  16.057  0.0811 -0.1682  0.0550
 2850POPC   D2A34458  24.256  12.854  16.434 -0.1454  0.4402 -0.1505
 2850POPC   C3A34459  24.586  12.624  16.681  0.0192 -0.4095  0.0973
 2850POPC   C4A34460  24.462  12.583  17.096  0.2827 -0.3128 -0.0837
 2850POPC   C1B34461  24.359  12.561  15.968  0.3596  0.0307 -0.0264
 2850POPC   C2B34462  24.596  12.272  16.306 -0.1264 -0.0957  0.3141
 2850POPC   C3B34463  24.505  12.175  16.757 -0.0474 -0.0419  0.0327
 2850POPC   C4B34464  24.505  11.998  17.167  0.2882 -0.0917 -0.1903
 2851POPC   NC334465   4.951   4.074  15.107  0.0874  0.0441  0.0028
 2851POPC   PO434466   4.770   3.832  15.391  0.1486  0.1007  0.1547
 2851POPC   GL134467   4.662   4.150  15.616  0.0278  0.3852 -0.1423
 2851POPC   GL234468   4.374   4.179  15.583 -0.1756 -0.1805  0.2661
 2851POPC   C1A34469   4.469   4.217  16.059 -0.1286 -0.1068  0.0008
 2851POPC   D2A34470   4.440   4.457  16.507 -0.1713  0.4395 -0.2076
 2851POPC   C3A34471   4.293   4.610  16.942  0.4011  0.0675  0.2091
 2851POPC   C4A34472   3.982   4.768  17.261 -0.2425  0.2235  0.1723
 2851POPC   C1B34473   4.168   3.803  15.853  0.0833 -0.2953 -0.1687
 2851POPC   C2B34474   4.133   3.536  16.216 -0.0281 -0.0806 -0.0490
 2851POPC   C3B34475   4.037   3.682  16.657  0.2841  0.0964 -0.0971
 2851POPC   C4B34476   3.841   3.854  17.100 -0.1358  0.0554  0.1679
 2852POPC   NC334477  17.361  18.518  15.116  0.2839 -0.0456  0.0896
 2852POPC   PO434478  17.533  18.236  15.319 -0.0327  0.0881  0.0240
 2852POPC   GL134479  17.313  18.399  15.726  0.3117  0.2444  0.2343
 2852POPC   GL234480  17.490  18.448  15.938 -0.3362 -0.0334  0.0360
 2852POPC   C1A34481  17.263  18.053  16.041  0.1089  0.0221 -0.3201
 2852POPC   D2A34482  17.380  17.705  16.333  0.1567 -0.0125 -0.2388
 2852POPC   C3A34483  17.207  17.405  16.616  0.0474 -0.2829  0.2482
 2852POPC   C4A34484  17.114  17.044  16.811 -0.1771  0.4397 -0.0804
 2852POPC   C1B34485  17.836  18.296  16.252  0.0139 -0.1267  0.1392
 2852POPC   C2B34486  18.305  18.330  16.373  0.1170  0.2829 -0.2232
 2852POPC   C3B34487  18.494  18.295  16.731 -0.1420  0.0537  0.1748
 2852POPC   C4B34488  18.308  18.045  17.091  0.1912  0.1845  0.2231
 2853POPC   NC334489  17.603   0.193  14.887  0.0101  0.0773 -0.0791
 2853POPC   PO434490  17.296   0.030  15.053 -0.1276  0.1806  0.0009
 2853POPC   GL134491  17.352  -0.106  15.496 -0.0505 -0.1791 -0.1812
 2853POPC   GL234492  17.162  -0.287  15.663  0.1223  0.0185  0.1862
 2853POPC   C1A34493  17.387   0.160  15.901  0.0452 -0.0732  0.0431
 2853POPC   D2A34494  17.306   0.532  16.180  0.0433 -0.4485  0.2622
 2853POPC   C3A34495  17.092   0.547  16.594 -0.1194  0.0595  0.1849
 2853POPC   C4A34496  17.022   0.552  17.042  0.0569 -0.2512  0.3562
 2853POPC   C1B34497  16.723  -0.262  15.714 -0.3692  0.0749 -0.0077
 2853POPC   C2B34498  16.354  -0.092  15.930 -0.2538 -0.0364 -0.0678
 2853POPC   C3B34499  16.368   0.243  16.207 -0.1171  0.1034  0.0419
 2853POPC   C4B34500  16.185   0.425  16.546  0.2701  0.0263  0.0483
 2854POPC   NC334501   6.841  15.459  15.667 -0.2422  0.1925  0.0811
 2854POPC   PO434502   7.235  15.350  15.617  0.1057 -0.1252 -0.0603
 2854POPC   GL134503   7.140  15.180  15.896  0.1232  0.1935 -0.4102
 2854POPC   GL234504   6.913  15.034  15.887  0.0340 -0.0867 -0.1007
 2854POPC   C1A34505   7.021  15.351  16.307  0.0772 -0.0871 -0.0131
 2854POPC   D2A34506   6.858  15.321  16.700 -0.0367  0.3144  0.0998
 2854POPC   C3A34507   6.788  15.713  16.904 -0.3319  0.0415  0.2774
 2854POPC   C4A34508   6.664  16.189  17.158  0.2114 -0.0805 -0.1188
 2854POPC   C1B34509   7.102  14.864  16.303 -0.1317  0.1273  0.0834
 2854POPC   C2B34510   7.225  15.018  16.740  0.1346  0.1321 -0.1727
 2854POPC   C3B34511   7.052  15.008  17.175 -0.2261 -0.0508  0.0091
 2854POPC   C4B34512   7.176  15.171  17.611 -0.2838  0.0383 -0.1237
 2855POPC   NC334513  14.835  28.328  15.261 -0.0165  0.1727 -0.1647
 2855POPC   PO434514  15.033  28.590  15.465  0.0165  0.1474  0.4185
 2855POPC   GL134515  14.960  28.747  15.790 -0.0485  0.0403 -0.2937
 2855POPC   GL234516  15.235  28.915  15.859 -0.0449 -0.1272  0.2162
 2855POPC   C1A34517  14.729  28.869  16.164 -0.0870  0.0188 -0.0575
 2855POPC   D2A34518  14.330  28.920  16.422 -0.0567  0.3085 -0.2750
 2855POPC   C3A34519  13.900  28.734  16.558 -0.2839  0.0509 -0.0811
 2855POPC   C4A34520  13.531  28.841  16.671  0.0906 -0.0943 -0.0611
 2855POPC   C1B34521  15.268  28.987  16.329 -0.1094 -0.2337 -0.0803
 2855POPC   C2B34522  15.286  29.402  16.481 -0.2321 -0.3012 -0.1432
 2855POPC   C3B34523  15.248  29.833  16.590  0.2724  0.0323  0.0903
 2855POPC   C4B34524  15.286  30.184  16.915  0.0883 -0.0858 -0.1290
 2856POPC   NC334525  10.403   2.486  14.951 -0.0794  0.0001  0.0401
 2856POPC   PO434526  10.407   2.652  15.289 -0.0169 -0.0830  0.4644
 2856POPC   GL134527  10.403   2.551  15.692 -0.0246 -0.0149 -0.0002
 2856POPC   GL234528  10.184   2.476  15.820 -0.0574 -0.0648  0.2125
 2856POPC   C1A34529  10.632   2.350  16.059  0.0960 -0.0052  0.2089
 2856POPC   D2A34530  10.858   2.404  16.381  0.0420  0.2277  0.0705
 2856POPC   C3A34531  10.765   2.493  16.841  0.1822 -0.0582  0.1769
 2856POPC   C4A34532  10.623   2.560  17.258 -0.1530 -0.1280  0.0128
 2856POPC   C1B34533  10.207   2.484  16.289 -0.2676 -0.2787  0.0614
 2856POPC   C2B34534   9.965   2.459  16.697 -0.1552  0.0202 -0.0692
 2856POPC   C3B34535   9.769   2.480  17.075 -0.1335  0.1322  0.1122
 2856POPC   C4B34536   9.612   2.448  17.479  0.1965 -0.4108  0.0273
 2857POPC   NC334537   3.078  25.253  15.652  0.1614 -0.1481 -0.1198
 2857POPC   PO434538   3.168  24.965  15.401  0.4055  0.0183 -0.2982
 2857POPC   GL134539   3.362  24.785  15.741  0.0688  0.2764 -0.2269
 2857POPC   GL234540   3.506  25.001  15.927  0.1650 -0.0482  0.2578
 2857POPC   C1A34541   3.343  24.501  16.077  0.1749  0.0141  0.0916
 2857POPC   D2A34542   3.600  24.296  16.361  0.0694 -0.0596  0.1485
 2857POPC   C3A34543   3.398  24.338  16.764 -0.1154  0.1246  0.0142
 2857POPC   C4A34544   3.368  24.039  17.159 -0.0512 -0.0393 -0.0336
 2857POPC   C1B34545   3.284  25.258  16.204  0.3130 -0.0253  0.0603
 2857POPC   C2B34546   3.218  25.429  16.660 -0.0213 -0.1484 -0.0796
 2857POPC   C3B34547   3.012  25.586  17.033 -0.0654 -0.2911 -0.0209
 2857POPC   C4B34548   2.916  25.677  17.447  0.0527 -0.0346 -0.3432
 2858POPC   NC334549  24.456   6.545  15.520 -0.2134 -0.0488  0.0056
 2858POPC   PO434550  24.789   6.452  15.280  0.4419  0.0625  0.1080
 2858POPC   GL134551  24.922   6.470  15.723 -0.0766  0.0318  0.0545
 2858POPC   GL234552  24.917   6.801  15.679  0.0116  0.1833 -0.0722
 2858POPC   C1A34553  24.739   6.183  15.985  0.1996  0.2951  0.0183
 2858POPC   D2A34554  24.833   6.074  16.441  0.0963 -0.2714 -0.1829
 2858POPC   C3A34555  24.922   6.176  16.868 -0.1421 -0.0486 -0.2309
 2858POPC   C4A34556  25.179   6.148  17.251 -0.4008  0.0264  0.0295
 2858POPC   C1B34557  25.109   6.737  16.112  0.0125  0.0771  0.2752
 2858POPC   C2B34558  25.080   6.576  16.547  0.0272  0.1742 -0.1266
 2858POPC   C3B34559  25.395   6.291  16.778 -0.0857  0.1837  0.1252
 2858POPC   C4B34560  25.644   6.392  17.144 -0.0452 -0.2865 -0.0382
 2859POPC   NC334561   3.657   0.629  15.331  0.2457 -0.0406 -0.0837
 2859POPC   PO434562   4.038   0.659  15.413 -0.2223  0.1432  0.2397
 2859POPC   GL134563   3.850   0.985  15.595 -0.1604 -0.1495 -0.6361
 2859POPC   GL234564   3.918   0.959  15.836  0.0706  0.0178  0.1535
 2859POPC   C1A34565   3.404   0.824  15.728 -0.0266  0.2060  0.1081
 2859POPC   D2A34566   3.080   0.811  16.147 -0.2893  0.3757  0.1742
 2859POPC   C3A34567   3.030   0.622  16.542  0.0582 -0.2324 -0.1698
 2859POPC   C4A34568   3.015   0.494  16.971 -0.1441 -0.1410 -0.0195
 2859POPC   C1B34569   3.961   0.699  16.200 -0.3270 -0.1726 -0.2479
 2859POPC   C2B34570   3.955   0.312  16.487  0.0869  0.0582  0.2053
 2859POPC   C3B34571   3.877   0.025  16.869  0.0868 -0.0033 -0.1246
 2859POPC   C4B34572   4.055  -0.413  16.973  0.0929  0.0032 -0.0802
 2860POPC   NC334573   1.276  11.523  15.178  0.1844 -0.3207 -0.2214
 2860POPC   PO434574   0.950  11.420  15.410 -0.1455 -0.0366 -0.0548
 2860POPC   GL134575   1.021  11.339  15.775 -0.0655  0.1376 -0.0841
 2860POPC   GL234576   1.360  11.245  15.675 -0.0428 -0.2351 -0.3678
 2860POPC   C1A34577   0.845  11.528  16.184  0.2766 -0.0250 -0.1987
 2860POPC   D2A34578   0.565  11.771  16.382 -0.0010 -0.0281 -0.0678
 2860POPC   C3A34579   0.575  11.897  16.833  0.0612 -0.4662  0.0058
 2860POPC   C4A34580   0.643  11.931  17.295  0.0153 -0.1659 -0.1510
 2860POPC   C1B34581   1.685  11.280  16.026 -0.0966  0.4095  0.4322
 2860POPC   C2B34582   1.807  11.161  16.440 -0.1951  0.0906  0.1395
 2860POPC   C3B34583   1.837  11.185  16.925 -0.0620  0.1371  0.2642
 2860POPC   C4B34584   2.122  11.164  17.310  0.0414 -0.1412 -0.2487
 2861POPC   NC334585  17.528  19.195  15.513 -0.2507 -0.0271  0.0985
 2861POPC   PO434586  17.415  18.821  15.522  0.0196  0.0396  0.0624
 2861POPC   GL134587  17.583  18.932  15.877 -0.0028  0.1549 -0.2332
 2861POPC   GL234588  17.910  19.021  15.849 -0.0483 -0.1628  0.0707
 2861POPC   C1A34589  17.658  18.736  16.307  0.2318  0.1878  0.0065
 2861POPC   D2A34590  17.567  18.566  16.770 -0.1332 -0.1671 -0.1452
 2861POPC   C3A34591  17.214  18.656  17.094  0.0035 -0.2507  0.0582
 2861POPC   C4A34592  16.853  18.880  17.238  0.0133  0.0517 -0.2027
 2861POPC   C1B34593  18.181  19.167  16.207  0.0192  0.0305  0.3621
 2861POPC   C2B34594  18.547  19.286  16.440 -0.1659  0.2634 -0.0349
 2861POPC   C3B34595  18.921  19.404  16.753  0.0019  0.0723  0.1174
 2861POPC   C4B34596  19.324  19.631  16.733  0.1112 -0.0510 -0.1622
 2862POPC   NC334597  22.756  19.928  15.401  0.1334  0.1488  0.2384
 2862POPC   PO434598  22.640  20.265  15.345 -0.0216 -0.2921 -0.4070
 2862POPC   GL134599  22.438  20.345  15.644  0.3442 -0.0173  0.0151
 2862POPC   GL234600  22.521  20.103  15.837  0.0417  0.1182 -0.0232
 2862POPC   C1A34601  22.341  20.622  16.004  0.1236  0.1369  0.0927
 2862POPC   D2A34602  22.085  20.692  16.370  0.2621 -0.0578 -0.2543
 2862POPC   C3A34603  22.214  20.923  16.702 -0.5106 -0.2894 -0.1906
 2862POPC   C4A34604  22.099  21.223  17.047  0.2017  0.0256  0.2498
 2862POPC   C1B34605  22.436  20.141  16.317  0.1155 -0.2190  0.2432
 2862POPC   C2B34606  22.259  20.358  16.683  0.3149  0.0696 -0.0799
 2862POPC   C3B34607  22.455  20.625  17.002 -0.1888 -0.3756  0.1849
 2862POPC   C4B34608  22.451  20.892  17.331 -0.2490 -0.0174  0.2401
 2863POPC   NC334609  21.146  24.283  15.113  0.1881  0.2367  0.3145
 2863POPC   PO434610  20.927  24.179  15.438 -0.1415  0.1013  0.0675
 2863POPC   GL134611  20.848  24.429  15.691 -0.3978  0.2015  0.4782
 2863POPC   GL234612  20.550  24.352  15.849 -0.1859 -0.4862 -0.1689
 2863POPC   C1A34613  20.971  24.396  16.132  0.0630 -0.1550  0.0864
 2863POPC   D2A34614  21.030  24.474  16.602  0.0293 -0.1371  0.0825
 2863POPC   C3A34615  20.680  24.741  16.842 -0.2647  0.0506 -0.1866
 2863POPC   C4A34616  20.366  24.671  17.204 -0.0895 -0.0695  0.2985
 2863POPC   C1B34617  20.531  24.390  16.360 -0.1604  0.0880  0.3099
 2863POPC   C2B34618  20.527  24.216  16.771 -0.1415  0.2159 -0.2950
 2863POPC   C3B34619  20.275  24.094  17.158  0.0372 -0.2124 -0.2184
 2863POPC   C4B34620  20.096  24.056  17.580 -0.1625 -0.0271  0.0752
 2864POPC   NC334621   9.239   9.897  15.242  0.1831  0.3163 -0.1403
 2864POPC   PO434622   9.542   9.606  15.274 -0.1217  0.3416 -0.1287
 2864POPC   GL134623   9.338   9.493  15.533 -0.0208  0.1863 -0.2882
 2864POPC   GL234624   9.277   9.727  15.710  0.2257 -0.0838  0.2938
 2864POPC   C1A34625   8.988   9.441  15.915  0.3385 -0.0819 -0.2808
 2864POPC   D2A34626   8.925   9.420  16.377  0.2974  0.2193 -0.2654
 2864POPC   C3A34627   9.047   9.713  16.703  0.0085 -0.1991 -0.2928
 2864POPC   C4A34628   8.957   9.958  17.090  0.3441 -0.0805 -0.1132
 2864POPC   C1B34629   9.498  10.093  15.909 -0.2505 -0.0545 -0.2229
 2864POPC   C2B34630   9.535  10.305  16.338  0.2718 -0.2552  0.0672
 2864POPC   C3B34631   9.454  10.638  16.656 -0.1070  0.2041 -0.1311
 2864POPC   C4B34632   9.319  10.879  17.039 -0.0500  0.1375 -0.0556
 2865POPC   NC334633   0.602  22.534  14.617  0.1721  0.0962  0.2366
 2865POPC   PO434634   0.485  22.603  14.948 -0.1312 -0.0871  0.1004
 2865POPC   GL134635   0.398  22.492  15.324  0.2546 -0.1898  0.0420
 2865POPC   GL234636   0.636  22.607  15.453 -0.0549 -0.0136  0.3588
 2865POPC   C1A34637   0.190  22.676  15.671  0.0177 -0.3468 -0.0455
 2865POPC   D2A34638   0.285  22.632  16.074  0.0378  0.0352  0.1866
 2865POPC   C3A34639   0.408  22.465  16.463 -0.0434 -0.3917 -0.1730
 2865POPC   C4A34640   0.576  22.690  16.864 -0.1209 -0.1387 -0.0768
 2865POPC   C1B34641   0.769  22.673  15.846  0.2596 -0.1352  0.4069
 2865POPC   C2B34642   1.090  22.460  16.152  0.0063  0.2416  0.1759
 2865POPC   C3B34643   1.254  22.025  16.365 -0.3133  0.3048  0.0223
 2865POPC   C4B34644   1.365  21.579  16.340  0.0614 -0.0595  0.1317
 2866POPC   NC334645  23.818  25.250  15.092 -0.2356 -0.5717  0.1203
 2866POPC   PO434646  24.160  25.440  15.088 -0.0133 -0.1392 -0.1690
 2866POPC   GL134647  24.284  25.391  15.550 -0.0033  0.2488 -0.0023
 2866POPC   GL234648  24.511  25.559  15.705  0.0687  0.0791 -0.3153
 2866POPC   C1A34649  24.163  25.283  16.037 -0.1586  0.0644  0.2402
 2866POPC   D2A34650  24.284  25.277  16.528 -0.0002 -0.1053  0.0694
 2866POPC   C3A34651  24.079  25.359  16.887 -0.0376  0.1621 -0.0085
 2866POPC   C4A34652  23.956  25.148  17.284  0.0896 -0.0919  0.2564
 2866POPC   C1B34653  24.713  25.267  16.022 -0.1661 -0.1342 -0.2519
 2866POPC   C2B34654  24.517  24.976  16.256 -0.0737 -0.0298 -0.1295
 2866POPC   C3B34655  24.377  24.774  16.594 -0.1412  0.1909  0.0298
 2866POPC   C4B34656  24.201  24.480  16.931  0.1095 -0.0824  0.3136
 2867POPC   NC334657  29.420  30.916  15.239  0.0069 -0.3902 -0.0467
 2867POPC   PO434658  29.336  31.203  14.979  0.1418 -0.1226 -0.2672
 2867POPC   GL134659  29.095  31.456  15.157  0.0803  0.0802 -0.0647
 2867POPC   GL234660  28.788  31.400  15.136 -0.3723  0.0485 -0.2419
 2867POPC   C1A34661  29.005  31.506  15.610 -0.0719  0.1103  0.4890
 2867POPC   D2A34662  29.103  31.444  16.043  0.3686 -0.0004 -0.1113
 2867POPC   C3A34663  29.186  31.062  16.181 -0.2908  0.1259  0.2873
 2867POPC   C4A34664  29.342  30.648  16.201 -0.0974 -0.0201 -0.2501
 2867POPC   C1B34665  28.570  31.249  15.512  0.1175 -0.3217  0.0407
 2867POPC   C2B34666  28.629  31.189  15.919  0.0071  0.0351 -0.0240
 2867POPC   C3B34667  28.713  31.259  16.388  0.0972 -0.1785 -0.0384
 2867POPC   C4B34668  28.843  31.455  16.789 -0.1793  0.0265  0.1101
 2868POPC   NC334669  26.237  22.936  15.568 -0.1203  0.1078  0.3117
 2868POPC   PO434670  26.040  22.629  15.404 -0.2387  0.0412 -0.0300
 2868POPC   GL134671  25.757  22.841  15.566  0.1911 -0.0757  0.4065
 2868POPC   GL234672  25.813  22.824  15.789  0.0613  0.5729  0.0661
 2868POPC   C1A34673  25.359  22.994  15.769 -0.0729  0.0203  0.2446
 2868POPC   D2A34674  24.958  22.937  15.906  0.1201 -0.3284 -0.3206
 2868POPC   C3A34675  24.804  22.964  16.360 -0.0497  0.2709 -0.1325
 2868POPC   C4A34676  24.677  22.588  16.686 -0.0115 -0.2590  0.1000
 2868POPC   C1B34677  26.067  23.038  16.034  0.1901  0.1056 -0.3033
 2868POPC   C2B34678  26.066  23.079  16.511 -0.1604 -0.2474 -0.0544
 2868POPC   C3B34679  26.070  23.070  16.962  0.0997  0.0047  0.2551
 2868POPC   C4B34680  25.757  23.274  17.197  0.1663 -0.1656  0.1903
 2869POPC   NC334681   8.505  27.096  15.236  0.1991 -0.1611  0.0564
 2869POPC   PO434682   8.173  27.268  15.207  0.1489 -0.4365  0.2014
 2869POPC   GL134683   8.231  27.096  15.591  0.0569  0.3258 -0.2701
 2869POPC   GL234684   8.009  26.832  15.706  0.1144 -0.2227 -0.1142
 2869POPC   C1A34685   8.367  27.046  16.044  0.1298  0.3256  0.5028
 2869POPC   D2A34686   8.615  27.232  16.375 -0.0926 -0.1411  0.2222
 2869POPC   C3A34687   8.576  27.365  16.816 -0.0914 -0.0019 -0.2610
 2869POPC   C4A34688   8.391  26.966  17.007  0.0879 -0.0192  0.0261
 2869POPC   C1B34689   8.167  26.568  16.035 -0.2942 -0.0467 -0.1968
 2869POPC   C2B34690   8.220  26.465  16.476 -0.1230 -0.3198  0.0057
 2869POPC   C3B34691   7.984  26.184  16.785  0.0472  0.2515  0.0495
 2869POPC   C4B34692   7.865  25.830  17.104  0.1362 -0.0138  0.0685
 2870POPC   NC334693   1.569   0.827  14.957 -0.1193 -0.1164 -0.0026
 2870POPC   PO434694   1.559   0.432  14.962  0.0887  0.0308 -0.3327
 2870POPC   GL134695   1.733   0.237  15.317 -0.0714 -0.3920 -0.0109
 2870POPC   GL234696   1.899   0.431  15.351  0.1743  0.0867  0.0639
 2870POPC   C1A34697   1.559   0.312  15.698  0.3826 -0.0594  0.0566
 2870POPC   D2A34698   1.482   0.412  16.203  0.0472 -0.0620 -0.0556
 2870POPC   C3A34699   1.475   0.676  16.577 -0.1363 -0.0577  0.0853
 2870POPC   C4A34700   1.615   1.066  16.840 -0.1245 -0.3067  0.0575
 2870POPC   C1B34701   2.000   0.504  15.806 -0.1179  0.0174 -0.0633
 2870POPC   C2B34702   2.272   0.337  16.080 -0.2672 -0.1167  0.2132
 2870POPC   C3B34703   2.344   0.218  16.533  0.4289  0.4778 -0.0244
 2870POPC   C4B34704   2.567   0.225  16.942  0.1457 -0.0272 -0.0948
 2871POPC   NC334705  10.906  20.663  15.399  0.1817  0.0038  0.2476
 2871POPC   PO434706  10.579  20.447  15.530 -0.0926  0.0807 -0.0180
 2871POPC   GL134707  10.694  20.137  15.826  0.1901 -0.2207 -0.3820
 2871POPC   GL234708  10.616  19.870  15.810  0.0810 -0.3068 -0.2863
 2871POPC   C1A34709  10.594  20.229  16.278 -0.1111  0.2557 -0.1438
 2871POPC   D2A34710  10.466  20.182  16.744 -0.0116  0.0062  0.0672
 2871POPC   C3A34711  10.056  20.042  16.777 -0.1175 -0.2149 -0.0019
 2871POPC   C4A34712   9.672  19.778  16.986 -0.1157  0.1941  0.2801
 2871POPC   C1B34713  10.596  19.426  16.002 -0.3607 -0.1832  0.1839
 2871POPC   C2B34714  10.664  19.298  16.488  0.0009  0.1871  0.3696
 2871POPC   C3B34715  10.768  19.557  16.879 -0.0679  0.0315  0.5229
 2871POPC   C4B34716  10.799  19.693  17.317  0.1687 -0.1144 -0.1077
 2872POPC   NC334717   7.771  20.742  15.803  0.2817 -0.1156 -0.3974
 2872POPC   PO434718   8.014  20.481  15.828 -0.0294  0.1321  0.1638
 2872POPC   GL134719   7.945  20.337  16.207 -0.1805  0.1445 -0.0628
 2872POPC   GL234720   7.692  20.419  16.172  0.0647  0.0502 -0.2934
 2872POPC   C1A34721   8.085  19.887  16.349 -0.2190 -0.0515  0.1767
 2872POPC   D2A34722   8.057  19.536  16.635  0.1651  0.0632 -0.2049
 2872POPC   C3A34723   8.466  19.389  16.743  0.0610 -0.1194  0.1162
 2872POPC   C4A34724   8.883  19.601  16.875 -0.0653  0.1272  0.1411
 2872POPC   C1B34725   7.954  20.242  16.615 -0.0750  0.0358  0.0216
 2872POPC   C2B34726   8.051  19.950  16.934 -0.0278  0.2438  0.3895
 2872POPC   C3B34727   8.019  19.527  17.101  0.1711  0.1517 -0.3108
 2872POPC   C4B34728   7.945  19.194  17.384 -0.2402  0.0193  0.3461
 2873POPC   NC334729  31.384   7.333  14.761  0.0391  0.1394  0.0404
 2873POPC   PO434730  31.146   7.317  15.056 -0.0704 -0.2242  0.1425
 2873POPC   GL134731  30.899   7.400  15.374  0.3969  0.2192  0.0841
 2873POPC   GL234732  31.080   7.373  15.562 -0.2802  0.1353 -0.1855
 2873POPC   C1A34733  30.663   7.610  15.679  0.5858  0.1270  0.3906
 2873POPC   D2A34734  30.652   7.652  16.124 -0.0360 -0.0803  0.1166
 2873POPC   C3A34735  30.668   7.701  16.564 -0.0972 -0.2686  0.1247
 2873POPC   C4A34736  30.506   7.652  17.035  0.2702 -0.1748 -0.0368
 2873POPC   C1B34737  30.818   7.214  15.950 -0.1729 -0.1817  0.2922
 2873POPC   C2B34738  30.751   7.162  16.376  0.0540  0.2146 -0.0283
 2873POPC   C3B34739  30.896   7.261  16.774  0.1543  0.0050 -0.3133
 2873POPC   C4B34740  31.178   7.430  17.137  0.2814  0.1059  0.1630
 2874POPC   NC334741   1.188   8.167  15.679  0.0245  0.0208 -0.0686
 2874POPC   PO434742   0.895   8.378  15.510 -0.0174 -0.4448  0.2420
 2874POPC   GL134743   0.954   8.623  15.802 -0.1290  0.3264 -0.0281
 2874POPC   GL234744   0.946   8.491  16.080  0.0648 -0.1636 -0.0971
 2874POPC   C1A34745   1.250   8.945  15.918  0.0222 -0.2721 -0.0761
 2874POPC   D2A34746   1.526   9.130  16.250  0.2420  0.1241  0.0542
 2874POPC   C3A34747   1.802   9.058  16.581  0.0359 -0.1707  0.2878
 2874POPC   C4A34748   2.103   9.113  16.899  0.2159  0.3334  0.0380
 2874POPC   C1B34749   1.057   8.523  16.561 -0.2782 -0.1078  0.3948
 2874POPC   C2B34750   1.356   8.287  16.801  0.1393 -0.0597 -0.0672
 2874POPC   C3B34751   1.568   8.417  17.248  0.1717 -0.2559 -0.0791
 2874POPC   C4B34752   1.910   8.143  17.437  0.1528  0.2052  0.0866
 2875POPC   NC334753  19.652  23.102  15.691 -0.0120 -0.2192 -0.2566
 2875POPC   PO434754  19.605  22.939  15.354  0.0568  0.1862  0.0410
 2875POPC   GL134755  19.656  22.642  15.684 -0.0009  0.1496 -0.1220
 2875POPC   GL234756  19.953  22.716  15.719 -0.1007 -0.2030  0.0538
 2875POPC   C1A34757  19.624  22.712  16.154 -0.0691 -0.1443  0.2560
 2875POPC   D2A34758  19.263  22.857  16.386 -0.0341 -0.1755 -0.1505
 2875POPC   C3A34759  18.844  22.875  16.624  0.1432 -0.1054  0.0457
 2875POPC   C4A34760  18.506  22.634  16.813 -0.0054 -0.2212  0.2981
 2875POPC   C1B34761  20.032  22.972  16.077  0.1877  0.1838 -0.0044
 2875POPC   C2B34762  20.213  22.882  16.522  0.1154 -0.3497  0.2263
 2875POPC   C3B34763  20.083  22.956  16.986  0.0978 -0.0338 -0.0565
 2875POPC   C4B34764  20.348  23.041  17.402 -0.0325  0.1729 -0.0447
 2876POPC   NC334765   5.580  18.132  15.773  0.2991  0.1773  0.1983
 2876POPC   PO434766   5.366  18.214  15.438 -0.2644  0.4415 -0.2309
 2876POPC   GL134767   5.166  18.391  15.738  0.2179  0.1294  0.2562
 2876POPC   GL234768   5.031  18.152  15.856 -0.2966  0.0888 -0.2724
 2876POPC   C1A34769   4.771  18.530  16.000 -0.2601 -0.0321 -0.1762
 2876POPC   D2A34770   4.346  18.535  15.923  0.1071  0.3690  0.0030
 2876POPC   C3A34771   4.377  18.430  16.385 -0.1934 -0.2699  0.1452
 2876POPC   C4A34772   4.151  18.086  16.546 -0.0819 -0.0448 -0.1077
 2876POPC   C1B34773   4.912  18.154  16.350 -0.1404  0.1499  0.3452
 2876POPC   C2B34774   4.618  18.142  16.712  0.0798  0.1685 -0.0794
 2876POPC   C3B34775   4.299  18.346  16.998  0.0893  0.1412  0.2130
 2876POPC   C4B34776   4.214  18.782  16.960  0.1611  0.0790  0.3253
 2877POPC   NC334777  14.623   7.108  15.252  0.2964 -0.1514  0.3755
 2877POPC   PO434778  14.756   6.834  15.448 -0.2116  0.3159 -0.1268
 2877POPC   GL134779  14.669   6.934  15.809  0.1952 -0.1725  0.3824
 2877POPC   GL234780  14.663   7.223  15.768 -0.0107 -0.2146  0.0467
 2877POPC   C1A34781  14.931   6.978  16.189  0.2385  0.0543  0.1248
 2877POPC   D2A34782  14.813   7.212  16.564  0.1853  0.1403  0.0063
 2877POPC   C3A34783  14.553   7.034  16.904 -0.3994 -0.1322 -0.0179
 2877POPC   C4A34784  14.536   6.657  17.150 -0.0623 -0.3887  0.2105
 2877POPC   C1B34785  14.767   7.523  16.129 -0.2129 -0.0963  0.3139
 2877POPC   C2B34786  14.862   7.698  16.546 -0.0759 -0.1358 -0.1050
 2877POPC   C3B34787  14.965   7.553  16.973 -0.3486  0.2869 -0.0049
 2877POPC   C4B34788  15.088   7.446  17.416 -0.1278 -0.2439  0.0756
 2878POPC   NC334789   5.329  13.736  15.364  0.2111 -0.2874 -0.2550
 2878POPC   PO434790   5.510  14.057  15.314  0.2423 -0.3499  0.2046
 2878POPC   GL134791   5.496  14.036  15.690 -0.0677  0.0519  0.2005
 2878POPC   GL234792   5.811  13.932  15.747  0.0205  0.0239 -0.0913
 2878POPC   C1A34793   5.329  13.926  16.104  0.3935  0.1299 -0.1295
 2878POPC   D2A34794   5.324  13.851  16.513 -0.0207 -0.1476  0.0513
 2878POPC   C3A34795   5.236  13.919  16.966  0.0021 -0.0635 -0.0515
 2878POPC   C4A34796   4.852  13.795  17.271  0.0411  0.2061 -0.0692
 2878POPC   C1B34797   5.838  13.490  15.900  0.0475 -0.1800  0.0886
 2878POPC   C2B34798   5.771  13.107  16.122 -0.0355 -0.2880  0.2551
 2878POPC   C3B34799   5.965  12.754  16.333  0.0054 -0.0756 -0.0803
 2878POPC   C4B34800   6.211  12.391  16.503 -0.3546 -0.2082  0.3952
 2879POPC   NC334801  21.317   7.769  15.307 -0.2447 -0.0308 -0.2546
 2879POPC   PO434802  21.388   7.433  15.485 -0.2630  0.1410 -0.0997
 2879POPC   GL134803  21.514   7.582  15.825  0.1865 -0.1528  0.2141
 2879POPC   GL234804  21.392   7.861  15.896  0.1008 -0.0497  0.1057
 2879POPC   C1A34805  21.756   7.743  16.207  0.0196 -0.0682 -0.1543
 2879POPC   D2A34806  21.954   7.644  16.641 -0.0453 -0.4109  0.0959
 2879POPC   C3A34807  21.961   7.253  16.942 -0.1917  0.0225  0.2378
 2879POPC   C4A34808  22.042   6.802  16.944  0.0625 -0.2550  0.0843
 2879POPC   C1B34809  21.181   7.614  16.197  0.0775  0.0760  0.1621
 2879POPC   C2B34810  21.104   7.727  16.650 -0.0358 -0.0576  0.0358
 2879POPC   C3B34811  21.029   7.857  17.067 -0.1638  0.0114 -0.1701
 2879POPC   C4B34812  20.772   7.801  17.454 -0.1632  0.0652  0.1419
 2880POPC   NC334813  27.351   9.191  15.199  0.0333 -0.0891  0.0183
 2880POPC   PO434814  27.466   9.479  15.388 -0.3218 -0.0851 -0.3366
 2880POPC   GL134815  27.717   9.523  15.622 -0.3057  0.1466  0.0179
 2880POPC   GL234816  27.645   9.792  15.799 -0.2510 -0.3775  0.0944
 2880POPC   C1A34817  27.867   9.331  16.025  0.0625  0.1192 -0.1804
 2880POPC   D2A34818  28.118   9.218  16.377 -0.2481  0.1209  0.2637
 2880POPC   C3A34819  28.324   9.033  16.773 -0.3061  0.1751  0.0694
 2880POPC   C4A34820  28.576   8.801  17.121  0.1214  0.3726 -0.0660
 2880POPC   C1B34821  27.211   9.913  15.931  0.2032 -0.0651  0.2403
 2880POPC   C2B34822  27.038  10.175  16.293  0.2490  0.1984  0.0823
 2880POPC   C3B34823  26.955  10.309  16.697  0.0610  0.1024 -0.2462
 2880POPC   C4B34824  26.756  10.522  17.077 -0.0710  0.1185  0.0968
 2881POPC   NC334825  27.637  11.702  14.637  0.0438 -0.0212  0.1898
 2881POPC   PO434826  27.584  11.464  14.939  0.0580 -0.4177  0.0165
 2881POPC   GL134827  27.490  11.467  15.316  0.1023  0.0268 -0.0969
 2881POPC   GL234828  27.789  11.627  15.403 -0.3647  0.3542  0.1150
 2881POPC   C1A34829  27.453  11.388  15.790  0.1565 -0.0083 -0.2772
 2881POPC   D2A34830  27.318  11.324  16.257  0.0919  0.0283 -0.1516
 2881POPC   C3A34831  27.289  11.337  16.758 -0.1431  0.4604 -0.1211
 2881POPC   C4A34832  27.174  11.668  17.058 -0.0563 -0.1748  0.3411
 2881POPC   C1B34833  27.519  11.875  15.731 -0.1110  0.2138  0.3406
 2881POPC   C2B34834  27.169  11.798  16.044 -0.1074 -0.2679  0.2033
 2881POPC   C3B34835  27.020  11.663  16.459  0.0605  0.2674 -0.3195
 2881POPC   C4B34836  26.803  11.264  16.585 -0.0555  0.0497 -0.0996
 2882POPC   NC334837  20.886  22.704  14.587  0.0646 -0.2381  0.1383
 2882POPC   PO434838  20.926  22.933  14.905 -0.1168 -0.0795 -0.0800
 2882POPC   GL134839  21.063  22.914  15.251 -0.0211  0.0439 -0.0159
 2882POPC   GL234840  21.246  22.755  15.342 -0.2046  0.0485  0.1851
 2882POPC   C1A34841  20.837  23.246  15.522 -0.2358  0.0907  0.0686
 2882POPC   D2A34842  20.623  23.531  15.826  0.2108 -0.0409 -0.2320
 2882POPC   C3A34843  20.814  23.852  16.012  0.0357  0.0104  0.2551
 2882POPC   C4A34844  20.857  23.916  16.477  0.0510 -0.0472 -0.1118
 2882POPC   C1B34845  21.296  22.610  15.777  0.0513 -0.0871  0.2206
 2882POPC   C2B34846  21.511  22.613  16.148  0.2069 -0.3194 -0.0019
 2882POPC   C3B34847  21.659  22.372  16.524 -0.0569 -0.3619 -0.1411
 2882POPC   C4B34848  22.012  22.170  16.716  0.0895  0.2464 -0.1135
 2883POPC   NC334849  29.362  29.164  15.387 -0.0959  0.2899  0.2653
 2883POPC   PO434850  29.677  28.970  15.259 -0.0512  0.2456  0.1974
 2883POPC   GL134851  29.681  28.905  15.727  0.1947 -0.0373 -0.2845
 2883POPC   GL234852  29.435  28.811  15.862 -0.1566  0.2292 -0.0401
 2883POPC   C1A34853  29.913  29.121  16.049 -0.1631 -0.0188 -0.4885
 2883POPC   D2A34854  30.193  29.421  16.326 -0.0758  0.3548  0.6959
 2883POPC   C3A34855  30.509  29.241  16.602  0.0160  0.0063 -0.1632
 2883POPC   C4A34856  30.541  29.358  17.021  0.1830  0.0052 -0.0268
 2883POPC   C1B34857  29.240  28.628  16.280  0.4327 -0.3047  0.0903
 2883POPC   C2B34858  29.175  28.606  16.710 -0.2865  0.2365  0.0649
 2883POPC   C3B34859  28.748  28.572  16.973 -0.2137  0.1250  0.0249
 2883POPC   C4B34860  28.334  28.511  17.137 -0.2584 -0.0341  0.0023
 2884POPC   NC334861  31.246  30.838  15.129  0.0061 -0.2413 -0.1014
 2884POPC   PO434862  30.934  30.884  15.270  0.1161 -0.2236  0.0786
 2884POPC   GL134863  30.813  31.034  15.682  0.1452  0.1093  0.0109
 2884POPC   GL234864  30.962  31.128  15.941 -0.0726 -0.2336  0.1437
 2884POPC   C1A34865  30.439  30.845  15.849 -0.0986 -0.0889 -0.2965
 2884POPC   D2A34866  30.256  30.602  16.205 -0.2441 -0.2948  0.0227
 2884POPC   C3A34867  30.345  30.324  16.556 -0.1916 -0.4274  0.2317
 2884POPC   C4A34868  30.338  30.064  16.951 -0.3767  0.0985 -0.2449
 2884POPC   C1B34869  31.067  31.094  16.376 -0.3683 -0.2268 -0.0549
 2884POPC   C2B34870  31.101  31.197  16.814  0.2706  0.0445  0.0114
 2884POPC   C3B34871  31.189  31.338  17.241 -0.0050 -0.0899  0.1357
 2884POPC   C4B34872  31.024  31.202  17.691  0.1527 -0.2246 -0.2774
 2885POPC   NC334873  10.003  17.156  14.615 -0.0702  0.2990 -0.3020
 2885POPC   PO434874  10.082  17.015  14.996 -0.0632 -0.2384  0.0623
 2885POPC   GL134875  10.045  17.008  15.336 -0.3699  0.1024 -0.0201
 2885POPC   GL234876  10.176  16.776  15.502 -0.0664 -0.2673 -0.1536
 2885POPC   C1A34877   9.896  17.111  15.732 -0.1437  0.0212  0.0415
 2885POPC   D2A34878   9.777  17.439  16.012  0.0317 -0.3501  0.0220
 2885POPC   C3A34879   9.941  17.443  16.484 -0.0580  0.3859 -0.1353
 2885POPC   C4A34880  10.053  17.290  16.876 -0.2013 -0.0628 -0.3208
 2885POPC   C1B34881  10.381  16.828  15.871 -0.3974  0.0246 -0.0304
 2885POPC   C2B34882  10.553  16.894  16.275  0.1342  0.2118 -0.0794
 2885POPC   C3B34883  10.900  17.041  16.569  0.1240 -0.0927 -0.3855
 2885POPC   C4B34884  11.098  17.270  16.924 -0.2068  0.3249  0.1207
 2886POPC   NC334885   0.683  20.100  15.295 -0.0779 -0.0721  0.1601
 2886POPC   PO434886   0.562  19.775  15.550 -0.0424  0.1675 -0.1585
 2886POPC   GL134887   0.456  19.601  15.857  0.0667  0.4995  0.4466
 2886POPC   GL234888   0.613  19.871  16.024 -0.2082  0.0905  0.0558
 2886POPC   C1A34889   0.578  19.418  16.297  0.0076 -0.1447  0.0278
 2886POPC   D2A34890   0.913  19.600  16.524  0.2416  0.4331  0.2593
 2886POPC   C3A34891   1.201  19.581  16.843  0.2168  0.1118 -0.2602
 2886POPC   C4A34892   1.375  19.351  17.180 -0.0542  0.2257 -0.1415
 2886POPC   C1B34893   0.493  19.905  16.492 -0.2414 -0.2868  0.2053
 2886POPC   C2B34894   0.632  19.915  16.920 -0.2013 -0.1667  0.0850
 2886POPC   C3B34895   1.049  20.002  17.072  0.0866  0.0572  0.0982
 2886POPC   C4B34896   1.339  19.931  17.392  0.0616 -0.0062 -0.1276
 2887POPC   NC334897  21.786  31.453  15.368 -0.0795  0.1099 -0.0013
 2887POPC   PO434898  22.147  31.400  15.358  0.1138 -0.2250  0.2246
 2887POPC   GL134899  22.348  31.678  15.577 -0.0401 -0.1893 -0.2723
 2887POPC   GL234900  22.080  31.669  15.750  0.0039 -0.3494  0.0665
 2887POPC   C1A34901  22.361  32.042  15.911 -0.1505  0.2801  0.0849
 2887POPC   D2A34902  22.442  32.080  16.386  0.1291  0.1468  0.0420
 2887POPC   C3A34903  22.116  32.269  16.654  0.1157  0.2055  0.2441
 2887POPC   C4A34904  21.949  32.324  17.050 -0.2111  0.1131  0.1594
 2887POPC   C1B34905  22.195  31.680  16.225  0.1213 -0.1623 -0.0006
 2887POPC   C2B34906  22.179  31.727  16.690 -0.3031 -0.0052 -0.0205
 2887POPC   C3B34907  22.513  31.921  17.020  0.0431  0.1547  0.0418
 2887POPC   C4B34908  22.875  31.775  17.316  0.0349 -0.2316  0.2100
 2888POPC   NC334909  15.242  25.697  15.152  0.2007 -0.0193  0.1170
 2888POPC   PO434910  14.878  25.701  15.031 -0.1688  0.0189  0.1311
 2888POPC   GL134911  14.740  25.945  15.349  0.2053  0.2910  0.2742
 2888POPC   GL234912  14.637  25.805  15.647  0.3360  0.0920  0.1205
 2888POPC   C1A34913  14.795  26.299  15.674  0.1158  0.2141  0.1590
 2888POPC   D2A34914  14.656  26.397  16.082 -0.0778  0.2399 -0.1477
 2888POPC   C3A34915  14.823  26.680  16.336  0.0775 -0.0860  0.0761
 2888POPC   C4A34916  14.957  26.947  16.742 -0.0357 -0.0887 -0.0673
 2888POPC   C1B34917  14.788  25.923  16.071 -0.3554 -0.2912  0.0717
 2888POPC   C2B34918  14.844  26.128  16.532  0.1328 -0.3363  0.2438
 2888POPC   C3B34919  14.771  26.467  16.849  0.0973 -0.0182  0.3691
 2888POPC   C4B34920  14.642  26.770  17.197  0.0119 -0.1932 -0.1385
 2889POPC   NC334921  27.702  19.056  15.024  0.0072  0.0506 -0.0037
 2889POPC   PO434922  27.303  19.136  15.123  0.2440  0.0266  0.2773
 2889POPC   GL134923  27.500  19.200  15.448 -0.0779  0.0210  0.2050
 2889POPC   GL234924  27.412  19.528  15.418  0.2903  0.0593  0.2275
 2889POPC   C1A34925  27.355  19.340  15.851 -0.2540 -0.0185  0.0770
 2889POPC   D2A34926  27.413  19.309  16.305  0.0081  0.0515  0.0057
 2889POPC   C3A34927  27.863  19.360  16.453  0.1224 -0.0274 -0.2248
 2889POPC   C4A34928  28.117  19.688  16.735  0.1804 -0.1013  0.2421
 2889POPC   C1B34929  27.774  19.739  15.739  0.2365 -0.0061  0.0597
 2889POPC   C2B34930  28.073  19.670  16.093 -0.2386  0.1367 -0.0324
 2889POPC   C3B34931  28.476  19.669  16.155  0.1821  0.0505  0.4151
 2889POPC   C4B34932  28.897  19.805  15.991 -0.3134 -0.1638  0.1885
 2890POPC   NC334933  13.248  15.267  14.882 -0.1293  0.3966 -0.0312
 2890POPC   PO434934  13.366  14.905  15.053 -0.3296 -0.0358  0.1019
 2890POPC   GL134935  13.324  14.701  15.461  0.1671  0.4028  0.0827
 2890POPC   GL234936  13.588  14.683  15.570  0.0567 -0.3640 -0.0563
 2890POPC   C1A34937  13.280  14.853  15.890 -0.0679 -0.2229 -0.3557
 2890POPC   D2A34938  13.153  14.773  16.296  0.2122 -0.3501 -0.2341
 2890POPC   C3A34939  13.315  14.806  16.737  0.0770  0.0560  0.1291
 2890POPC   C4A34940  13.418  14.831  17.167  0.1065 -0.1897  0.2285
 2890POPC   C1B34941  13.382  14.359  15.792  0.2104 -0.2748 -0.2669
 2890POPC   C2B34942  13.408  14.288  16.227  0.4047  0.1313  0.0208
 2890POPC   C3B34943  13.111  14.348  16.599  0.2273 -0.0386 -0.0070
 2890POPC   C4B34944  12.883  14.236  16.928 -0.2447  0.3728 -0.1501
 2891POPC   NC334945   3.577   9.321  15.034  0.1341  0.4432  0.3747
 2891POPC   PO434946   3.204   9.447  15.116  0.0959 -0.1883  0.1671
 2891POPC   GL134947   3.245   9.270  15.555 -0.3063  0.2938 -0.3049
 2891POPC   GL234948   3.383   9.055  15.410 -0.2033 -0.1774 -0.4875
 2891POPC   C1A34949   3.253   9.032  15.998 -0.4020 -0.1325 -0.1660
 2891POPC   D2A34950   3.580   9.036  16.245  0.0734 -0.1241  0.2310
 2891POPC   C3A34951   3.676   9.130  16.668 -0.3417  0.0091 -0.1777
 2891POPC   C4A34952   3.488   9.212  17.158 -0.4310  0.1650  0.0592
 2891POPC   C1B34953   3.091   8.750  15.632 -0.0996 -0.0938  0.3542
 2891POPC   C2B34954   2.906   8.671  16.073  0.0246  0.0300 -0.1930
 2891POPC   C3B34955   2.725   8.732  16.521  0.2709 -0.3013 -0.1217
 2891POPC   C4B34956   2.998   8.836  16.959  0.1190  0.0966  0.1360
 2892POPC   NC334957   1.031  13.656  14.947  0.2066  0.0658 -0.4129
 2892POPC   PO434958   0.972  13.364  15.248 -0.0062  0.0841  0.0775
 2892POPC   GL134959   0.991  13.203  15.623 -0.0196  0.0609  0.0921
 2892POPC   GL234960   1.116  12.996  15.593  0.1293  0.1380 -0.1553
 2892POPC   C1A34961   0.869  13.385  16.027  0.1249  0.0180 -0.0813
 2892POPC   D2A34962   0.945  13.406  16.505  0.0429  0.4077 -0.2207
 2892POPC   C3A34963   1.027  13.620  16.829 -0.1729 -0.2253 -0.0292
 2892POPC   C4A34964   1.368  13.620  17.218  0.3971  0.2758 -0.0695
 2892POPC   C1B34965   1.276  12.999  16.061 -0.2482  0.0447 -0.1989
 2892POPC   C2B34966   1.289  13.060  16.484 -0.1449 -0.1024 -0.1609
 2892POPC   C3B34967   1.248  13.199  16.937 -0.2198  0.0482 -0.0854
 2892POPC   C4B34968   1.005  13.295  17.322 -0.2155  0.0708 -0.0728
 2893POPC   NC334969  31.144  31.402  15.141  0.0534 -0.6745  0.1447
 2893POPC   PO434970  30.859  31.463  15.351 -0.1590  0.1569 -0.0202
 2893POPC   GL134971  31.124  31.625  15.626 -0.3753  0.1034  0.1503
 2893POPC   GL234972  30.902  31.636  15.857  0.0075 -0.0772 -0.2331
 2893POPC   C1A34973  31.370  31.471  15.977 -0.0253  0.2331  0.0479
 2893POPC   D2A34974  31.372  31.498  16.468 -0.0174  0.3233  0.0477
 2893POPC   C3A34975  31.087  31.705  16.761 -0.2837  0.0350  0.2404
 2893POPC   C4A34976  30.754  31.685  17.125 -0.0077  0.0619 -0.1152
 2893POPC   C1B34977  30.817  31.509  16.321 -0.2280  0.0712  0.3624
 2893POPC   C2B34978  30.575  31.215  16.608  0.1679  0.1454 -0.2174
 2893POPC   C3B34979  30.327  31.282  16.981 -0.3249 -0.0782  0.1170
 2893POPC   C4B34980  30.050  31.647  17.166 -0.0543 -0.1180  0.2554
 2894POPC   NC334981   3.605  23.034  15.253  0.3342 -0.0967 -0.1099
 2894POPC   PO434982   3.895  23.266  15.087  0.1627 -0.1783 -0.3038
 2894POPC   GL134983   3.856  23.533  15.418  0.2424  0.0803 -0.0938
 2894POPC   GL234984   3.728  23.343  15.609  0.0923 -0.2257 -0.0068
 2894POPC   C1A34985   4.161  23.527  15.809 -0.1920 -0.0756 -0.0125
 2894POPC   D2A34986   4.258  23.547  16.258  0.1890  0.0500 -0.0071
 2894POPC   C3A34987   3.853  23.335  16.444  0.0426  0.0623  0.2768
 2894POPC   C4A34988   3.495  23.269  16.671 -0.1453  0.2447  0.0690
 2894POPC   C1B34989   3.655  23.677  15.901 -0.0823  0.1092  0.2487
 2894POPC   C2B34990   3.852  23.913  16.231  0.0409 -0.1745  0.0461
 2894POPC   C3B34991   3.910  23.845  16.642 -0.0518 -0.1065  0.1207
 2894POPC   C4B34992   3.706  23.682  17.005  0.1176  0.1273  0.1177
 2895POPC   NC334993   9.299  17.927  15.551 -0.3088  0.0810 -0.3463
 2895POPC   PO434994   9.653  17.764  15.495 -0.0765 -0.0383 -0.1593
 2895POPC   GL134995  10.025  17.724  15.715  0.1814 -0.3136 -0.3561
 2895POPC   GL234996  10.183  17.472  15.733  0.2341  0.0581 -0.1624
 2895POPC   C1A34997  10.174  17.880  16.151 -0.0445 -0.2615  0.2990
 2895POPC   D2A34998  10.348  17.837  16.579 -0.0430  0.1801 -0.2068
 2895POPC   C3A34999  10.201  17.734  17.027 -0.1943  0.0676 -0.0735
 2895POPC   C4A35000  10.324  17.687  17.497  0.3070 -0.1081 -0.2671
 2895POPC   C1B35001  10.320  17.347  16.127  0.0544  0.3024  0.1709
 2895POPC   C2B35002  10.453  17.245  16.584  0.1907  0.0620 -0.1039
 2895POPC   C3B35003  10.568  16.968  16.915  0.1142 -0.1660 -0.0996
 2895POPC   C4B35004  10.541  16.555  17.192 -0.1331 -0.0852 -0.0953
 2896POPC   NC335005  11.817   1.785  15.116 -0.2588  0.1380 -0.3310
 2896POPC   PO435006  12.140   1.606  15.178 -0.0159  0.0905  0.3059
 2896POPC   GL135007  12.320   1.499  15.529 -0.0694 -0.2421 -0.0203
 2896POPC   GL235008  12.289   1.229  15.459 -0.0951  0.0575  0.0961
 2896POPC   C1A35009  12.610   1.544  15.909 -0.0768 -0.0438  0.1704
 2896POPC   D2A35010  12.588   1.821  16.263 -0.0505 -0.1783 -0.1821
 2896POPC   C3A35011  12.245   1.657  16.548  0.0147  0.1533 -0.1878
 2896POPC   C4A35012  12.088   1.863  16.957  0.1461  0.1384 -0.0064
 2896POPC   C1B35013  12.512   1.037  15.843 -0.0295 -0.0191  0.0937
 2896POPC   C2B35014  12.608   0.753  16.158 -0.4581  0.0573  0.1693
 2896POPC   C3B35015  12.807   0.662  16.553  0.0600 -0.1899 -0.1774
 2896POPC   C4B35016  13.001   0.509  16.990  0.1273  0.1202  0.1035
 2897POPC   NC335017   4.971  26.691  15.216  0.3743 -0.6424 -0.2728
 2897POPC   PO435018   4.696  26.991  15.126  0.1054 -0.1847 -0.0124
 2897POPC   GL135019   4.731  27.016  15.611  0.1829 -0.4863  0.0855
 2897POPC   GL235020   4.433  27.125  15.691 -0.1415  0.0032 -0.0070
 2897POPC   C1A35021   4.872  26.845  15.998 -0.1474 -0.0257 -0.0069
 2897POPC   D2A35022   4.793  26.797  16.445  0.0222  0.1573  0.2260
 2897POPC   C3A35023   4.657  26.762  16.881  0.0812  0.2001  0.0849
 2897POPC   C4A35024   4.725  26.867  17.313  0.1283 -0.0709 -0.0013
 2897POPC   C1B35025   4.520  27.569  15.874  0.0689 -0.0921 -0.0197
 2897POPC   C2B35026   4.734  27.799  16.272  0.0198  0.0699 -0.2538
 2897POPC   C3B35027   4.498  27.969  16.641  0.0449 -0.3743 -0.1619
 2897POPC   C4B35028   4.455  28.123  17.087 -0.1180  0.1319 -0.0001
 2898POPC   NC335029  30.971   5.659  15.408 -0.3235  0.1882 -0.1827
 2898POPC   PO435030  31.169   5.354  15.636 -0.0556  0.2061  0.2120
 2898POPC   GL135031  31.114   5.314  16.037 -0.3754  0.1120 -0.0005
 2898POPC   GL235032  30.868   5.241  16.161  0.2107  0.0623  0.0150
 2898POPC   C1A35033  31.173   5.536  16.423  0.1327  0.0137 -0.0417
 2898POPC   D2A35034  30.989   5.602  16.845 -0.1794 -0.1259  0.1499
 2898POPC   C3A35035  31.203   5.889  17.140  0.3247  0.0818 -0.0090
 2898POPC   C4A35036  31.206   6.366  17.147  0.1200  0.1805  0.1381
 2898POPC   C1B35037  30.669   5.420  16.474  0.1380 -0.0590 -0.1458
 2898POPC   C2B35038  30.520   5.683  16.792 -0.0848  0.0923  0.0153
 2898POPC   C3B35039  30.205   5.684  17.160  0.2139  0.0521  0.0067
 2898POPC   C4B35040  29.742   5.581  17.329  0.0371 -0.0454 -0.0629
 2899POPC   NC335041  27.462  21.210  15.011 -0.0803  0.0874  0.0864
 2899POPC   PO435042  27.694  20.936  15.059  0.0571  0.2245 -0.0435
 2899POPC   GL135043  27.823  20.836  15.427 -0.0983 -0.2961  0.3378
 2899POPC   GL235044  28.008  21.068  15.450 -0.2452 -0.0897 -0.1935
 2899POPC   C1A35045  27.605  20.545  15.698 -0.2506  0.3724 -0.1324
 2899POPC   D2A35046  27.702  20.142  15.989 -0.0598 -0.2130  0.1682
 2899POPC   C3A35047  27.686  19.851  16.360 -0.1311 -0.1552 -0.1656
 2899POPC   C4A35048  27.531  19.755  16.806 -0.0520  0.1514  0.2550
 2899POPC   C1B35049  27.926  20.972  15.873  0.0778 -0.1167 -0.0999
 2899POPC   C2B35050  28.112  20.888  16.282 -0.0152 -0.3065 -0.0260
 2899POPC   C3B35051  28.005  20.594  16.595  0.0360 -0.1066  0.2352
 2899POPC   C4B35052  27.666  20.330  16.528  0.4182  0.1879 -0.2779
 2900POPC   NC335053  28.368  23.974  14.501  0.1804 -0.0981  0.0656
 2900POPC   PO435054  28.195  24.172  14.774  0.0700  0.0123 -0.3739
 2900POPC   GL135055  28.422  24.256  15.090 -0.1276  0.2318 -0.4003
 2900POPC   GL235056  28.498  24.034  15.199 -0.0696 -0.2219 -0.2888
 2900POPC   C1A35057  28.720  24.578  15.043 -0.2044 -0.0775 -0.3880
 2900POPC   D2A35058  28.980  24.932  15.100 -0.0256 -0.0078 -0.0671
 2900POPC   C3A35059  29.263  24.664  15.332  0.1716 -0.0551  0.0361
 2900POPC   C4A35060  29.538  24.569  15.686  0.2840 -0.0295 -0.1428
 2900POPC   C1B35061  28.334  24.358  15.558 -0.4437  0.1102  0.1784
 2900POPC   C2B35062  28.633  24.259  15.899  0.2631 -0.0828  0.0453
 2900POPC   C3B35063  28.805  23.885  16.147  0.0364 -0.3577  0.0675
 2900POPC   C4B35064  28.701  23.556  16.409  0.2109 -0.0448  0.0700
 2901POPC   NC335065  24.155   3.184  14.783  0.0060  0.0105 -0.2910
 2901POPC   PO435066  24.382   3.480  14.945 -0.0370 -0.5659 -0.1804
 2901POPC   GL135067  24.265   3.475  15.343  0.2581  0.0772 -0.1603
 2901POPC   GL235068  24.036   3.721  15.366  0.2196 -0.0949  0.0698
 2901POPC   C1A35069  24.439   3.563  15.764 -0.0967  0.0373 -0.1555
 2901POPC   D2A35070  24.658   3.862  16.065  0.2014 -0.0201  0.2263
 2901POPC   C3A35071  24.452   4.070  16.469 -0.4873 -0.0006  0.0466
 2901POPC   C4A35072  24.215   4.138  16.885 -0.1065  0.1338 -0.0775
 2901POPC   C1B35073  24.068   4.000  15.703 -0.1447 -0.2637 -0.2537
 2901POPC   C2B35074  23.991   4.182  16.159  0.0221 -0.1280 -0.3995
 2901POPC   C3B35075  24.036   4.456  16.517 -0.2622  0.3386 -0.0859
 2901POPC   C4B35076  24.082   4.801  16.749  0.0608 -0.0571  0.0092
 2902POPC   NC335077  30.979  23.457  14.355 -0.0984 -0.3822  0.0048
 2902POPC   PO435078  30.709  23.524  14.664  0.2710 -0.1096 -0.2119
 2902POPC   GL135079  30.748  23.517  15.091  0.0152  0.2561  0.2261
 2902POPC   GL235080  30.724  23.244  15.260 -0.0086  0.0287  0.0756
 2902POPC   C1A35081  31.129  23.527  15.342 -0.0056  0.1963 -0.0105
 2902POPC   D2A35082  31.399  23.585  15.747  0.0044  0.0441  0.0571
 2902POPC   C3A35083  31.426  23.779  16.138  0.1213 -0.0287  0.3471
 2902POPC   C4A35084  31.734  23.737  16.442 -0.0266  0.1092 -0.1251
 2902POPC   C1B35085  30.661  23.039  15.681 -0.3113 -0.1908  0.1989
 2902POPC   C2B35086  30.589  22.893  16.086  0.3133  0.2435 -0.0752
 2902POPC   C3B35087  30.532  23.073  16.468 -0.0170  0.0699 -0.0737
 2902POPC   C4B35088  30.538  23.387  16.804 -0.1185 -0.1825 -0.0680
 2903POPC   NC335089   9.886  31.265  15.249 -0.0479  0.5060 -0.3787
 2903POPC   PO435090   9.543  31.417  15.393  0.1569  0.2723 -0.0485
 2903POPC   GL135091   9.525  31.131  15.662 -0.0851 -0.1754 -0.3129
 2903POPC   GL235092   9.316  31.196  15.767  0.0747 -0.2192  0.0152
 2903POPC   C1A35093   9.671  30.986  16.104 -0.2444 -0.0891 -0.2604
 2903POPC   D2A35094   9.752  31.136  16.448  0.0102  0.0583 -0.1200
 2903POPC   C3A35095   9.826  31.553  16.502 -0.0629  0.0656 -0.2597
 2903POPC   C4A35096   9.844  31.921  16.757 -0.1167 -0.1185  0.1788
 2903POPC   C1B35097   9.141  30.892  16.073 -0.1850 -0.2529 -0.2114
 2903POPC   C2B35098   9.298  30.996  16.488  0.1505  0.2299  0.0473
 2903POPC   C3B35099   9.420  31.350  16.728 -0.0311 -0.1959 -0.0139
 2903POPC   C4B35100   9.554  31.689  17.016  0.1136 -0.1805 -0.1494
 2904POPC   NC335101   1.484   6.776  15.840  0.3212  0.0036 -0.1525
 2904POPC   PO435102   1.218   6.762  15.570  0.0179 -0.1107  0.0751
 2904POPC   GL135103   1.124   6.637  16.008  0.0274  0.3482 -0.1062
 2904POPC   GL235104   0.808   6.701  16.017 -0.2343 -0.0920 -0.0588
 2904POPC   C1A35105   1.206   6.762  16.453  0.0543 -0.0380  0.2074
 2904POPC   D2A35106   1.368   6.512  16.811 -0.3229  0.0980 -0.2053
 2904POPC   C3A35107   1.225   6.614  17.219  0.0383  0.1897  0.0364
 2904POPC   C4A35108   1.003   6.526  17.611 -0.0369 -0.1661 -0.1645
 2904POPC   C1B35109   0.782   6.975  16.385  0.3163 -0.0955  0.0471
 2904POPC   C2B35110   0.557   7.169  16.673 -0.0774 -0.0134  0.1989
 2904POPC   C3B35111   0.233   7.432  16.848  0.2456  0.0288 -0.0463
 2904POPC   C4B35112   0.139   7.823  16.597  0.1441 -0.1045 -0.1965
 2905POPC   NC335113  13.364  15.181  15.495  0.3410  0.0663 -0.1865
 2905POPC   PO435114  13.563  15.535  15.541 -0.2159 -0.2062 -0.3016
 2905POPC   GL135115  13.539  15.944  15.678 -0.2368  0.3341  0.3577
 2905POPC   GL235116  13.467  15.931  15.904 -0.2351  0.0154  0.1954
 2905POPC   C1A35117  13.268  16.372  15.780  0.1414 -0.0785 -0.0383
 2905POPC   D2A35118  13.068  16.700  15.972  0.1261  0.5072 -0.0261
 2905POPC   C3A35119  12.679  16.954  16.082 -0.0141  0.0557 -0.0415
 2905POPC   C4A35120  12.548  17.378  16.309  0.0349 -0.0586 -0.2678
 2905POPC   C1B35121  13.269  16.128  16.303 -0.1242  0.0393  0.0246
 2905POPC   C2B35122  13.082  16.179  16.723 -0.0721  0.4034 -0.2714
 2905POPC   C3B35123  12.668  16.389  16.874 -0.2724  0.1717  0.0602
 2905POPC   C4B35124  12.597  16.723  17.200 -0.3999  0.1755  0.0194
 2906POPC   NC335125  22.214  26.894  15.393  0.2815  0.1242 -0.1830
 2906POPC   PO435126  22.487  26.651  15.352 -0.2122 -0.0870 -0.0901
 2906POPC   GL135127  22.474  26.410  15.739 -0.4265  0.3616  0.2330
 2906POPC   GL235128  22.195  26.438  15.842 -0.0892 -0.2776 -0.1883
 2906POPC   C1A35129  22.500  26.520  16.202 -0.2228  0.0650  0.1339
 2906POPC   D2A35130  22.873  26.667  16.410  0.1783 -0.0614 -0.1224
 2906POPC   C3A35131  22.946  26.464  16.842 -0.0730 -0.0267  0.0018
 2906POPC   C4A35132  22.902  26.637  17.218 -0.3037  0.0993  0.2615
 2906POPC   C1B35133  22.169  26.146  16.198 -0.2435  0.1565  0.0362
 2906POPC   C2B35134  22.177  26.183  16.686 -0.2014 -0.3693 -0.1881
 2906POPC   C3B35135  21.992  26.307  17.139 -0.1434  0.1989 -0.0026
 2906POPC   C4B35136  21.602  26.477  17.304 -0.1262  0.0800 -0.1576
 2907POPC   NC335137   9.358  25.276  15.204  0.1967 -0.1500  0.1316
 2907POPC   PO435138   9.017  25.460  15.161  0.2819  0.2598  0.1780
 2907POPC   GL135139   8.756  25.439  15.521 -0.7050 -0.0584  0.1457
 2907POPC   GL235140   9.062  25.374  15.653 -0.1147  0.1019 -0.0577
 2907POPC   C1A35141   8.582  25.705  15.896 -0.0607  0.1955 -0.0364
 2907POPC   D2A35142   8.575  26.061  16.236  0.1425  0.1419 -0.6130
 2907POPC   C3A35143   8.491  25.917  16.697 -0.1163 -0.0071 -0.0109
 2907POPC   C4A35144   8.273  25.635  16.968  0.3125  0.2683 -0.2321
 2907POPC   C1B35145   9.068  25.629  16.077  0.1047 -0.1463  0.2760
 2907POPC   C2B35146   8.971  25.843  16.472  0.2245 -0.3007  0.0169
 2907POPC   C3B35147   8.914  25.608  16.874  0.4750  0.0830 -0.0052
 2907POPC   C4B35148   8.826  25.225  17.092 -0.0808 -0.1975 -0.0544
 2908POPC   NC335149  16.205  24.310  15.166  0.3740  0.2096  0.1346
 2908POPC   PO435150  16.586  24.257  15.288 -0.0577 -0.1689 -0.3871
 2908POPC   GL135151  16.307  23.981  15.512  0.0887 -0.3651  0.4274
 2908POPC   GL235152  16.237  23.779  15.325 -0.0220 -0.1640  0.1124
 2908POPC   C1A35153  15.860  24.130  15.502 -0.0914 -0.0650  0.0653
 2908POPC   D2A35154  15.397  24.109  15.593  0.2842 -0.1580 -0.1072
 2908POPC   C3A35155  15.092  24.048  15.899 -0.2690  0.3954 -0.1520
 2908POPC   C4A35156  14.982  23.931  16.325 -0.0938 -0.1683 -0.1418
 2908POPC   C1B35157  16.055  23.598  15.719  0.1137 -0.0013  0.0802
 2908POPC   C2B35158  15.986  23.933  16.075 -0.2486  0.2717 -0.0399
 2908POPC   C3B35159  15.919  24.319  16.275  0.0114  0.0460 -0.0914
 2908POPC   C4B35160  15.803  24.640  16.635 -0.2183 -0.2804  0.1281
 2909POPC   NC335161   9.957   6.432  14.875  0.1693  0.0068  0.3366
 2909POPC   PO435162  10.250   6.732  14.904  0.1859  0.0474 -0.0753
 2909POPC   GL135163  10.144   6.844  15.181 -0.5518  0.3423 -0.1059
 2909POPC   GL235164  10.296   6.811  15.420  0.0962 -0.1560 -0.0238
 2909POPC   C1A35165   9.884   7.070  15.526 -0.3135 -0.0054 -0.0943
 2909POPC   D2A35166   9.605   7.207  15.891 -0.1271  0.0637 -0.0898
 2909POPC   C3A35167   9.909   7.204  16.190  0.2079  0.2332 -0.1636
 2909POPC   C4A35168  10.075   7.424  16.549 -0.2500  0.1299  0.4602
 2909POPC   C1B35169  10.242   6.762  15.898 -0.1576 -0.3210 -0.0483
 2909POPC   C2B35170  10.342   6.474  16.260 -0.0087 -0.0077  0.2721
 2909POPC   C3B35171  10.377   6.576  16.729  0.0200 -0.3938  0.0272
 2909POPC   C4B35172  10.173   6.525  17.143  0.0081 -0.0620 -0.3508
 2910POPC   NC335173  17.467  24.610  15.257  0.1094  0.1397  0.3990
 2910POPC   PO435174  17.807  24.588  15.128  0.0393 -0.0619  0.1438
 2910POPC   GL135175  17.868  24.430  15.553 -0.5051  0.1631  0.0296
 2910POPC   GL235176  17.803  24.712  15.693  0.1673  0.0859  0.0846
 2910POPC   C1A35177  18.206  24.436  15.860 -0.0090  0.2459 -0.0354
 2910POPC   D2A35178  18.234  24.192  16.256 -0.3481 -0.2985  0.0313
 2910POPC   C3A35179  18.171  23.815  16.520  0.0028 -0.0120 -0.1055
 2910POPC   C4A35180  17.917  23.652  16.871 -0.3113 -0.0829 -0.1074
 2910POPC   C1B35181  17.758  24.478  16.087 -0.0760  0.0448 -0.0012
 2910POPC   C2B35182  17.837  24.302  16.518  0.2640  0.2237 -0.0554
 2910POPC   C3B35183  18.065  24.153  16.916 -0.0508  0.0999  0.2642
 2910POPC   C4B35184  18.161  24.171  17.389 -0.1646 -0.1141 -0.0437
 2911POPC   NC335185   9.807  17.375  15.266  0.1159 -0.1261 -0.0081
 2911POPC   PO435186   9.595  17.041  15.194  0.2952 -0.3293 -0.2360
 2911POPC   GL135187   9.408  17.032  15.570 -0.1390  0.1505  0.3774
 2911POPC   GL235188   9.391  17.364  15.603  0.0215 -0.1966 -0.1878
 2911POPC   C1A35189   9.526  16.973  16.024 -0.2505  0.0926  0.2978
 2911POPC   D2A35190   9.878  16.958  16.311 -0.0416  0.3315 -0.1591
 2911POPC   C3A35191  10.047  16.764  16.682 -0.1270  0.1739 -0.0601
 2911POPC   C4A35192  10.034  16.825  17.144  0.3445 -0.0198  0.0023
 2911POPC   C1B35193   9.200  17.633  15.962 -0.0467  0.1844  0.2456
 2911POPC   C2B35194   8.822  17.646  16.249  0.1819  0.2354  0.1800
 2911POPC   C3B35195   8.674  17.631  16.674  0.0976 -0.0424  0.0121
 2911POPC   C4B35196   8.703  17.639  17.159  0.1270 -0.0879  0.0377
 2912POPC   NC335197  18.519  31.546  15.521  0.0272  0.0899  0.1074
 2912POPC   PO435198  18.274  31.884  15.498  0.3617 -0.3641 -0.0073
 2912POPC   GL135199  18.363  31.915  15.921  0.0256  0.0952  0.1542
 2912POPC   GL235200  18.145  31.739  15.972 -0.0395  0.1751 -0.0754
 2912POPC   C1A35201  18.230  32.098  16.360 -0.0691 -0.0634  0.2629
 2912POPC   D2A35202  18.172  31.936  16.786 -0.1828  0.2735 -0.0304
 2912POPC   C3A35203  18.433  31.588  16.983  0.3814 -0.0489 -0.1703
 2912POPC   C4A35204  18.630  31.227  17.121 -0.1758 -0.0198 -0.2875
 2912POPC   C1B35205  18.389  31.581  16.367 -0.1040 -0.1303  0.0523
 2912POPC   C2B35206  18.619  31.294  16.615  0.0966 -0.0259  0.1470
 2912POPC   C3B35207  18.970  31.099  16.775 -0.4440  0.0467  0.0642
 2912POPC   C4B35208  19.397  31.295  16.788  0.0684 -0.0944  0.0211
 2913POPC   NC335209  28.833  28.538  15.027  0.2047  0.0496 -0.1613
 2913POPC   PO435210  28.749  28.902  15.201  0.0478 -0.0393 -0.0386
 2913POPC   GL135211  28.869  29.281  15.391 -0.1456  0.2642 -0.0918
 2913POPC   GL235212  28.729  29.515  15.438  0.2621  0.0425 -0.1474
 2913POPC   C1A35213  29.046  29.292  15.824 -0.0125 -0.2618  0.3494
 2913POPC   D2A35214  29.160  29.175  16.278 -0.0507 -0.2879  0.4311
 2913POPC   C3A35215  28.820  29.399  16.512  0.1855 -0.4135  0.1247
 2913POPC   C4A35216  28.344  29.475  16.658  0.3084 -0.1260 -0.0331
 2913POPC   C1B35217  28.741  29.663  15.880  0.1148  0.0012 -0.2090
 2913POPC   C2B35218  28.757  29.890  16.312  0.0201  0.0830 -0.1193
 2913POPC   C3B35219  28.847  30.183  16.711  0.0644  0.1646  0.0220
 2913POPC   C4B35220  29.225  30.089  16.949 -0.0498 -0.0658 -0.0692
 2914POPC   NC335221  21.405   2.950  14.280 -0.0978 -0.0573 -0.2503
 2914POPC   PO435222  21.647   2.953  14.585 -0.3634 -0.2136  0.0980
 2914POPC   GL135223  21.690   2.867  15.053 -0.1281  0.0773  0.2094
 2914POPC   GL235224  21.615   2.621  15.015  0.1321  0.0373 -0.3067
 2914POPC   C1A35225  21.375   2.908  15.387  0.2860  0.1547  0.1731
 2914POPC   D2A35226  21.116   3.233  15.681 -0.1089  0.0237  0.0445
 2914POPC   C3A35227  20.921   2.935  15.935  0.3917  0.0589 -0.2604
 2914POPC   C4A35228  20.925   2.444  15.918  0.3766 -0.0830  0.1810
 2914POPC   C1B35229  21.322   2.384  15.309  0.0390 -0.1095  0.1161
 2914POPC   C2B35230  21.245   2.132  15.633 -0.1606 -0.1044 -0.4246
 2914POPC   C3B35231  21.153   2.058  16.113 -0.0113 -0.0500 -0.3245
 2914POPC   C4B35232  20.997   2.162  16.529  0.3003 -0.2417 -0.2990
 2915POPC   NC335233  23.486  12.023  15.262 -0.2292  0.4630  0.0959
 2915POPC   PO435234  23.651  11.655  15.328 -0.0536  0.3347  0.0874
 2915POPC   GL135235  23.719  11.725  15.704 -0.0288 -0.0309  0.0359
 2915POPC   GL235236  23.415  11.702  15.795 -0.1843  0.0447 -0.1293
 2915POPC   C1A35237  23.903  11.502  16.033  0.2830  0.0463  0.1048
 2915POPC   D2A35238  24.167  11.320  16.383 -0.3201 -0.1361 -0.0796
 2915POPC   C3A35239  24.317  10.891  16.515  0.4535 -0.0197 -0.0538
 2915POPC   C4A35240  24.420  10.637  16.925 -0.0914 -0.0804  0.1098
 2915POPC   C1B35241  23.463  11.652  16.261  0.0565 -0.1433 -0.0611
 2915POPC   C2B35242  23.555  11.459  16.664 -0.0935  0.1196 -0.0685
 2915POPC   C3B35243  23.478  11.520  17.117 -0.2061  0.0166 -0.0444
 2915POPC   C4B35244  23.740  11.705  17.434  0.3659 -0.0774  0.0674
 2916POPC   NC335245   4.351  23.479  15.247 -0.1023 -0.0773 -0.0478
 2916POPC   PO435246   4.521  23.818  15.383  0.1384 -0.1481  0.0621
 2916POPC   GL135247   4.665  23.569  15.680  0.1041 -0.3022 -0.2956
 2916POPC   GL235248   4.702  23.642  15.929 -0.1327 -0.1070  0.4973
 2916POPC   C1A35249   4.521  23.182  15.885 -0.0878  0.2664 -0.0121
 2916POPC   D2A35250   4.441  22.767  15.878  0.0614 -0.1744 -0.0418
 2916POPC   C3A35251   4.154  22.582  16.234 -0.0851  0.0647  0.2775
 2916POPC   C4A35252   3.939  22.821  16.591 -0.0876  0.0052 -0.2751
 2916POPC   C1B35253   4.742  23.503  16.389  0.1294  0.0246 -0.1016
 2916POPC   C2B35254   4.791  23.214  16.707 -0.1532  0.2302  0.0080
 2916POPC   C3B35255   4.861  22.980  17.061 -0.0749  0.0521 -0.0767
 2916POPC   C4B35256   4.779  23.022  17.544  0.0890 -0.3854 -0.0671
 2917POPC   NC335257  16.232  13.882  15.143  0.0779  0.4115  0.0188
 2917POPC   PO435258  16.006  13.757  15.447  0.0376  0.0569  0.0577
 2917POPC   GL135259  16.030  13.522  15.751  0.2694  0.3829 -0.5234
 2917POPC   GL235260  16.034  13.269  15.688 -0.3335 -0.2245 -0.3407
 2917POPC   C1A35261  15.953  13.603  16.191  0.4458  0.1062  0.0184
 2917POPC   D2A35262  16.021  13.725  16.623  0.1779 -0.0484  0.0913
 2917POPC   C3A35263  16.045  13.698  17.106  0.0944 -0.2542 -0.0448
 2917POPC   C4A35264  16.207  14.003  17.377 -0.1558 -0.2840  0.1279
 2917POPC   C1B35265  15.791  13.168  16.029 -0.1360  0.0906  0.0875
 2917POPC   C2B35266  15.574  13.268  16.424  0.4686  0.0116  0.0720
 2917POPC   C3B35267  15.267  13.366  16.786 -0.1635  0.0930 -0.0522
 2917POPC   C4B35268  15.292  13.477  17.275 -0.1582  0.0715 -0.0863
 2918POPC   NC335269  29.630  19.989  15.249 -0.1461  0.0521  0.0725
 2918POPC   PO435270  29.789  19.707  15.071  0.0555  0.1801  0.1219
 2918POPC   GL135271  29.684  19.607  15.527 -0.1377  0.1999 -0.4302
 2918POPC   GL235272  29.950  19.773  15.568 -0.4355 -0.2002  0.2207
 2918POPC   C1A35273  29.686  19.417  15.945  0.1554  0.0708 -0.1187
 2918POPC   D2A35274  29.917  19.381  16.336 -0.3050  0.1690 -0.0559
 2918POPC   C3A35275  29.895  19.517  16.800 -0.2101 -0.0928  0.0204
 2918POPC   C4A35276  29.813  19.422  17.219 -0.2061 -0.2222 -0.1787
 2918POPC   C1B35277  29.888  19.931  15.988 -0.1837  0.0994  0.2030
 2918POPC   C2B35278  29.836  19.863  16.437  0.2295 -0.2119  0.0244
 2918POPC   C3B35279  29.502  19.874  16.705  0.3210 -0.1897  0.3177
 2918POPC   C4B35280  29.371  19.604  17.075  0.0331 -0.1201  0.0808
 2919POPC   NC335281  22.382  15.764  14.946  0.1881  0.0666 -0.2678
 2919POPC   PO435282  22.383  16.166  15.048  0.1391  0.1245 -0.2271
 2919POPC   GL135283  22.411  16.204  15.521  0.1453 -0.2739  0.2014
 2919POPC   GL235284  22.158  16.361  15.609  0.2155  0.0405  0.0697
 2919POPC   C1A35285  22.413  16.005  15.976 -0.1119 -0.2061  0.1224
 2919POPC   D2A35286  22.299  15.653  16.288  0.2024 -0.2032  0.0104
 2919POPC   C3A35287  22.320  15.760  16.705  0.2250  0.1889  0.2237
 2919POPC   C4A35288  21.995  15.809  16.946  0.0762  0.0394 -0.1615
 2919POPC   C1B35289  22.436  16.518  15.981 -0.0693 -0.0865  0.0615
 2919POPC   C2B35290  22.522  16.297  16.367  0.0498 -0.2447  0.2659
 2919POPC   C3B35291  22.667  16.210  16.779 -0.1121  0.1039  0.2898
 2919POPC   C4B35292  22.747  16.081  17.224  0.2120  0.2639  0.1071
 2920POPC   NC335293  25.330  15.670  15.171  0.1420  0.0138  0.1205
 2920POPC   PO435294  25.475  15.898  15.472 -0.2765  0.1360 -0.1307
 2920POPC   GL135295  25.758  15.995  15.749  0.3813 -0.3303  0.0986
 2920POPC   GL235296  25.574  16.186  15.937  0.1850 -0.2084  0.1284
 2920POPC   C1A35297  25.999  16.051  16.140 -0.1521  0.1601  0.0810
 2920POPC   D2A35298  25.889  16.187  16.580  0.1040  0.4492  0.3809
 2920POPC   C3A35299  25.790  15.859  16.919  0.1491  0.0358  0.4875
 2920POPC   C4A35300  25.357  15.870  17.109  0.0207  0.1025  0.2144
 2920POPC   C1B35301  25.443  15.896  16.312  0.1337  0.0692 -0.1138
 2920POPC   C2B35302  25.167  15.618  16.626  0.0046 -0.3074  0.0465
 2920POPC   C3B35303  25.030  15.468  17.034  0.4406  0.0074 -0.2214
 2920POPC   C4B35304  24.797  15.231  17.333  0.0024  0.1015  0.3368
 2921POPC   NC335305  15.930  15.018  15.419  0.0278 -0.2890 -0.2732
 2921POPC   PO435306  15.963  14.610  15.457 -0.2457 -0.2422  0.0615
 2921POPC   GL135307  16.007  14.472  15.795 -0.1337  0.1120 -0.5039
 2921POPC   GL235308  15.802  14.534  15.990  0.0241  0.0691 -0.0106
 2921POPC   C1A35309  16.297  14.604  16.169  0.0016 -0.2246  0.2250
 2921POPC   D2A35310  16.610  14.932  16.345  0.2886  0.0825  0.3556
 2921POPC   C3A35311  17.053  15.062  16.384  0.0661 -0.1878 -0.1465
 2921POPC   C4A35312  17.513  15.267  16.323  0.0684  0.1222  0.1176
 2921POPC   C1B35313  15.873  14.645  16.464 -0.1590  0.0316 -0.0538
 2921POPC   C2B35314  15.793  14.613  16.935 -0.3011  0.0170  0.0021
 2921POPC   C3B35315  16.117  14.821  17.177  0.0855 -0.0834  0.0654
 2921POPC   C4B35316  16.507  14.735  17.201 -0.3927 -0.1251 -0.0086
 2922POPC   NC335317  20.087  15.021  14.559 -0.1014 -0.0495 -0.1428
 2922POPC   PO435318  20.352  14.741  14.483 -0.0668  0.0285  0.1060
 2922POPC   GL135319  20.254  14.733  14.881 -0.1515 -0.3058  0.1105
 2922POPC   GL235320  20.347  14.757  15.140  0.0397 -0.2270  0.1758
 2922POPC   C1A35321  19.856  14.528  14.980 -0.0138  0.1203  0.2169
 2922POPC   D2A35322  19.482  14.224  15.005 -0.1086 -0.1928 -0.2221
 2922POPC   C3A35323  19.296  14.197  15.360  0.1216  0.0329 -0.1121
 2922POPC   C4A35324  19.164  14.539  15.636 -0.0449 -0.3409 -0.0887
 2922POPC   C1B35325  20.383  14.749  15.531  0.0261  0.0705  0.2976
 2922POPC   C2B35326  20.434  14.553  15.867 -0.1554  0.1205  0.0232
 2922POPC   C3B35327  20.372  14.667  16.276 -0.3303  0.0775 -0.1746
 2922POPC   C4B35328  20.179  14.586  16.704  0.0991 -0.2384 -0.1340
 2923POPC   NC335329  18.253   5.155  14.777  0.1493 -0.0027 -0.1245
 2923POPC   PO435330  18.094   4.888  15.006 -0.2904  0.2115 -0.0887
 2923POPC   GL135331  18.289   4.791  15.333  0.0069  0.3198  0.4525
 2923POPC   GL235332  18.112   4.899  15.611  0.2134  0.1749  0.1539
 2923POPC   C1A35333  18.626   4.968  15.588 -0.1562 -0.5792  0.0631
 2923POPC   D2A35334  18.903   4.862  16.015  0.2061  0.0014  0.3140
 2923POPC   C3A35335  18.956   4.765  16.439  0.1469  0.1037 -0.1070
 2923POPC   C4A35336  18.775   5.037  16.787  0.2035  0.0353  0.1944
 2923POPC   C1B35337  18.352   4.833  16.005  0.0813 -0.0299 -0.3135
 2923POPC   C2B35338  18.432   4.732  16.455  0.2710 -0.2108 -0.0359
 2923POPC   C3B35339  18.364   4.779  16.919 -0.1716  0.0926 -0.1114
 2923POPC   C4B35340  18.378   5.053  17.304  0.2314 -0.0640 -0.3132
 2924POPC   NC335341  19.603   9.599  15.426  0.0434 -0.1916 -0.1117
 2924POPC   PO435342  19.388   9.934  15.483 -0.0672  0.0832  0.0114
 2924POPC   GL135343  19.253   9.658  15.763 -0.2935 -0.1578  0.0885
 2924POPC   GL235344  19.334   9.816  15.972  0.1563 -0.0856 -0.0614
 2924POPC   C1A35345  18.941   9.551  16.060 -0.3815  0.0084 -0.2550
 2924POPC   D2A35346  18.787   9.168  16.146  0.3788  0.0687 -0.1001
 2924POPC   C3A35347  18.767   9.167  16.601  0.1520  0.0300 -0.0407
 2924POPC   C4A35348  18.704   9.554  16.969 -0.1740 -0.0367 -0.0109
 2924POPC   C1B35349  19.265   9.998  16.357  0.3358 -0.0685  0.1193
 2924POPC   C2B35350  19.251  10.175  16.814  0.1652 -0.2194  0.0725
 2924POPC   C3B35351  19.179  10.232  17.267 -0.3506  0.3456 -0.1626
 2924POPC   C4B35352  18.884  10.141  17.603  0.3184 -0.0578  0.3459
 2925POPC   NC335353   5.799   6.114  14.816 -0.2252 -0.0564 -0.2361
 2925POPC   PO435354   6.084   6.343  14.875 -0.1852  0.1010 -0.2671
 2925POPC   GL135355   5.921   6.245  15.239  0.0101  0.0698  0.3898
 2925POPC   GL235356   6.178   6.192  15.359  0.2952  0.0339 -0.1242
 2925POPC   C1A35357   5.699   6.449  15.560 -0.2754  0.1926  0.1625
 2925POPC   D2A35358   5.807   6.679  15.952 -0.0089  0.0401  0.0900
 2925POPC   C3A35359   5.548   6.843  16.261  0.1441  0.3770  0.2478
 2925POPC   C4A35360   5.357   7.194  16.513  0.1501 -0.0916 -0.0177
 2925POPC   C1B35361   6.020   6.071  15.766 -0.2396  0.1131  0.0269
 2925POPC   C2B35362   5.782   6.145  16.212 -0.0551 -0.2470  0.0445
 2925POPC   C3B35363   5.908   6.453  16.505 -0.1768 -0.2018 -0.0646
 2925POPC   C4B35364   6.394   6.441  16.623 -0.1970 -0.0568  0.0471
 2926POPC   NC335365  19.219  13.418  14.796  0.0649 -0.0153  0.4091
 2926POPC   PO435366  18.992  13.722  14.951  0.0573  0.0040 -0.2628
 2926POPC   GL135367  18.648  13.939  15.017  0.1957  0.1431 -0.0617
 2926POPC   GL235368  18.653  13.751  15.288 -0.0089  0.1331 -0.0185
 2926POPC   C1A35369  18.525  14.354  14.843 -0.1248 -0.0573  0.1754
 2926POPC   D2A35370  18.705  14.800  14.843 -0.1668  0.2123  0.0604
 2926POPC   C3A35371  18.832  15.041  14.478  0.1705 -0.2480 -0.1180
 2926POPC   C4A35372  19.178  15.337  14.496  0.1915  0.0732  0.0617
 2926POPC   C1B35373  18.585  13.712  15.729  0.2652 -0.0146 -0.0056
 2926POPC   C2B35374  18.509  13.875  16.161  0.0519 -0.2901 -0.1657
 2926POPC   C3B35375  18.345  13.773  16.610  0.1487 -0.0158  0.2263
 2926POPC   C4B35376  18.151  13.619  16.991  0.2106  0.1082 -0.2990
 2927POPC   NC335377  24.271   7.235  15.175 -0.3588 -0.0350  0.2850
 2927POPC   PO435378  23.898   7.383  15.132 -0.0321  0.0095  0.2911
 2927POPC   GL135379  23.896   7.290  15.532  0.0724 -0.2609 -0.1041
 2927POPC   GL235380  24.063   7.406  15.722 -0.1747 -0.3228 -0.1344
 2927POPC   C1A35381  23.620   7.576  15.869  0.1756  0.1328  0.1729
 2927POPC   D2A35382  23.664   7.984  16.129  0.0663 -0.0500 -0.0103
 2927POPC   C3A35383  23.437   8.003  16.509 -0.1429 -0.2241  0.1476
 2927POPC   C4A35384  23.604   8.010  16.987 -0.1509 -0.2541  0.3738
 2927POPC   C1B35385  24.263   7.269  16.158  0.5070 -0.2213  0.1163
 2927POPC   C2B35386  24.186   7.216  16.610 -0.0317 -0.3844 -0.1670
 2927POPC   C3B35387  24.388   6.983  16.943  0.0706 -0.3789  0.0545
 2927POPC   C4B35388  24.709   6.617  17.084  0.1684  0.0604  0.1637
 2928POPC   NC335389  16.955  29.866  15.621  0.1388 -0.1483 -0.3206
 2928POPC   PO435390  16.633  29.846  15.391 -0.0593  0.0994  0.0193
 2928POPC   GL135391  16.525  29.980  15.780  0.2069 -0.0114  0.0884
 2928POPC   GL235392  16.650  30.232  15.780 -0.0152 -0.1626  0.0990
 2928POPC   C1A35393  16.179  29.810  16.035  0.0585  0.0691 -0.0691
 2928POPC   D2A35394  15.816  29.858  16.328 -0.0711 -0.1797 -0.0568
 2928POPC   C3A35395  15.895  29.872  16.790  0.1333 -0.1058 -0.0662
 2928POPC   C4A35396  16.320  29.690  17.000 -0.0910  0.0242  0.1379
 2928POPC   C1B35397  16.439  30.598  16.007 -0.1471  0.2070  0.0301
 2928POPC   C2B35398  16.138  30.777  16.351  0.1649 -0.1422  0.1818
 2928POPC   C3B35399  16.252  30.925  16.766  0.0392 -0.2641  0.1472
 2928POPC   C4B35400  16.583  30.926  17.158 -0.0396  0.2408 -0.1606
 2929POPC   NC335401   9.942  26.738  15.381  0.1909  0.1477  0.0958
 2929POPC   PO435402   9.926  27.145  15.354  0.3049  0.0182 -0.2663
 2929POPC   GL135403  10.175  27.037  15.666 -0.4563 -0.2427  0.7670
 2929POPC   GL235404  10.059  27.158  15.893 -0.1099  0.1552 -0.3214
 2929POPC   C1A35405  10.558  27.199  15.783  0.0037  0.1688  0.0622
 2929POPC   D2A35406  10.769  27.505  16.060 -0.0096  0.1103 -0.2871
 2929POPC   C3A35407  10.846  27.325  16.491  0.0399  0.1606 -0.1101
 2929POPC   C4A35408  10.591  27.145  16.859  0.1000 -0.3696  0.1752
 2929POPC   C1B35409   9.916  26.820  16.176 -0.1491  0.0985  0.5034
 2929POPC   C2B35410   9.849  26.744  16.597 -0.4485 -0.1784  0.0166
 2929POPC   C3B35411   9.447  26.716  16.862  0.0346  0.0366  0.0363
 2929POPC   C4B35412   9.231  26.427  17.182  0.0333 -0.0308  0.1496
 2930POPC   NC335413  31.179   6.150  15.559 -0.2035 -0.0211 -0.0196
 2930POPC   PO435414  31.381   5.839  15.673  0.2047  0.0967  0.1998
 2930POPC   GL135415  31.339   5.724  16.070  0.3276 -0.0570  0.1621
 2930POPC   GL235416  31.611   5.621  16.115  0.4234  0.1383  0.1436
 2930POPC   C1A35417  30.861   5.809  16.170  0.0824  0.1845  0.0549
 2930POPC   D2A35418  30.543   5.978  16.418 -0.0722  0.3100  0.1869
 2930POPC   C3A35419  30.314   6.389  16.254 -0.0799  0.0281  0.2069
 2930POPC   C4A35420  30.399   6.779  16.470  0.1426 -0.0935 -0.0717
 2930POPC   C1B35421  31.538   5.899  16.486 -0.0569 -0.0279  0.1335
 2930POPC   C2B35422  31.625   6.004  16.918  0.1791  0.0467  0.0786
 2930POPC   C3B35423  31.844   6.152  17.329  0.2598 -0.0518 -0.0946
 2930POPC   C4B35424  31.929   5.961  17.741 -0.1152  0.3491  0.3349
 2931POPC   NC335425  26.972  12.648  14.674  0.1852  0.1255 -0.0497
 2931POPC   PO435426  27.123  13.010  14.744  0.0149 -0.1574  0.0760
 2931POPC   GL135427  26.869  12.871  15.041  0.2843  0.0672  0.0117
 2931POPC   GL235428  27.151  12.810  15.190 -0.0504 -0.0725  0.0459
 2931POPC   C1A35429  26.716  13.162  15.349  0.1921  0.4257 -0.0346
 2931POPC   D2A35430  26.630  13.431  15.690  0.1072  0.2303  0.1647
 2931POPC   C3A35431  26.504  13.371  16.141  0.0317  0.0165  0.1198
 2931POPC   C4A35432  26.425  13.499  16.607  0.2288 -0.0437 -0.1979
 2931POPC   C1B35433  27.082  12.965  15.587 -0.1504 -0.3008 -0.0113
 2931POPC   C2B35434  26.782  13.013  15.890  0.1386 -0.1745 -0.1099
 2931POPC   C3B35435  26.740  12.941  16.307 -0.1314 -0.2490  0.0501
 2931POPC   C4B35436  26.512  13.013  16.715  0.0528 -0.0668 -0.1671
 2932POPC   NC335437   8.222  20.298  15.468 -0.2292 -0.1311 -0.1065
 2932POPC   PO435438   8.356  20.694  15.488 -0.0528  0.1187 -0.1442
 2932POPC   GL135439   8.253  20.823  15.926 -0.0152  0.1432 -0.0938
 2932POPC   GL235440   8.483  20.720  16.068 -0.2101 -0.3311 -0.0899
 2932POPC   C1A35441   7.963  20.972  16.250  0.0822 -0.0939 -0.1133
 2932POPC   D2A35442   7.804  20.766  16.694 -0.3066  0.2839 -0.1498
 2932POPC   C3A35443   7.741  20.500  17.073 -0.0120  0.0058  0.1869
 2932POPC   C4A35444   7.444  20.335  17.353  0.0216  0.2445  0.0761
 2932POPC   C1B35445   8.355  20.602  16.505  0.2133 -0.0093 -0.0191
 2932POPC   C2B35446   8.181  20.615  16.975 -0.2942 -0.2932 -0.1586
 2932POPC   C3B35447   8.127  20.280  17.304  0.0400 -0.4031  0.2725
 2932POPC   C4B35448   8.002  19.890  17.507 -0.1238 -0.1378  0.0390
 2933POPC   NC335449  29.574  30.397  14.918  0.0123 -0.0719 -0.1072
 2933POPC   PO435450  29.766  30.500  15.222  0.3311 -0.0948 -0.4569
 2933POPC   GL135451  29.954  30.411  15.622  0.0272  0.1440  0.0154
 2933POPC   GL235452  30.234  30.356  15.714  0.5402  0.2763 -0.0508
 2933POPC   C1A35453  29.764  29.996  15.827  0.2638  0.1031  0.1203
 2933POPC   D2A35454  29.747  29.790  16.269  0.1857  0.0653 -0.4673
 2933POPC   C3A35455  29.603  29.365  16.426  0.1680 -0.2333 -0.0602
 2933POPC   C4A35456  29.623  28.919  16.429  0.0961 -0.0028  0.0868
 2933POPC   C1B35457  30.179  30.114  16.106 -0.1018 -0.2631  0.0093
 2933POPC   C2B35458  30.137  29.890  16.501 -0.3276 -0.1406 -0.2078
 2933POPC   C3B35459  30.066  29.627  16.898  0.0028 -0.0099 -0.1852
 2933POPC   C4B35460  29.618  29.504  16.962  0.2868  0.0491  0.1831
 2934POPC   NC335461  19.912  22.550  15.231 -0.1415  0.1782  0.1245
 2934POPC   PO435462  19.942  22.255  15.462  0.0828  0.1159 -0.0609
 2934POPC   GL135463  19.842  22.204  15.853  0.1449 -0.2141 -0.0891
 2934POPC   GL235464  19.585  22.230  16.019  0.0597  0.4611 -0.4158
 2934POPC   C1A35465  20.115  22.431  16.149 -0.1288  0.0104  0.0471
 2934POPC   D2A35466  20.491  22.672  16.145 -0.1300 -0.0263  0.0079
 2934POPC   C3A35467  20.904  22.691  16.382  0.2475  0.0677 -0.0410
 2934POPC   C4A35468  21.116  22.643  16.810 -0.0484 -0.1462  0.4076
 2934POPC   C1B35469  19.449  22.290  16.401 -0.1174 -0.1295 -0.1944
 2934POPC   C2B35470  19.191  22.487  16.778  0.3355 -0.3804  0.2191
 2934POPC   C3B35471  18.906  22.634  17.116 -0.0193  0.2794  0.1979
 2934POPC   C4B35472  18.612  22.872  17.424 -0.0708 -0.1137  0.0847
 2935POPC   NC335473   9.770  15.890  15.569  0.3119  0.3574  0.2407
 2935POPC   PO435474   9.700  16.148  15.306 -0.1479  0.0958  0.1382
 2935POPC   GL135475   9.582  16.470  15.595 -0.3625  0.1055  0.1357
 2935POPC   GL235476   9.352  16.529  15.654  0.1235  0.1190 -0.0028
 2935POPC   C1A35477   9.895  16.632  15.904 -0.2143  0.2270 -0.2882
 2935POPC   D2A35478  10.081  16.465  16.341 -0.0596  0.2708  0.2062
 2935POPC   C3A35479  10.483  16.534  16.626 -0.2001  0.1260 -0.0315
 2935POPC   C4A35480  10.588  16.125  16.805 -0.2550  0.1884  0.1706
 2935POPC   C1B35481   9.472  16.336  16.055 -0.1118 -0.1447 -0.1498
 2935POPC   C2B35482   9.507  16.063  16.372 -0.0707 -0.3266  0.1134
 2935POPC   C3B35483   9.339  16.051  16.799  0.0461  0.1828 -0.1214
 2935POPC   C4B35484   9.256  15.732  17.107 -0.1145  0.0346 -0.0650
 2936POPC   NC335485  17.632   8.896  15.117  0.0101  0.0251  0.2232
 2936POPC   PO435486  17.959   8.688  15.088 -0.1268 -0.2380 -0.0243
 2936POPC   GL135487  18.066   9.041  15.268  0.1002  0.1107 -0.4571
 2936POPC   GL235488  18.129   9.347  15.166  0.1339  0.2130 -0.2386
 2936POPC   C1A35489  17.843   9.288  15.610  0.1253 -0.1823 -0.0410
 2936POPC   D2A35490  17.430   9.423  15.781 -0.2428  0.2710 -0.2592
 2936POPC   C3A35491  17.677   9.403  16.124  0.1072  0.0401  0.0035
 2936POPC   C4A35492  17.928   9.358  16.506  0.0472  0.4365 -0.0715
 2936POPC   C1B35493  18.295   9.450  15.580  0.0165 -0.1578  0.2030
 2936POPC   C2B35494  18.293   9.453  16.052  0.3951 -0.1665  0.3605
 2936POPC   C3B35495  18.533   9.556  16.402  0.0664 -0.1332  0.1198
 2936POPC   C4B35496  18.902   9.764  16.539  0.0200  0.4751  0.0556
 2937POPC   NC335497  29.904  13.644  15.788 -0.0512  0.0393 -0.0274
 2937POPC   PO435498  29.663  13.693  15.453  0.3019 -0.0088  0.2057
 2937POPC   GL135499  29.480  13.450  15.532  0.0016  0.2964 -0.1035
 2937POPC   GL235500  29.658  13.210  15.598 -0.0724  0.2015  0.1717
 2937POPC   C1A35501  29.250  13.430  15.959  0.0886 -0.1818  0.1462
 2937POPC   D2A35502  29.241  13.423  16.439 -0.0082  0.1327 -0.1067
 2937POPC   C3A35503  29.354  13.723  16.713 -0.5029  0.1378  0.3019
 2937POPC   C4A35504  29.656  13.882  17.062 -0.0797 -0.0727 -0.1485
 2937POPC   C1B35505  29.864  13.083  15.938 -0.0298 -0.0546 -0.1222
 2937POPC   C2B35506  29.889  12.748  16.186 -0.0596  0.2801 -0.1225
 2937POPC   C3B35507  30.002  12.592  16.651  0.0274  0.1014  0.1314
 2937POPC   C4B35508  30.194  12.410  17.073 -0.0186  0.1466  0.1947
 2938POPC   NC335509  10.424   6.327  15.395 -0.0377  0.1102  0.1429
 2938POPC   PO435510  10.038   6.421  15.358  0.2927  0.3293 -0.1315
 2938POPC   GL135511  10.006   6.128  15.489  0.1662 -0.2026  0.3045
 2938POPC   GL235512   9.943   6.186  15.777 -0.0886 -0.1346  0.2212
 2938POPC   C1A35513   9.943   5.709  15.768  0.0966  0.0580 -0.3704
 2938POPC   D2A35514   9.691   5.567  16.093  0.0401 -0.3591  0.1054
 2938POPC   C3A35515   9.327   5.697  16.268 -0.0217  0.3925 -0.0283
 2938POPC   C4A35516   8.976   6.001  16.464 -0.0295  0.0194  0.2576
 2938POPC   C1B35517   9.954   6.165  16.270  0.0949 -0.0593 -0.0756
 2938POPC   C2B35518   9.928   6.353  16.656 -0.2241  0.2155  0.2591
 2938POPC   C3B35519   9.627   6.479  16.916  0.0680 -0.0646 -0.1194
 2938POPC   C4B35520   9.305   6.595  17.176  0.0329  0.1697 -0.0318
 2939POPC   NC335521   3.183   4.940  15.461 -0.2090  0.1748  0.0516
 2939POPC   PO435522   2.921   5.253  15.494 -0.0678  0.0547  0.0318
 2939POPC   GL135523   3.103   5.320  15.768  0.0486 -0.3234 -0.1036
 2939POPC   GL235524   2.961   5.106  15.998 -0.1954  0.0879 -0.1045
 2939POPC   C1A35525   2.998   5.623  16.160 -0.2979  0.1444 -0.0203
 2939POPC   D2A35526   3.019   5.752  16.628  0.0761  0.0738 -0.1337
 2939POPC   C3A35527   3.041   6.012  16.988 -0.1000 -0.3062 -0.1836
 2939POPC   C4A35528   3.035   6.160  17.437  0.0128  0.2581  0.0251
 2939POPC   C1B35529   2.780   4.837  16.282  0.0573 -0.0029 -0.0276
 2939POPC   C2B35530   2.745   4.999  16.708 -0.0840  0.0193  0.0205
 2939POPC   C3B35531   2.769   4.923  17.162  0.2145  0.0695  0.1217
 2939POPC   C4B35532   2.875   5.228  17.482 -0.4744 -0.2354 -0.0081
 2940POPC   NC335533  24.231  20.466  14.830 -0.0993  0.1082  0.1789
 2940POPC   PO435534  23.995  20.277  15.068  0.0129  0.0677 -0.0046
 2940POPC   GL135535  23.957  20.142  15.523 -0.1151 -0.0930  0.1607
 2940POPC   GL235536  24.054  20.413  15.636  0.0416 -0.0031 -0.0442
 2940POPC   C1A35537  24.052  19.696  15.716  0.2843 -0.4244  0.1583
 2940POPC   D2A35538  23.966  19.649  16.183 -0.0966 -0.0857  0.2667
 2940POPC   C3A35539  24.122  19.741  16.572 -0.0624 -0.0065 -0.2363
 2940POPC   C4A35540  24.395  19.555  16.887  0.1014 -0.0881  0.0561
 2940POPC   C1B35541  24.360  20.267  15.946 -0.3079 -0.0487 -0.0303
 2940POPC   C2B35542  24.576  20.058  16.336 -0.0236  0.1883 -0.2988
 2940POPC   C3B35543  24.851  20.051  16.734 -0.0774  0.1672  0.1954
 2940POPC   C4B35544  24.759  19.957  17.190 -0.1397  0.2666  0.0025
 2941POPC   NC335545  22.773  28.852  15.084 -0.0182 -0.1309  0.0163
 2941POPC   PO435546  22.839  28.937  15.445  0.1125 -0.0086  0.1774
 2941POPC   GL135547  22.646  29.243  15.704 -0.1599  0.1387  0.0707
 2941POPC   GL235548  22.423  29.152  15.593  0.0368 -0.3650 -0.4273
 2941POPC   C1A35549  22.774  29.290  16.129 -0.4435  0.1480  0.4469
 2941POPC   D2A35550  22.730  29.064  16.506 -0.0349 -0.0877 -0.1286
 2941POPC   C3A35551  22.490  29.044  16.990  0.1767  0.0030 -0.0360
 2941POPC   C4A35552  22.177  29.308  17.097 -0.2138  0.0926 -0.1015
 2941POPC   C1B35553  22.295  29.220  16.087  0.0338 -0.1331  0.1693
 2941POPC   C2B35554  21.884  29.227  16.247  0.1996  0.1624 -0.0713
 2941POPC   C3B35555  21.533  29.366  16.520 -0.0924 -0.0092 -0.1261
 2941POPC   C4B35556  21.107  29.406  16.698 -0.3326 -0.0096 -0.0921
 2942POPC   NC335557   8.564  13.509  15.142 -0.0686 -0.0386  0.2038
 2942POPC   PO435558   8.396  13.827  15.341  0.2685 -0.0768 -0.1515
 2942POPC   GL135559   8.433  13.850  15.747 -0.1790  0.0358 -0.1269
 2942POPC   GL235560   8.410  14.126  15.837  0.2587 -0.0751 -0.4630
 2942POPC   C1A35561   8.396  13.583  16.140 -0.2523  0.1270  0.3943
 2942POPC   D2A35562   8.261  13.468  16.608 -0.1191 -0.0221  0.1771
 2942POPC   C3A35563   8.352  13.724  16.994  0.0025  0.1444  0.0777
 2942POPC   C4A35564   8.233  13.632  17.407 -0.0767 -0.0316 -0.0009
 2942POPC   C1B35565   8.292  14.363  16.221  0.0108  0.4228  0.3767
 2942POPC   C2B35566   7.914  14.306  16.496 -0.2720  0.0065  0.1895
 2942POPC   C3B35567   7.720  14.235  16.874  0.0628  0.0986 -0.2333
 2942POPC   C4B35568   7.294  14.149  17.081 -0.0386 -0.0582  0.1668
 2943POPC   NC335569   1.770  25.449  15.576  0.0401 -0.0768 -0.0231
 2943POPC   PO435570   1.420  25.582  15.455  0.0188 -0.2369 -0.2747
 2943POPC   GL135571   1.303  25.465  15.811  0.1855 -0.1548  0.1816
 2943POPC   GL235572   1.436  25.601  15.991  0.3435 -0.1431  0.2529
 2943POPC   C1A35573   0.968  25.537  16.069 -0.1613  0.2581 -0.1419
 2943POPC   D2A35574   0.875  25.458  16.525 -0.1131  0.1956 -0.4048
 2943POPC   C3A35575   1.078  25.653  16.911  0.0474 -0.1138  0.0303
 2943POPC   C4A35576   0.871  25.675  17.300  0.0082 -0.2276 -0.0733
 2943POPC   C1B35577   1.562  25.961  16.225 -0.0625 -0.0706  0.0125
 2943POPC   C2B35578   1.569  26.040  16.612  0.1071  0.0275 -0.0649
 2943POPC   C3B35579   1.580  25.907  17.000 -0.1074 -0.1597 -0.0666
 2943POPC   C4B35580   1.366  25.597  17.339  0.0950  0.0414  0.0185
 2944POPC   NC335581  22.065   9.241  15.256 -0.2350 -0.2003 -0.0278
 2944POPC   PO435582  22.448   9.224  15.434 -0.0410 -0.1082  0.0884
 2944POPC   GL135583  22.208   9.369  15.676 -0.3149  0.1796 -0.0753
 2944POPC   GL235584  21.996   9.585  15.642  0.0738 -0.0728 -0.3565
 2944POPC   C1A35585  22.016   9.328  16.090  0.0716  0.2858 -0.1020
 2944POPC   D2A35586  21.874   9.546  16.455  0.1883 -0.2928  0.2056
 2944POPC   C3A35587  21.595   9.364  16.783 -0.0593 -0.2340  0.0700
 2944POPC   C4A35588  21.345   8.975  16.840  0.1836  0.0199 -0.1404
 2944POPC   C1B35589  21.926   9.827  16.064  0.0646 -0.1054 -0.1062
 2944POPC   C2B35590  21.625  10.005  16.300 -0.0596  0.0269  0.1234
 2944POPC   C3B35591  21.597   9.926  16.758  0.0439 -0.1002  0.0871
 2944POPC   C4B35592  21.684   9.870  17.245  0.1171 -0.3175  0.0515
 2945POPC   NC335593  16.618   4.316  15.142 -0.1713 -0.3253 -0.0232
 2945POPC   PO435594  16.435   4.107  15.392 -0.2557 -0.1961  0.0963
 2945POPC   GL135595  16.473   4.081  15.679  0.1185 -0.4485 -0.1520
 2945POPC   GL235596  16.757   4.124  15.835 -0.2590  0.0753 -0.2582
 2945POPC   C1A35597  16.228   3.707  15.880  0.0806  0.1769 -0.0875
 2945POPC   D2A35598  16.129   3.262  15.806  0.0643  0.0489 -0.0059
 2945POPC   C3A35599  16.224   3.009  16.135 -0.1571  0.1077 -0.2668
 2945POPC   C4A35600  16.491   3.047  16.437  0.2585 -0.1390 -0.1250
 2945POPC   C1B35601  16.564   3.922  16.190 -0.1645 -0.0378 -0.4405
 2945POPC   C2B35602  16.545   3.571  16.432 -0.0704  0.0004 -0.1475
 2945POPC   C3B35603  16.554   3.432  16.859 -0.2812  0.1186  0.6389
 2945POPC   C4B35604  16.480   3.603  17.207  0.1767 -0.0324 -0.0166
 2946POPC   NC335605   7.439  30.318  15.265  0.1570  0.1083 -0.0026
 2946POPC   PO435606   7.053  30.451  15.305  0.3896 -0.0992  0.1816
 2946POPC   GL135607   6.896  30.453  15.574  0.4651 -0.2114 -0.2890
 2946POPC   GL235608   6.741  30.647  15.653  0.0357  0.0966  0.1331
 2946POPC   C1A35609   6.919  30.428  16.066  0.4019  0.1423  0.3650
 2946POPC   D2A35610   6.764  30.586  16.461 -0.2093  0.3179  0.1865
 2946POPC   C3A35611   7.002  30.392  16.792  0.1843 -0.0796  0.0486
 2946POPC   C4A35612   7.199  30.263  17.168 -0.1291 -0.2744  0.2406
 2946POPC   C1B35613   6.529  30.733  16.038 -0.0799 -0.3172 -0.0519
 2946POPC   C2B35614   6.345  30.900  16.380  0.0559 -0.0709  0.1546
 2946POPC   C3B35615   6.325  30.956  16.853 -0.0133  0.1291  0.0220
 2946POPC   C4B35616   6.134  31.247  17.155 -0.1742  0.2390  0.2043
 2947POPC   NC335617  29.214   1.294  15.185 -0.4357  0.2537  0.0211
 2947POPC   PO435618  29.440   0.931  15.171  0.2387  0.0664  0.1237
 2947POPC   GL135619  29.573   0.874  15.592 -0.0913 -0.0021  0.1159
 2947POPC   GL235620  29.544   1.162  15.580  0.0210 -0.0081  0.1637
 2947POPC   C1A35621  29.539   0.515  15.883 -0.0606 -0.2640 -0.0325
 2947POPC   D2A35622  29.487   0.276  16.248  0.1683 -0.0481  0.1841
 2947POPC   C3A35623  29.814   0.145  16.539 -0.0210  0.3472  0.1688
 2947POPC   C4A35624  30.284   0.049  16.599 -0.2785  0.0733  0.2262
 2947POPC   C1B35625  29.565   0.926  16.038  0.1735 -0.0457 -0.0826
 2947POPC   C2B35626  29.269   0.941  16.369  0.0645 -0.0726 -0.1278
 2947POPC   C3B35627  28.939   1.040  16.700  0.2000  0.0817  0.0833
 2947POPC   C4B35628  28.670   0.893  17.119 -0.0563 -0.1159  0.2247
 2948POPC   NC335629   8.820   1.533  15.175 -0.0671 -0.2029 -0.0820
 2948POPC   PO435630   8.570   1.749  15.362  0.0717 -0.0145  0.2014
 2948POPC   GL135631   8.613   1.810  15.705 -0.0914 -0.0227  0.3514
 2948POPC   GL235632   8.392   1.964  15.777  0.2657  0.1211 -0.0887
 2948POPC   C1A35633   8.869   1.756  16.091 -0.0034  0.0241 -0.1167
 2948POPC   D2A35634   9.138   2.027  16.361  0.1220  0.1251  0.2611
 2948POPC   C3A35635   9.050   1.962  16.832 -0.1042  0.0196  0.1295
 2948POPC   C4A35636   9.062   1.880  17.311  0.5654 -0.0718  0.2515
 2948POPC   C1B35637   8.390   2.408  15.851  0.2329  0.3117 -0.2167
 2948POPC   C2B35638   8.320   2.665  16.278 -0.2001  0.0734 -0.0060
 2948POPC   C3B35639   8.295   2.837  16.724 -0.0810 -0.2988 -0.0097
 2948POPC   C4B35640   8.604   2.850  17.040 -0.2117 -0.0183  0.0499
 2949POPC   NC335641  30.639  14.071  15.390 -0.2470 -0.0019 -0.0046
 2949POPC   PO435642  30.400  14.382  15.250 -0.2897  0.3256 -0.0116
 2949POPC   GL135643  30.111  14.461  15.543 -0.3468 -0.3699 -0.2058
 2949POPC   GL235644  29.994  14.689  15.495  0.1043  0.1734 -0.1166
 2949POPC   C1A35645  30.271  14.277  15.920 -0.3458  0.1222  0.3159
 2949POPC   D2A35646  30.054  14.065  16.227  0.0623  0.2658  0.4419
 2949POPC   C3A35647  29.882  14.244  16.657  0.2907 -0.0336 -0.0150
 2949POPC   C4A35648  30.162  14.346  17.087 -0.2548  0.3497  0.2605
 2949POPC   C1B35649  29.768  14.987  15.797  0.2395  0.0437 -0.0591
 2949POPC   C2B35650  29.757  15.378  16.011  0.1634 -0.1392 -0.0126
 2949POPC   C3B35651  29.794  15.687  16.351  0.0417 -0.1959  0.1900
 2949POPC   C4B35652  29.751  15.833  16.789  0.2250  0.0641  0.2043
 2950POPC   NC335653  15.906  20.202  15.042  0.0712  0.1793  0.1643
 2950POPC   PO435654  16.028  19.866  15.214 -0.4145  0.2199  0.2132
 2950POPC   GL135655  16.255  19.758  15.553  0.2907 -0.1541  0.1062
 2950POPC   GL235656  16.177  20.045  15.719  0.3268  0.3054 -0.0974
 2950POPC   C1A35657  16.357  19.640  15.953  0.0623 -0.3224  0.1027
 2950POPC   D2A35658  16.407  19.622  16.433  0.0669  0.2238  0.2298
 2950POPC   C3A35659  16.522  19.617  16.888 -0.0457  0.1745  0.2224
 2950POPC   C4A35660  16.679  19.888  17.250  0.2578  0.3145  0.1161
 2950POPC   C1B35661  16.204  20.089  16.173  0.0035  0.0547  0.1171
 2950POPC   C2B35662  16.272  20.023  16.596 -0.2624  0.0561 -0.1048
 2950POPC   C3B35663  16.254  20.114  17.042  0.1043  0.1071 -0.0478
 2950POPC   C4B35664  16.271  20.062  17.498  0.2509 -0.2439  0.1516
 2951POPC   NC335665  12.611  13.930  15.230 -0.0074 -0.1605  0.0094
 2951POPC   PO435666  13.029  13.870  15.125 -0.2115 -0.0603  0.0339
 2951POPC   GL135667  13.015  13.896  15.521 -0.0653  0.0812  0.0973
 2951POPC   GL235668  12.958  14.135  15.545 -0.3003  0.0078 -0.2313
 2951POPC   C1A35669  12.983  13.982  15.978  0.3136  0.1842 -0.1388
 2951POPC   D2A35670  12.868  13.970  16.378  0.0272  0.0099 -0.0719
 2951POPC   C3A35671  12.496  14.105  16.580  0.3037 -0.0728 -0.1915
 2951POPC   C4A35672  12.338  14.228  17.013 -0.3274  0.0335  0.1496
 2951POPC   C1B35673  12.905  14.509  15.896 -0.0541 -0.1548  0.0812
 2951POPC   C2B35674  12.663  14.701  16.244 -0.4727  0.0200  0.1751
 2951POPC   C3B35675  12.695  14.735  16.696  0.1159  0.0376 -0.0595
 2951POPC   C4B35676  12.941  14.753  17.122  0.2077  0.4181  0.1186
 2952POPC   NC335677  28.273   4.544  14.623 -0.0459  0.3258  0.0755
 2952POPC   PO435678  28.002   4.289  14.674  0.0237  0.0947  0.0840
 2952POPC   GL135679  27.984   4.395  15.046 -0.0835 -0.2491 -0.2026
 2952POPC   GL235680  28.244   4.304  15.174  0.0129  0.1358  0.0713
 2952POPC   C1A35681  27.745   4.569  15.429 -0.0057  0.1434 -0.0958
 2952POPC   D2A35682  27.751   4.944  15.632 -0.2076 -0.0590 -0.0781
 2952POPC   C3A35683  28.155   5.126  15.873  0.1086 -0.1062  0.0417
 2952POPC   C4A35684  28.560   5.217  15.898  0.1437 -0.1338 -0.0243
 2952POPC   C1B35685  28.166   4.787  15.260  0.4931 -0.1904 -0.0509
 2952POPC   C2B35686  28.277   5.132  15.008 -0.1753  0.0756  0.1323
 2952POPC   C3B35687  28.334   5.464  14.699 -0.0552  0.0605  0.2561
 2952POPC   C4B35688  28.433   5.910  14.548  0.1748 -0.1938  0.0517
 2953POPC   NC335689  30.676  20.407  15.358 -0.0670 -0.0181  0.3552
 2953POPC   PO435690  30.353  20.541  15.251 -0.0856  0.0007 -0.1733
 2953POPC   GL135691  30.143  20.577  15.521 -0.1374 -0.1309 -0.0969
 2953POPC   GL235692  30.405  20.647  15.758  0.1219 -0.0761 -0.1623
 2953POPC   C1A35693  29.945  20.766  15.917  0.1223  0.0056 -0.1047
 2953POPC   D2A35694  29.601  20.839  16.208  0.1550 -0.1933  0.3004
 2953POPC   C3A35695  29.371  21.116  16.518 -0.1108 -0.1640  0.1769
 2953POPC   C4A35696  29.250  21.389  16.905 -0.3856  0.0978 -0.3606
 2953POPC   C1B35697  30.190  20.321  15.981  0.0603  0.1532 -0.0802
 2953POPC   C2B35698  30.076  20.298  16.428  0.0520 -0.1130 -0.1153
 2953POPC   C3B35699  29.849  20.271  16.806  0.0907  0.3408  0.1304
 2953POPC   C4B35700  29.484  20.331  17.066  0.0419  0.0656  0.1842
 2954POPC   NC335701  21.883   7.680  15.554  0.5491  0.0571  0.1411
 2954POPC   PO435702  21.683   8.033  15.510  0.0315 -0.0660 -0.0050
 2954POPC   GL135703  21.823   8.028  15.869  0.0203  0.3281 -0.1116
 2954POPC   GL235704  22.126   8.080  15.966  0.0367  0.2848 -0.0494
 2954POPC   C1A35705  21.773   8.326  16.199  0.2248  0.2908 -0.0842
 2954POPC   D2A35706  22.061   8.495  16.520  0.0537  0.0674 -0.1951
 2954POPC   C3A35707  22.232   8.338  16.909  0.1126  0.0947 -0.2703
 2954POPC   C4A35708  22.362   8.311  17.361  0.0315  0.0306  0.2070
 2954POPC   C1B35709  22.319   7.853  16.328  0.1575  0.2281  0.1945
 2954POPC   C2B35710  22.552   7.737  16.718 -0.0326  0.0098 -0.1019
 2954POPC   C3B35711  22.568   7.659  17.161 -0.3047 -0.1933  0.2338
 2954POPC   C4B35712  22.432   7.794  17.626 -0.2908 -0.0169 -0.0185
 2955POPC   NC335713   1.573   3.165  14.883  0.1852  0.1612 -0.2876
 2955POPC   PO435714   1.213   3.181  14.995 -0.0938  0.2364  0.0284
 2955POPC   GL135715   1.216   3.152  15.345  0.1123  0.0485  0.1368
 2955POPC   GL235716   0.939   3.039  15.476  0.0041  0.0136  0.2819
 2955POPC   C1A35717   1.219   3.424  15.709  0.0231 -0.1122  0.1112
 2955POPC   D2A35718   1.270   3.711  16.100  0.2542  0.1704  0.1266
 2955POPC   C3A35719   1.244   3.590  16.571 -0.2287  0.2684 -0.0101
 2955POPC   C4A35720   0.974   3.762  16.878  0.1245 -0.2563 -0.0136
 2955POPC   C1B35721   0.949   2.716  15.863  0.2258 -0.0004 -0.0094
 2955POPC   C2B35722   1.337   2.606  16.109 -0.0630 -0.2283  0.0510
 2955POPC   C3B35723   1.269   2.467  16.525 -0.1390 -0.2132 -0.1692
 2955POPC   C4B35724   1.236   2.003  16.573 -0.1179  0.2280  0.0510
 2956POPC   NC335725   4.703  21.314  15.895  0.1299 -0.0828 -0.4217
 2956POPC   PO435726   4.989  21.119  15.673 -0.1180 -0.0758 -0.0430
 2956POPC   GL135727   4.964  20.877  15.931 -0.0007  0.0851 -0.4240
 2956POPC   GL235728   4.637  20.774  15.944  0.1698  0.0510  0.1151
 2956POPC   C1A35729   4.858  20.855  16.374 -0.1551  0.3905 -0.0626
 2956POPC   D2A35730   4.860  20.513  16.741 -0.0335 -0.1977  0.0530
 2956POPC   C3A35731   4.951  20.817  17.068 -0.0340  0.1411  0.3313
 2956POPC   C4A35732   5.206  20.991  17.369  0.0025 -0.1211 -0.0940
 2956POPC   C1B35733   4.378  21.018  16.267 -0.3159 -0.0376 -0.5165
 2956POPC   C2B35734   4.059  20.893  16.504 -0.2253  0.1963 -0.0239
 2956POPC   C3B35735   3.858  20.675  16.875  0.0101  0.0829 -0.0233
 2956POPC   C4B35736   3.723  20.387  17.189  0.0550 -0.0148  0.0599
 2957POPC   NC335737  19.550   3.746  14.883 -0.2644  0.2165 -0.0578
 2957POPC   PO435738  19.165   3.686  14.931 -0.2770 -0.1244 -0.2634
 2957POPC   GL135739  19.308   3.649  15.284 -0.2542 -0.0073  0.0830
 2957POPC   GL235740  19.155   3.344  15.283  0.0891  0.1084  0.0992
 2957POPC   C1A35741  19.412   3.807  15.705  0.1502 -0.3142  0.4186
 2957POPC   D2A35742  19.338   3.910  16.146  0.0154  0.0012 -0.0509
 2957POPC   C3A35743  19.419   3.934  16.590 -0.0094  0.2752  0.1007
 2957POPC   C4A35744  19.602   3.730  16.967 -0.0387  0.0012  0.1797
 2957POPC   C1B35745  19.324   3.286  15.721  0.1488 -0.3672  0.0726
 2957POPC   C2B35746  19.202   3.316  16.164 -0.1075 -0.0621  0.2610
 2957POPC   C3B35747  18.941   3.136  16.471  0.0187 -0.1356  0.0071
 2957POPC   C4B35748  18.671   2.817  16.294 -0.1100 -0.0822  0.0570
 2958POPC   NC335749   6.619   4.223  14.890 -0.2479 -0.2768 -0.2627
 2958POPC   PO435750   6.913   3.991  14.950 -0.2535 -0.0373 -0.0137
 2958POPC   GL135751   6.749   4.105  15.378  0.0184  0.0973  0.0783
 2958POPC   GL235752   6.453   4.164  15.460 -0.1691  0.0371 -0.1227
 2958POPC   C1A35753   6.878   4.374  15.732  0.2649  0.2440  0.0013
 2958POPC   D2A35754   7.046   4.677  16.007 -0.1170  0.1950 -0.0949
 2958POPC   C3A35755   6.697   4.671  16.313  0.4317 -0.1167  0.2153
 2958POPC   C4A35756   6.459   4.551  16.745  0.1176 -0.1268  0.0657
 2958POPC   C1B35757   6.402   4.247  15.907 -0.1059 -0.1298 -0.0864
 2958POPC   C2B35758   6.316   4.298  16.378 -0.0296  0.1960  0.2999
 2958POPC   C3B35759   6.164   4.127  16.828  0.1143  0.2036 -0.0578
 2958POPC   C4B35760   6.172   3.833  17.174  0.0596  0.0875 -0.1353
 2959POPC   NC335761  25.469  25.460  15.645  0.1366 -0.1719  0.1594
 2959POPC   PO435762  25.865  25.470  15.547  0.3331 -0.2037  0.0745
 2959POPC   GL135763  25.765  25.176  15.891 -0.0709 -0.2425  0.0727
 2959POPC   GL235764  25.504  25.117  15.962 -0.1093 -0.1688  0.1070
 2959POPC   C1A35765  26.081  25.047  16.231  0.3023 -0.3394  0.1198
 2959POPC   D2A35766  26.082  25.103  16.645 -0.1368 -0.0990  0.2526
 2959POPC   C3A35767  26.480  25.257  16.841  0.0652  0.0794 -0.0028
 2959POPC   C4A35768  26.736  25.518  17.083  0.2104  0.2206 -0.1541
 2959POPC   C1B35769  25.728  25.370  16.305 -0.0696  0.1478  0.0428
 2959POPC   C2B35770  25.895  25.548  16.662  0.1273 -0.0428  0.5425
 2959POPC   C3B35771  26.190  25.728  16.969 -0.2203  0.1944 -0.0090
 2959POPC   C4B35772  26.126  25.918  17.390  0.1339 -0.1897  0.1733
 2960POPC   NC335773  29.315   3.055  15.844  0.3069 -0.0137  0.2244
 2960POPC   PO435774  29.444   3.327  15.571 -0.1339  0.2405  0.0803
 2960POPC   GL135775  29.778   3.527  15.869  0.1272 -0.4039 -0.2806
 2960POPC   GL235776  29.821   3.752  15.702  0.0590 -0.0920 -0.2504
 2960POPC   C1A35777  29.546   3.668  16.251  0.2186 -0.4238 -0.0955
 2960POPC   D2A35778  29.535   3.744  16.728 -0.3008 -0.0191  0.3841
 2960POPC   C3A35779  29.518   3.431  17.085 -0.3179  0.2100  0.1316
 2960POPC   C4A35780  29.295   3.041  17.183  0.3921 -0.2930 -0.2264
 2960POPC   C1B35781  29.636   4.082  15.953 -0.0534  0.3216  0.1827
 2960POPC   C2B35782  29.547   4.292  16.366 -0.1353  0.0320  0.1857
 2960POPC   C3B35783  29.297   4.292  16.702 -0.0276 -0.1249  0.3501
 2960POPC   C4B35784  29.034   4.359  17.108  0.0255  0.2132  0.0254
 2961POPC   NC335785   0.495  14.986  15.422 -0.0978 -0.0659  0.0578
 2961POPC   PO435786   0.406  14.666  15.575  0.3761  0.0860 -0.0156
 2961POPC   GL135787   0.476  14.681  15.912 -0.0009  0.2081  0.3134
 2961POPC   GL235788   0.548  14.415  16.039  0.2756 -0.0128  0.0063
 2961POPC   C1A35789   0.479  14.856  16.292  0.3325  0.3633 -0.1342
 2961POPC   D2A35790   0.500  15.004  16.779 -0.1680 -0.1989 -0.1946
 2961POPC   C3A35791   0.632  15.169  17.191  0.0183  0.0091  0.1234
 2961POPC   C4A35792   0.546  15.320  17.571 -0.3888  0.4273 -0.1258
 2961POPC   C1B35793   0.611  14.402  16.479  0.0880 -0.0512 -0.3348
 2961POPC   C2B35794   0.622  14.465  16.922  0.1617  0.0821 -0.1167
 2961POPC   C3B35795   0.500  14.300  17.320 -0.1708 -0.1081  0.0902
 2961POPC   C4B35796   0.699  14.055  17.657  0.4025  0.0095  0.1033
 2962POPC   NC335797   9.946  31.346  15.723 -0.2199  0.0984  0.2092
 2962POPC   PO435798  10.048  31.635  15.508 -0.3103 -0.0780  0.1251
 2962POPC   GL135799  10.347  31.905  15.730  0.2014 -0.0128 -0.0006
 2962POPC   GL235800  10.104  32.093  15.738 -0.0938  0.2245  0.0866
 2962POPC   C1A35801  10.432  32.228  16.076  0.1546 -0.0530  0.0077
 2962POPC   D2A35802  10.328  32.150  16.538 -0.1809 -0.0979  0.0310
 2962POPC   C3A35803  10.437  32.342  16.940 -0.0136  0.2023 -0.0953
 2962POPC   C4A35804  10.848  32.426  17.103 -0.1169 -0.0271  0.0568
 2962POPC   C1B35805   9.904  32.492  15.984 -0.1588  0.2301  0.1718
 2962POPC   C2B35806   9.880  32.545  16.425 -0.4218 -0.0793 -0.2708
 2962POPC   C3B35807   9.949  32.427  16.851  0.1031 -0.2361 -0.0500
 2962POPC   C4B35808   9.879  32.477  17.320 -0.0289  0.1938  0.3413
 2963POPC   NC335809  10.155  29.386  15.328  0.1276 -0.0844 -0.0980
 2963POPC   PO435810  10.315  29.675  15.130 -0.2263  0.0358 -0.0900
 2963POPC   GL135811  10.471  29.750  15.514  0.1524  0.3496  0.1564
 2963POPC   GL235812  10.340  30.041  15.548 -0.0811  0.3122 -0.1819
 2963POPC   C1A35813  10.214  29.682  15.888 -0.2348 -0.2470 -0.0614
 2963POPC   D2A35814  10.234  29.834  16.331 -0.3947 -0.0235 -0.1969
 2963POPC   C3A35815   9.832  29.785  16.553  0.1459 -0.0261  0.0737
 2963POPC   C4A35816   9.455  29.628  16.325  0.0382 -0.0195 -0.0476
 2963POPC   C1B35817  10.643  29.912  15.948  0.1595 -0.2438  0.3951
 2963POPC   C2B35818  10.694  30.032  16.392 -0.0082 -0.1645 -0.1560
 2963POPC   C3B35819  10.476  30.016  16.780  0.0548 -0.1860  0.1362
 2963POPC   C4B35820  10.258  30.218  17.118 -0.1772 -0.0353  0.0453
 2964POPC   NC335821  14.127  27.662  15.227 -0.0481  0.6702 -0.0090
 2964POPC   PO435822  14.414  27.709  15.406  0.0028 -0.2388 -0.1358
 2964POPC   GL135823  14.333  27.626  15.814  0.0335 -0.0974 -0.0768
 2964POPC   GL235824  14.163  27.437  15.872  0.1107  0.0144  0.0260
 2964POPC   C1A35825  14.155  27.830  16.165  0.3780 -0.0066 -0.0623
 2964POPC   D2A35826  13.915  27.715  16.546  0.2367 -0.0666  0.0523
 2964POPC   C3A35827  13.993  27.358  16.874  0.2180  0.1921  0.0333
 2964POPC   C4A35828  13.999  27.083  17.257 -0.0179  0.0625 -0.1197
 2964POPC   C1B35829  14.084  27.188  16.288 -0.2438  0.3449  0.0004
 2964POPC   C2B35830  14.072  26.874  16.623  0.0162 -0.0201  0.1949
 2964POPC   C3B35831  14.104  26.564  17.015  0.1549 -0.1654  0.0667
 2964POPC   C4B35832  14.281  26.265  17.300 -0.5285 -0.1922 -0.1657
 2965POPC   NC335833   7.079  28.986  15.453  0.3286 -0.3220  0.2958
 2965POPC   PO435834   6.884  29.136  15.157  0.0279  0.0505  0.2190
 2965POPC   GL135835   6.554  29.136  15.363  0.0030 -0.0627 -0.0684
 2965POPC   GL235836   6.711  29.384  15.547 -0.4710 -0.0465 -0.0576
 2965POPC   C1A35837   6.227  29.247  15.687 -0.2082  0.1089  0.0189
 2965POPC   D2A35838   6.025  29.048  16.074  0.0546  0.1155 -0.1689
 2965POPC   C3A35839   5.710  29.098  16.415  0.0600 -0.0763  0.0893
 2965POPC   C4A35840   5.510  29.035  16.781 -0.5341 -0.2373 -0.3768
 2965POPC   C1B35841   6.661  29.516  15.934 -0.0829 -0.2662  0.0090
 2965POPC   C2B35842   6.724  29.573  16.378 -0.0312 -0.3806  0.0947
 2965POPC   C3B35843   6.657  29.466  16.793  0.0031 -0.0625 -0.0872
 2965POPC   C4B35844   6.598  29.446  17.278  0.0158 -0.1055  0.2740
 2966POPC   NC335845  27.540  26.277  15.217 -0.2717  0.2847  0.0085
 2966POPC   PO435846  27.208  26.119  15.409 -0.0952 -0.1917 -0.0978
 2966POPC   GL135847  27.234  26.215  15.805 -0.2956 -0.0126  0.1048
 2966POPC   GL235848  27.384  26.442  15.941  0.0667  0.1257 -0.0860
 2966POPC   C1A35849  27.143  25.880  16.063 -0.2019 -0.1522  0.0748
 2966POPC   D2A35850  26.991  25.468  16.172 -0.1565 -0.2787 -0.1012
 2966POPC   C3A35851  27.086  25.353  16.628 -0.1003  0.2145 -0.0768
 2966POPC   C4A35852  27.322  25.434  17.031  0.0042 -0.1015 -0.0704
 2966POPC   C1B35853  27.648  26.549  16.270  0.1530 -0.1856 -0.1216
 2966POPC   C2B35854  27.671  26.629  16.707 -0.1149 -0.2350  0.1470
 2966POPC   C3B35855  27.852  26.452  17.115 -0.0808  0.0478 -0.1273
 2966POPC   C4B35856  27.950  26.168  17.479 -0.0815  0.1005  0.1418
 2967POPC   NC335857   4.666  27.387  14.822  0.0583 -0.0941 -0.0672
 2967POPC   PO435858   4.649  27.762  14.927  0.0574 -0.1077 -0.1625
 2967POPC   GL135859   4.795  27.835  15.257  0.1553  0.1519  0.1832
 2967POPC   GL235860   4.561  27.933  15.426  0.1615  0.0022  0.1966
 2967POPC   C1A35861   4.874  27.457  15.553  0.1657 -0.0657 -0.1435
 2967POPC   D2A35862   4.996  27.325  15.950  0.1123 -0.1562  0.2680
 2967POPC   C3A35863   5.098  27.452  16.393  0.0156 -0.2008 -0.1252
 2967POPC   C4A35864   4.995  27.200  16.751 -0.2775 -0.0081 -0.0196
 2967POPC   C1B35865   4.491  28.171  15.834  0.1368 -0.0685  0.0692
 2967POPC   C2B35866   4.398  28.390  16.255  0.1433  0.1709 -0.0237
 2967POPC   C3B35867   4.412  28.484  16.740 -0.0939  0.0019  0.1894
 2967POPC   C4B35868   4.450  28.799  17.073  0.1772 -0.0615 -0.0465
 2968POPC   NC335869   4.516  17.200  14.885  0.2324 -0.1416 -0.2086
 2968POPC   PO435870   4.629  17.310  15.249 -0.1759 -0.0012 -0.1702
 2968POPC   GL135871   4.630  17.563  15.528 -0.1257 -0.0964  0.4953
 2968POPC   GL235872   4.784  17.796  15.496  0.1350 -0.1787  0.2095
 2968POPC   C1A35873   4.261  17.796  15.696 -0.1486 -0.2985 -0.0324
 2968POPC   D2A35874   3.796  17.813  15.603  0.0766 -0.1512 -0.0750
 2968POPC   C3A35875   3.641  17.788  16.056  0.1623  0.1347  0.1964
 2968POPC   C4A35876   3.726  17.794  16.518 -0.0826  0.0808  0.2779
 2968POPC   C1B35877   4.847  17.706  15.951  0.0348  0.0302  0.4529
 2968POPC   C2B35878   4.623  17.742  16.366 -0.1117  0.3391  0.2832
 2968POPC   C3B35879   4.353  17.538  16.720  0.3870 -0.1505  0.2983
 2968POPC   C4B35880   4.223  17.101  16.653  0.0524  0.0532 -0.0701
 2969POPC   NC335881  14.485  17.803  15.279 -0.0083 -0.1888 -0.3097
 2969POPC   PO435882  14.729  18.114  15.325  0.2619 -0.2261  0.1512
 2969POPC   GL135883  14.450  18.203  15.521  0.2266  0.2925 -0.1093
 2969POPC   GL235884  14.264  18.363  15.542  0.1260 -0.0699  0.0314
 2969POPC   C1A35885  14.457  18.085  15.962 -0.0908 -0.0539  0.1503
 2969POPC   D2A35886  14.624  17.953  16.370 -0.0015  0.0672 -0.3217
 2969POPC   C3A35887  14.237  17.998  16.658  0.1706 -0.1195  0.1200
 2969POPC   C4A35888  14.108  17.926  17.140  0.0314  0.1245  0.1452
 2969POPC   C1B35889  13.992  18.532  15.903  0.2519 -0.0330  0.3445
 2969POPC   C2B35890  13.646  18.574  16.189  0.1251 -0.0229  0.1788
 2969POPC   C3B35891  13.284  18.670  16.462  0.2312  0.0952  0.2527
 2969POPC   C4B35892  12.943  18.926  16.293  0.3268  0.3538  0.1130
 2970POPC   NC335893  20.808  27.832  14.801  0.1048 -0.0084  0.2190
 2970POPC   PO435894  20.448  27.689  14.906 -0.0050  0.1528 -0.0995
 2970POPC   GL135895  20.722  27.602  15.269 -0.0947  0.0127 -0.1214
 2970POPC   GL235896  20.479  27.507  15.406  0.1011  0.1461  0.2775
 2970POPC   C1A35897  20.838  27.506  15.708 -0.0897  0.2434 -0.0583
 2970POPC   D2A35898  20.864  27.330  16.129  0.2695  0.0265 -0.0582
 2970POPC   C3A35899  21.170  27.196  16.435  0.1710 -0.0926  0.0410
 2970POPC   C4A35900  21.285  26.861  16.739  0.1398  0.0291 -0.5614
 2970POPC   C1B35901  20.245  27.457  15.857  0.1174 -0.2588  0.0478
 2970POPC   C2B35902  20.001  27.246  16.282 -0.3525 -0.0864 -0.0919
 2970POPC   C3B35903  20.057  27.214  16.723 -0.2848 -0.3623  0.0298
 2970POPC   C4B35904  19.835  26.977  16.953 -0.2662  0.0027 -0.2019
 2971POPC   NC335905  24.468   4.904  14.675 -0.1972 -0.1423 -0.2342
 2971POPC   PO435906  24.377   5.281  14.627 -0.0856  0.0486 -0.1132
 2971POPC   GL135907  24.405   5.230  15.027  0.0981 -0.3595 -0.5587
 2971POPC   GL235908  24.487   4.980  15.173  0.0296  0.2521 -0.1608
 2971POPC   C1A35909  24.075   5.239  15.346  0.0750 -0.2290 -0.0956
 2971POPC   D2A35910  23.833   4.968  15.683 -0.0421 -0.1757 -0.2442
 2971POPC   C3A35911  23.391   4.891  15.557  0.0095 -0.1925 -0.3461
 2971POPC   C4A35912  23.081   4.567  15.560 -0.0516 -0.0688  0.0603
 2971POPC   C1B35913  24.395   5.056  15.651  0.0939 -0.3080  0.0446
 2971POPC   C2B35914  24.455   5.073  16.101  0.0584  0.1633 -0.0119
 2971POPC   C3B35915  24.397   5.122  16.521 -0.1929  0.1087  0.0586
 2971POPC   C4B35916  24.318   5.342  16.917  0.2551 -0.2697  0.0260
 2972POPC   NC335917   8.387  25.266  14.744 -0.1631 -0.2452 -0.2510
 2972POPC   PO435918   8.390  25.559  14.487 -0.4365 -0.0289  0.1854
 2972POPC   GL135919   8.280  25.719  14.780  0.0582  0.0257  0.2743
 2972POPC   GL235920   8.013  25.633  14.820 -0.0180  0.0961  0.0657
 2972POPC   C1A35921   8.142  25.978  15.182 -0.0442  0.0608  0.0013
 2972POPC   D2A35922   8.141  26.229  15.585 -0.0183  0.0595 -0.1844
 2972POPC   C3A35923   8.602  26.185  15.751 -0.2528 -0.0065  0.2959
 2972POPC   C4A35924   8.973  26.100  15.960 -0.2803  0.0386 -0.2794
 2972POPC   C1B35925   7.913  25.439  15.235  0.0981 -0.1123  0.1031
 2972POPC   C2B35926   7.695  25.589  15.659 -0.0149  0.0718 -0.0131
 2972POPC   C3B35927   7.476  25.691  16.005 -0.3928  0.1026  0.1879
 2972POPC   C4B35928   7.299  25.604  16.407 -0.1954  0.2586  0.2485
 2973POPC   NC335929  23.419  25.989  14.833  0.3542 -0.0716  0.2349
 2973POPC   PO435930  23.357  25.867  15.168 -0.0251  0.1649 -0.0598
 2973POPC   GL135931  23.015  25.823  15.468  0.2029 -0.1796 -0.0440
 2973POPC   GL235932  23.076  25.588  15.566  0.1358  0.3745  0.1142
 2973POPC   C1A35933  23.177  25.979  15.864 -0.1635  0.1764  0.0227
 2973POPC   D2A35934  23.526  25.795  16.114  0.0594  0.3299  0.1375
 2973POPC   C3A35935  23.513  25.865  16.543  0.3661  0.0754  0.1639
 2973POPC   C4A35936  23.152  25.813  16.830 -0.1636  0.1403  0.3427
 2973POPC   C1B35937  23.161  25.405  15.967 -0.0539  0.1352 -0.0008
 2973POPC   C2B35938  23.243  25.397  16.432  0.1809  0.1820 -0.4546
 2973POPC   C3B35939  23.433  25.340  16.903 -0.1419 -0.1847 -0.0668
 2973POPC   C4B35940  23.469  25.106  17.308 -0.0531  0.0291 -0.4025
 2974POPC   NC335941  31.265  26.761  15.432 -0.3575  0.0908 -0.1052
 2974POPC   PO435942  31.397  27.145  15.335  0.2137  0.0689 -0.3892
 2974POPC   GL135943  31.351  26.978  15.822 -0.0329 -0.0661 -0.2117
 2974POPC   GL235944  31.044  26.915  15.874 -0.0398  0.2478 -0.2379
 2974POPC   C1A35945  31.503  27.165  16.238  0.3714 -0.0040 -0.3105
 2974POPC   D2A35946  31.427  27.268  16.728 -0.1900 -0.0971  0.0306
 2974POPC   C3A35947  31.798  27.185  17.040 -0.0728 -0.1845  0.2733
 2974POPC   C4A35948  32.094  26.867  17.066  0.1733 -0.1292 -0.0267
 2974POPC   C1B35949  30.777  26.715  16.171 -0.3279  0.0636 -0.1601
 2974POPC   C2B35950  30.668  26.346  16.422  0.1918 -0.0476  0.1302
 2974POPC   C3B35951  30.454  26.093  16.742 -0.1185 -0.2209 -0.1643
 2974POPC   C4B35952  30.147  25.819  16.741 -0.3209  0.0885  0.3981
 2975POPC   NC335953  20.421   7.677  15.553  0.1098  0.0508 -0.0848
 2975POPC   PO435954  20.585   8.003  15.479 -0.1201 -0.2260  0.1003
 2975POPC   GL135955  20.459   7.964  15.929 -0.2383 -0.2439  0.2489
 2975POPC   GL235956  20.203   7.969  15.887 -0.0330 -0.2936  0.3081
 2975POPC   C1A35957  20.773   7.988  16.264  0.1297  0.0968 -0.1066
 2975POPC   D2A35958  20.659   7.869  16.691  0.0899  0.1695 -0.2168
 2975POPC   C3A35959  20.385   7.931  17.077 -0.3877 -0.0218 -0.4388
 2975POPC   C4A35960  20.064   7.813  17.414 -0.0932 -0.2852 -0.2416
 2975POPC   C1B35961  20.196   7.806  16.322  0.0226  0.1673 -0.0161
 2975POPC   C2B35962  20.200   7.635  16.716 -0.1928 -0.2525  0.0684
 2975POPC   C3B35963  20.163   7.388  17.127 -0.2314 -0.1708  0.0111
 2975POPC   C4B35964  20.421   7.102  17.411 -0.0773 -0.0320  0.4885
 2976POPC   NC335965  13.958  23.941  14.786 -0.1303  0.4296  0.0056
 2976POPC   PO435966  13.913  24.312  14.933 -0.2459  0.2605 -0.0518
 2976POPC   GL135967  13.780  24.361  15.330  0.2188 -0.1527  0.1304
 2976POPC   GL235968  13.585  24.543  15.408  0.0358  0.3565 -0.0473
 2976POPC   C1A35969  14.039  24.413  15.719  0.1115  0.2684 -0.1751
 2976POPC   D2A35970  14.334  24.627  16.020  0.1191  0.2598 -0.0104
 2976POPC   C3A35971  14.194  24.643  16.471 -0.3418  0.0617  0.1139
 2976POPC   C4A35972  13.928  24.953  16.609 -0.1854  0.1028  0.1086
 2976POPC   C1B35973  13.336  24.552  15.772  0.0945 -0.0925  0.0727
 2976POPC   C2B35974  13.325  24.594  16.239 -0.3273 -0.0545 -0.0648
 2976POPC   C3B35975  13.342  24.762  16.686 -0.0547  0.2550  0.1052
 2976POPC   C4B35976  13.289  24.936  17.100 -0.0396  0.0979  0.1699
 2977POPC   NC335977  14.586  18.241  14.545 -0.1550  0.0914 -0.1591
 2977POPC   PO435978  14.495  18.013  14.854  0.1228 -0.1445  0.1366
 2977POPC   GL135979  14.144  18.014  15.071 -0.2043 -0.2695  0.3576
 2977POPC   GL235980  14.038  18.311  15.095 -0.1651 -0.0924 -0.2034
 2977POPC   C1A35981  13.906  17.915  15.470 -0.1159 -0.1938 -0.2203
 2977POPC   D2A35982  13.450  17.813  15.544 -0.3152 -0.1441  0.4322
 2977POPC   C3A35983  13.145  17.928  15.848  0.0186 -0.2516  0.0596
 2977POPC   C4A35984  12.764  17.863  16.143 -0.1616 -0.0031 -0.0702
 2977POPC   C1B35985  13.741  18.430  15.512  0.0849 -0.3879  0.0451
 2977POPC   C2B35986  13.360  18.439  15.776 -0.1861  0.3057 -0.0226
 2977POPC   C3B35987  12.954  18.376  15.956  0.1680  0.0564  0.0846
 2977POPC   C4B35988  12.894  18.281  16.394  0.0916  0.1476 -0.2272
 2978POPC   NC335989  19.640   2.877  14.930  0.1342  0.0285  0.0620
 2978POPC   PO435990  19.587   2.823  15.326 -0.0530  0.1845 -0.1033
 2978POPC   GL135991  19.621   2.762  15.627  0.0392  0.1123  0.0640
 2978POPC   GL235992  19.856   2.591  15.750 -0.2063  0.2415 -0.2663
 2978POPC   C1A35993  19.597   2.984  16.066  0.2173 -0.1763  0.0330
 2978POPC   D2A35994  19.532   3.108  16.483 -0.0310 -0.0414  0.1133
 2978POPC   C3A35995  19.708   2.754  16.733 -0.0654  0.1854  0.2660
 2978POPC   C4A35996  19.869   2.583  17.072 -0.0714 -0.2588 -0.2672
 2978POPC   C1B35997  19.957   2.623  16.231  0.3109  0.0580  0.2236
 2978POPC   C2B35998  20.110   2.538  16.636 -0.2328 -0.0021  0.0735
 2978POPC   C3B35999  20.299   2.816  16.872 -0.1380 -0.3199 -0.0477
 2978POPC   C4B36000  20.350   3.162  17.111  0.4577  0.2362  0.0499
 2979POPC   NC336001   5.736   5.082  14.789 -0.1847  0.0835  0.0438
 2979POPC   PO436002   5.961   4.819  14.910 -0.0444  0.0779  0.0233
 2979POPC   GL136003   5.845   5.051  15.245  0.0175  0.1177  0.2475
 2979POPC   GL236004   5.706   4.975  15.502  0.0321 -0.1083 -0.0735
 2979POPC   C1A36005   6.154   5.096  15.602 -0.1346  0.1442  0.1075
 2979POPC   D2A36006   6.323   5.283  16.002  0.1232  0.2077 -0.2761
 2979POPC   C3A36007   6.327   5.012  16.348 -0.1758 -0.2645 -0.0987
 2979POPC   C4A36008   6.629   5.039  16.710  0.0298 -0.0721  0.2295
 2979POPC   C1B36009   5.834   5.136  15.958  0.0743  0.0555 -0.1741
 2979POPC   C2B36010   5.810   4.937  16.364  0.2416  0.0734  0.0046
 2979POPC   C3B36011   5.551   4.928  16.763 -0.0507  0.2636 -0.1249
 2979POPC   C4B36012   5.099   4.755  16.935 -0.2462 -0.1047  0.0150
 2980POPC   NC336013  10.167  23.201  15.243 -0.1002 -0.3409  0.1960
 2980POPC   PO436014  10.106  22.863  15.036 -0.0252  0.0764  0.1310
 2980POPC   GL136015  10.169  22.711  15.474 -0.5376  0.2223 -0.1848
 2980POPC   GL236016   9.905  22.762  15.666 -0.2848  0.0384  0.1170
 2980POPC   C1A36017  10.379  23.061  15.779  0.1092  0.0973  0.2643
 2980POPC   D2A36018  10.684  23.343  15.983 -0.1451  0.0186 -0.1194
 2980POPC   C3A36019  11.150  23.372  16.009 -0.0396 -0.1967 -0.0391
 2980POPC   C4A36020  11.470  23.662  15.739 -0.1074  0.0775  0.5695
 2980POPC   C1B36021  10.155  22.644  16.029  0.1911 -0.4070  0.0382
 2980POPC   C2B36022  10.031  22.413  16.370 -0.2071 -0.1658 -0.1938
 2980POPC   C3B36023  10.142  22.641  16.788 -0.0069 -0.1735  0.0988
 2980POPC   C4B36024  10.225  22.767  17.226 -0.2395  0.1138 -0.2807
 2981POPC   NC336025  31.627  20.274  15.493 -0.0758 -0.0524  0.0307
 2981POPC   PO436026  31.866  19.988  15.348  0.0110  0.0909 -0.1398
 2981POPC   GL136027  32.000  20.032  15.703 -0.1146 -0.0867 -0.2232
 2981POPC   GL236028  31.860  19.867  15.876  0.2513 -0.3327 -0.1437
 2981POPC   C1A36029  31.932  20.361  16.024  0.2428  0.1290  0.1164
 2981POPC   D2A36030  31.923  20.781  16.102  0.1836 -0.0240  0.1714
 2981POPC   C3A36031  31.950  20.882  16.552  0.1838  0.0936  0.0370
 2981POPC   C4A36032  31.903  20.643  16.917 -0.1639 -0.2357 -0.1989
 2981POPC   C1B36033  31.781  19.969  16.342 -0.0458 -0.0174 -0.2993
 2981POPC   C2B36034  31.454  19.867  16.722 -0.0870 -0.1967  0.2849
 2981POPC   C3B36035  31.465  19.500  16.967 -0.0099 -0.1080  0.0671
 2981POPC   C4B36036  31.616  19.405  17.358 -0.0189  0.3267 -0.1924
 2982POPC   NC336037   4.575  18.043  14.800 -0.1562  0.0206 -0.1672
 2982POPC   PO436038   4.732  17.774  14.997 -0.0238  0.0691  0.0642
 2982POPC   GL136039   4.397  17.623  15.015 -0.0305  0.0655 -0.1104
 2982POPC   GL236040   4.304  17.627  14.752  0.2379  0.0829  0.1543
 2982POPC   C1A36041   3.939  17.646  15.083  0.2746 -0.0600 -0.1812
 2982POPC   D2A36042   3.626  17.719  14.779 -0.4028 -0.3535  0.1274
 2982POPC   C3A36043   3.320  17.350  14.766  0.0798  0.0042 -0.2637
 2982POPC   C4A36044   3.289  16.881  14.833  0.1173  0.2072  0.0376
 2982POPC   C1B36045   4.027  17.279  14.707  0.2879  0.2042 -0.2254
 2982POPC   C2B36046   3.649  17.016  14.480  0.2989 -0.0877 -0.1744
 2982POPC   C3B36047   3.212  17.105  14.280  0.0890 -0.0135 -0.0790
 2982POPC   C4B36048   2.816  17.301  14.123 -0.1558  0.1235 -0.1367
 2983POPC   NC336049  31.041  21.994  15.287 -0.1192  0.0245 -0.1104
 2983POPC   PO436050  31.406  22.036  15.257 -0.2271 -0.1523 -0.1969
 2983POPC   GL136051  31.487  21.854  15.603  0.0463  0.2658 -0.2309
 2983POPC   GL236052  31.237  21.684  15.605  0.0972 -0.2995  0.0430
 2983POPC   C1A36053  31.882  21.730  15.937  0.1425  0.0084 -0.0507
 2983POPC   D2A36054  32.097  21.673  16.328  0.1267 -0.2330  0.0716
 2983POPC   C3A36055  32.344  22.021  16.381 -0.2271  0.1408 -0.4680
 2983POPC   C4A36056  32.665  22.194  16.678 -0.0597 -0.0651  0.0297
 2983POPC   C1B36057  31.323  21.679  16.088 -0.2384 -0.4004 -0.0653
 2983POPC   C2B36058  31.392  21.700  16.525 -0.2685  0.2723 -0.1819
 2983POPC   C3B36059  31.271  21.468  16.891  0.3428  0.2553  0.0086
 2983POPC   C4B36060  31.449  21.400  17.364  0.0318 -0.1154 -0.4186
 2984POPC   NC336061   8.042  31.056  15.081 -0.4848  0.2624 -0.0976
 2984POPC   PO436062   7.878  30.786  15.245  0.0887  0.2014 -0.0001
 2984POPC   GL136063   7.915  30.635  15.569  0.0383 -0.1595  0.3126
 2984POPC   GL236064   7.754  30.713  15.865 -0.2358  0.2035 -0.0110
 2984POPC   C1A36065   8.223  30.545  15.896 -0.0367  0.0624  0.0118
 2984POPC   D2A36066   8.416  30.621  16.309 -0.0352 -0.0374  0.4219
 2984POPC   C3A36067   8.420  30.452  16.742  0.0202 -0.1625  0.0491
 2984POPC   C4A36068   8.307  30.536  17.200 -0.1711 -0.3039  0.0646
 2984POPC   C1B36069   7.813  30.745  16.352 -0.1248  0.2614 -0.0703
 2984POPC   C2B36070   7.811  30.809  16.806  0.1593 -0.3064 -0.0733
 2984POPC   C3B36071   7.907  30.856  17.254  0.0844 -0.0373 -0.2446
 2984POPC   C4B36072   8.080  31.085  17.512 -0.0461 -0.2128  0.0485
 2985POPC   NC336073   9.231  29.563  14.908 -0.1352 -0.4227  0.3052
 2985POPC   PO436074   9.240  29.877  15.099  0.0098  0.0938  0.0066
 2985POPC   GL136075   9.450  29.912  15.434 -0.3556  0.1072  0.0248
 2985POPC   GL236076   9.467  30.172  15.647 -0.2903  0.1301  0.0438
 2985POPC   C1A36077   9.347  29.625  15.802 -0.3270 -0.0505  0.1749
 2985POPC   D2A36078   9.035  29.435  16.039  0.1146 -0.1276 -0.1272
 2985POPC   C3A36079   8.895  29.100  16.349 -0.3162  0.0786 -0.0986
 2985POPC   C4A36080   8.696  28.698  16.427 -0.3811 -0.0697 -0.1313
 2985POPC   C1B36081   9.408  30.108  16.105 -0.0814 -0.4766  0.2373
 2985POPC   C2B36082   9.163  30.015  16.496  0.0875  0.0413 -0.0495
 2985POPC   C3B36083   9.059  29.923  16.940 -0.1133 -0.2236 -0.1077
 2985POPC   C4B36084   9.012  29.961  17.426 -0.2135  0.0407  0.0546
 2986POPC   NC336085   9.688  13.563  15.742 -0.1429  0.0449  0.1271
 2986POPC   PO436086   9.422  13.630  15.459  0.2154 -0.1164  0.3919
 2986POPC   GL136087   9.237  13.592  15.720  0.0362 -0.1860  0.0053
 2986POPC   GL236088   9.184  13.362  15.810 -0.1142  0.1453 -0.2389
 2986POPC   C1A36089   9.307  13.814  16.126 -0.1224 -0.3537 -0.1259
 2986POPC   D2A36090   9.130  13.989  16.479 -0.1346 -0.2146 -0.0081
 2986POPC   C3A36091   8.846  13.885  16.799 -0.0215  0.0981  0.1008
 2986POPC   C4A36092   8.823  13.594  17.219  0.2134 -0.3045  0.0050
 2986POPC   C1B36093   8.913  13.512  16.147 -0.2080 -0.0908 -0.2371
 2986POPC   C2B36094   8.788  13.415  16.573  0.0033 -0.0783  0.0474
 2986POPC   C3B36095   8.624  13.179  16.942  0.0123 -0.2349 -0.0735
 2986POPC   C4B36096   8.382  13.159  17.308 -0.1323 -0.0929 -0.1168
 2987POPC   NC336097  17.462  27.128  15.328  0.0357  0.4466 -0.0476
 2987POPC   PO436098  17.702  27.421  15.400 -0.2242  0.1484  0.2316
 2987POPC   GL136099  17.879  27.440  15.799  0.1986  0.0221  0.1864
 2987POPC   GL236100  17.998  27.198  15.819  0.3165 -0.1631 -0.2173
 2987POPC   C1A36101  18.109  27.483  16.188  0.0504 -0.1315 -0.1422
 2987POPC   D2A36102  18.374  27.354  16.520 -0.0588 -0.0963  0.1988
 2987POPC   C3A36103  18.663  27.599  16.845  0.2708 -0.0015 -0.0697
 2987POPC   C4A36104  18.519  27.517  17.271 -0.2807  0.3526 -0.2765
 2987POPC   C1B36105  18.118  26.934  16.210 -0.3352  0.2387 -0.0477
 2987POPC   C2B36106  18.229  26.802  16.643  0.0343  0.3501  0.1107
 2987POPC   C3B36107  18.223  26.524  17.073  0.1182  0.3060 -0.1155
 2987POPC   C4B36108  18.135  26.439  17.527 -0.0140 -0.1575  0.0316
 2988POPC   NC336109   3.324  20.300  15.537 -0.3279  0.0731  0.1572
 2988POPC   PO436110   3.577  20.396  15.296  0.3909  0.1809  0.0214
 2988POPC   GL136111   3.662  20.574  15.640 -0.3001  0.0244 -0.1644
 2988POPC   GL236112   3.463  20.724  15.807 -0.0316  0.2901  0.1096
 2988POPC   C1A36113   3.725  20.453  16.121  0.0656  0.2232  0.0657
 2988POPC   D2A36114   3.793  20.261  16.522  0.1293 -0.0899  0.0064
 2988POPC   C3A36115   3.562  19.868  16.569 -0.0861 -0.2066 -0.1817
 2988POPC   C4A36116   3.110  19.854  16.518  0.5496 -0.0779 -0.1344
 2988POPC   C1B36117   3.207  20.814  16.187  0.2472  0.0538  0.0409
 2988POPC   C2B36118   2.944  20.733  16.515  0.1379 -0.2356 -0.1683
 2988POPC   C3B36119   3.027  20.757  16.959 -0.1995  0.1714 -0.2625
 2988POPC   C4B36120   2.968  20.506  17.360  0.0746  0.0209 -0.2036
 2989POPC   NC336121   5.183   0.092  15.093  0.1772 -0.5003  0.3047
 2989POPC   PO436122   5.503   0.069  15.289  0.1252 -0.1179 -0.3276
 2989POPC   GL136123   5.526  -0.145  15.627 -0.0729  0.0623  0.1534
 2989POPC   GL236124   5.244  -0.078  15.725 -0.3017 -0.2263  0.0598
 2989POPC   C1A36125   5.801  -0.340  15.911  0.0120  0.3452  0.1920
 2989POPC   D2A36126   5.883  -0.635  16.181 -0.1047  0.1704 -0.3649
 2989POPC   C3A36127   5.938  -0.535  16.656 -0.0203 -0.0699  0.0826
 2989POPC   C4A36128   5.579  -0.422  16.917 -0.3223 -0.0065  0.0771
 2989POPC   C1B36129   4.968  -0.091  16.109  0.1832  0.1837  0.0924
 2989POPC   C2B36130   5.008   0.004  16.574 -0.1857  0.2625  0.2956
 2989POPC   C3B36131   4.749  -0.051  16.918 -0.1099  0.0069  0.3261
 2989POPC   C4B36132   4.345  -0.003  17.181 -0.1428 -0.3323  0.1468
 2990POPC   NC336133  31.721  21.583  15.311 -0.2578  0.0759  0.2215
 2990POPC   PO436134  31.728  21.283  15.073 -0.1929  0.2035  0.1100
 2990POPC   GL136135  31.577  21.082  15.371  0.1669 -0.1766 -0.3133
 2990POPC   GL236136  31.286  21.138  15.440  0.1219 -0.1972 -0.0504
 2990POPC   C1A36137  31.579  21.287  15.791  0.0431  0.0665 -0.3401
 2990POPC   D2A36138  31.766  21.324  16.270  0.3523  0.2030  0.1870
 2990POPC   C3A36139  31.818  21.454  16.704 -0.0365 -0.0890 -0.3288
 2990POPC   C4A36140  32.061  21.710  16.968 -0.1129  0.0913  0.0694
 2990POPC   C1B36141  31.038  21.298  15.825 -0.1277  0.0780  0.1832
 2990POPC   C2B36142  30.960  21.375  16.262 -0.0568 -0.1900 -0.3597
 2990POPC   C3B36143  30.898  21.757  16.559 -0.0970  0.2351  0.0950
 2990POPC   C4B36144  30.663  21.860  16.977 -0.2106  0.0710 -0.2782
 2991POPC   NC336145   4.790   0.274  15.755  0.2943 -0.1567  0.0630
 2991POPC   PO436146   4.822   0.094  15.428  0.0757 -0.2562  0.0290
 2991POPC   GL136147   4.542  -0.161  15.653 -0.3001 -0.4041  0.3263
 2991POPC   GL236148   4.661  -0.381  15.491 -0.3514 -0.3898  0.1700
 2991POPC   C1A36149   4.475  -0.350  16.095  0.0390 -0.2975  0.0739
 2991POPC   D2A36150   4.559  -0.774  16.283  0.3625 -0.3246  0.0971
 2991POPC   C3A36151   4.397  -0.781  16.720 -0.0201  0.2032  0.1304
 2991POPC   C4A36152   4.553  -0.509  17.097  0.4245  0.0488  0.1432
 2991POPC   C1B36153   4.368  -0.700  15.629  0.0448  0.1147  0.0268
 2991POPC   C2B36154   4.140  -0.876  15.995 -0.2519 -0.0110 -0.1678
 2991POPC   C3B36155   3.999  -0.969  16.423  0.0842 -0.1781  0.0841
 2991POPC   C4B36156   3.950  -0.936  16.908 -0.0955  0.1905  0.2565
 2992POPC   NC336157   6.994  29.619  15.200  0.1445  0.0237  0.2868
 2992POPC   PO436158   6.934  29.971  15.139  0.2183 -0.0671 -0.2341
 2992POPC   GL136159   6.867  30.021  15.544 -0.3236 -0.2505 -0.2115
 2992POPC   GL236160   7.086  29.941  15.599 -0.2627 -0.1965  0.1624
 2992POPC   C1A36161   6.750  29.978  15.963 -0.0575  0.1770  0.3001
 2992POPC   D2A36162   6.835  30.067  16.415  0.0628  0.2449 -0.1807
 2992POPC   C3A36163   6.635  29.973  16.796 -0.0319  0.3957 -0.0684
 2992POPC   C4A36164   6.685  29.944  17.270  0.0038 -0.0082  0.2447
 2992POPC   C1B36165   7.255  30.120  15.954 -0.1531 -0.0473 -0.3399
 2992POPC   C2B36166   7.303  30.099  16.381 -0.4407 -0.0568  0.0788
 2992POPC   C3B36167   7.185  29.938  16.773  0.0671  0.2453  0.0756
 2992POPC   C4B36168   7.052  29.658  17.017 -0.4002  0.1601 -0.1612
 2993POPC   NC336169  27.846   9.095  14.909 -0.4329 -0.3231 -0.0433
 2993POPC   PO436170  28.186   9.327  14.853  0.0861  0.2001 -0.0000
 2993POPC   GL136171  28.261   9.002  15.140 -0.1190 -0.5335  0.3778
 2993POPC   GL236172  28.245   8.788  14.996  0.2194  0.0136  0.3591
 2993POPC   C1A36173  28.546   9.023  15.520 -0.0456  0.3035  0.1181
 2993POPC   D2A36174  28.408   9.193  15.921  0.0253 -0.0707 -0.0550
 2993POPC   C3A36175  28.721   9.010  16.261  0.3347  0.0195 -0.1121
 2993POPC   C4A36176  28.863   8.625  16.475  0.0497 -0.0273 -0.0127
 2993POPC   C1B36177  28.366   8.544  15.316 -0.0089 -0.1033 -0.1053
 2993POPC   C2B36178  28.689   8.530  15.677 -0.5248  0.0968  0.1191
 2993POPC   C3B36179  28.967   8.659  16.004 -0.0259 -0.0644  0.2104
 2993POPC   C4B36180  29.317   8.422  16.220  0.1968  0.0827  0.1610
 2994POPC   NC336181   8.954  22.452  15.652  0.2925 -0.1231  0.1725
 2994POPC   PO436182   9.114  22.105  15.502  0.1376 -0.1303 -0.0258
 2994POPC   GL136183   9.006  21.978  15.849  0.0535  0.0597 -0.1188
 2994POPC   GL236184   9.129  22.192  16.030  0.3213 -0.1721 -0.1960
 2994POPC   C1A36185   9.233  21.754  16.196  0.1060 -0.0403 -0.2346
 2994POPC   D2A36186   9.393  21.714  16.626  0.2092 -0.2906  0.3522
 2994POPC   C3A36187   9.389  22.093  16.888  0.2483  0.2696 -0.1381
 2994POPC   C4A36188   9.740  22.349  17.162  0.0052 -0.0690  0.0194
 2994POPC   C1B36189   9.298  22.414  16.446  0.1590  0.2121 -0.0143
 2994POPC   C2B36190   9.559  22.543  16.729 -0.0519  0.1286  0.2517
 2994POPC   C3B36191   9.723  22.855  17.025 -0.0580  0.2648 -0.0834
 2994POPC   C4B36192   9.737  23.233  17.266 -0.0081 -0.1504 -0.3429
 2995POPC   NC336193   9.681  28.474  15.302 -0.2278 -0.2192 -0.0856
 2995POPC   PO436194   9.959  28.362  15.499  0.0851 -0.5179 -0.1643
 2995POPC   GL136195  10.153  28.255  15.745 -0.0277 -0.2111  0.0278
 2995POPC   GL236196   9.899  28.107  15.944  0.1259  0.1013 -0.2360
 2995POPC   C1A36197  10.227  28.467  16.130  0.0571 -0.0225 -0.0388
 2995POPC   D2A36198  10.281  28.718  16.502 -0.1375 -0.0616 -0.0512
 2995POPC   C3A36199  10.484  29.056  16.678  0.0399  0.0287 -0.1234
 2995POPC   C4A36200  10.923  29.197  16.693  0.1840 -0.0762  0.2588
 2995POPC   C1B36201   9.851  27.795  16.284  0.0192 -0.0292  0.0172
 2995POPC   C2B36202  10.064  27.777  16.732 -0.0671 -0.0924  0.0676
 2995POPC   C3B36203  10.209  27.640  17.162  0.0824 -0.2412  0.1048
 2995POPC   C4B36204   9.899  27.365  17.414  0.1003 -0.0936  0.4557
 2996POPC   NC336205   1.271   0.103  15.281 -0.2262  0.1514 -0.2088
 2996POPC   PO436206   1.045  -0.184  15.338  0.0077  0.1276  0.0262
 2996POPC   GL136207   1.287  -0.202  15.688 -0.1049  0.2943  0.1129
 2996POPC   GL236208   1.538  -0.156  15.896  0.0061 -0.1857  0.3050
 2996POPC   C1A36209   1.166  -0.440  16.077 -0.1207  0.0434 -0.0903
 2996POPC   D2A36210   1.151  -0.425  16.531 -0.2461  0.0004  0.1854
 2996POPC   C3A36211   0.974  -0.003  16.768 -0.1837  0.0065 -0.0165
 2996POPC   C4A36212   0.742   0.162  17.187 -0.1208 -0.0247  0.0862
 2996POPC   C1B36213   1.700  -0.349  16.325  0.1322  0.1594  0.0464
 2996POPC   C2B36214   1.861  -0.222  16.736 -0.0219 -0.0800  0.2178
 2996POPC   C3B36215   1.721  -0.108  17.128  0.0332  0.1133 -0.1095
 2996POPC   C4B36216   1.492  -0.085  17.522 -0.1104 -0.0318  0.0057
 2997POPC   NC336217  30.584  19.113  14.903 -0.1185  0.0189  0.1546
 2997POPC   PO436218  30.737  19.280  15.214  0.1397 -0.2148  0.1488
 2997POPC   GL136219  30.602  19.172  15.620 -0.2116 -0.5876  0.0872
 2997POPC   GL236220  30.427  19.474  15.627 -0.1665 -0.0865  0.1959
 2997POPC   C1A36221  30.816  19.493  15.971 -0.1116 -0.0402 -0.2846
 2997POPC   D2A36222  30.727  19.587  16.400  0.1155 -0.0549 -0.0575
 2997POPC   C3A36223  30.953  19.670  16.788 -0.0252 -0.1570  0.4408
 2997POPC   C4A36224  31.114  19.869  17.137 -0.0792 -0.0021 -0.2932
 2997POPC   C1B36225  30.262  19.599  16.047 -0.2055 -0.0638  0.0462
 2997POPC   C2B36226  30.370  19.903  16.345  0.0350  0.0165 -0.1354
 2997POPC   C3B36227  30.418  19.667  16.741 -0.3256 -0.1112 -0.5113
 2997POPC   C4B36228  30.290  19.327  17.032  0.0375 -0.0229  0.2405
 2998POPC   NC336229  21.687  27.005  15.052 -0.0374 -0.1735 -0.0872
 2998POPC   PO436230  21.859  26.637  15.142 -0.2622 -0.0298  0.3842
 2998POPC   GL136231  21.830  26.576  15.577 -0.0188 -0.0013  0.4448
 2998POPC   GL236232  21.810  26.870  15.663 -0.0363 -0.1443  0.3028
 2998POPC   C1A36233  21.431  26.458  15.807  0.0263  0.2335  0.1006
 2998POPC   D2A36234  21.144  26.377  16.114  0.1057  0.0956  0.0796
 2998POPC   C3A36235  21.237  26.349  16.565 -0.2087  0.0425  0.0772
 2998POPC   C4A36236  21.401  26.104  16.972  0.2585 -0.2629  0.0794
 2998POPC   C1B36237  21.935  26.762  16.054  0.0475 -0.0148  0.1976
 2998POPC   C2B36238  22.140  26.667  16.468  0.2456 -0.2593 -0.2158
 2998POPC   C3B36239  22.515  26.650  16.740 -0.0393 -0.0498 -0.0125
 2998POPC   C4B36240  22.530  26.975  17.074 -0.3056  0.0777  0.1593
 2999POPC   NC336241  20.931   7.677  15.775  0.0891 -0.2075  0.2993
 2999POPC   PO436242  20.890   7.513  15.407 -0.1376 -0.0651  0.0502
 2999POPC   GL136243  20.912   7.167  15.654 -0.0137  0.1835 -0.0411
 2999POPC   GL236244  20.594   7.237  15.742 -0.4693 -0.1835 -0.3230
 2999POPC   C1A36245  21.070   7.113  16.115  0.1593 -0.2974 -0.3244
 2999POPC   D2A36246  21.230   6.953  16.564  0.0934 -0.2998  0.0831
 2999POPC   C3A36247  21.404   6.737  16.916  0.0127  0.0092 -0.3187
 2999POPC   C4A36248  21.275   6.620  17.346 -0.3536 -0.3659 -0.0321
 2999POPC   C1B36249  20.583   7.546  16.113 -0.2399  0.0074 -0.2576
 2999POPC   C2B36250  20.803   7.343  16.518  0.0032  0.3437  0.2614
 2999POPC   C3B36251  21.101   7.294  16.896 -0.2305 -0.3766 -0.2429
 2999POPC   C4B36252  21.414   7.200  17.223 -0.3895  0.2001  0.2049
 3000POPC   NC336253  18.632   9.020  15.244  0.0425  0.0034  0.0815
 3000POPC   PO436254  18.840   9.342  15.165  0.3375 -0.2517 -0.1663
 3000POPC   GL136255  18.756   9.246  15.645 -0.1880 -0.0929  0.2538
 3000POPC   GL236256  19.115   9.258  15.640  0.0059 -0.3210 -0.0288
 3000POPC   C1A36257  18.412   8.976  15.715  0.4402 -0.2778 -0.1366
 3000POPC   D2A36258  18.200   8.565  15.831 -0.0679  0.0563 -0.1233
 3000POPC   C3A36259  18.141   8.553  16.249 -0.0988 -0.0029 -0.0887
 3000POPC   C4A36260  17.923   8.773  16.602  0.0757  0.0029 -0.3775
 3000POPC   C1B36261  19.493   9.230  15.833 -0.3377  0.1604 -0.1007
 3000POPC   C2B36262  19.671   9.026  16.162 -0.0005 -0.0101 -0.1531
 3000POPC   C3B36263  19.667   9.166  16.600 -0.0943 -0.1066 -0.3860
 3000POPC   C4B36264  19.673   9.042  17.003 -0.0332 -0.2447  0.0230
 3001POPC   NC336265  24.400   6.381  14.989 -0.1593 -0.0527  0.0723
 3001POPC   PO436266  24.244   6.027  14.916 -0.1382 -0.3070 -0.0381
 3001POPC   GL136267  24.540   5.979  15.217 -0.2146 -0.1685  0.0004
 3001POPC   GL236268  24.528   6.070  15.428  0.1986  0.6114 -0.0241
 3001POPC   C1A36269  24.582   5.585  15.409 -0.0277  0.1699  0.1507
 3001POPC   D2A36270  24.879   5.209  15.422  0.0026  0.0543  0.2316
 3001POPC   C3A36271  24.738   4.737  15.537  0.1911  0.2343  0.0986
 3001POPC   C4A36272  24.634   4.452  15.167 -0.1709 -0.1601 -0.1779
 3001POPC   C1B36273  24.244   6.138  15.804  0.2297  0.2636  0.1234
 3001POPC   C2B36274  24.042   5.880  16.147  0.0035  0.6183 -0.0207
 3001POPC   C3B36275  23.948   5.542  16.470  0.0281 -0.1891  0.1578
 3001POPC   C4B36276  23.768   5.263  16.792  0.1007 -0.0074 -0.1575
 3002POPC   NC336277  16.392  30.348  15.306 -0.2459 -0.1675 -0.2373
 3002POPC   PO436278  16.242  30.647  15.087  0.1658  0.2604  0.1977
 3002POPC   GL136279  16.236  30.765  15.479  0.5591  0.2117 -0.0425
 3002POPC   GL236280  16.382  30.924  15.521  0.0411  0.1637  0.0655
 3002POPC   C1A36281  15.983  31.048  15.802  0.0881  0.0930  0.1491
 3002POPC   D2A36282  15.863  31.302  16.204  0.1623  0.2132  0.0724
 3002POPC   C3A36283  15.840  31.108  16.590 -0.0806 -0.0496  0.2219
 3002POPC   C4A36284  15.529  31.213  16.962  0.2310  0.0557 -0.0895
 3002POPC   C1B36285  16.442  31.154  15.936 -0.3394  0.4324  0.0249
 3002POPC   C2B36286  16.325  31.292  16.392 -0.2203  0.0958 -0.0608
 3002POPC   C3B36287  16.078  31.640  16.444  0.0367 -0.0446 -0.1046
 3002POPC   C4B36288  15.687  31.663  16.666  0.1204 -0.3252  0.1345
 3003POPC   NC336289   7.193  27.180  15.286 -0.1143  0.2696  0.1331
 3003POPC   PO436290   7.309  27.571  15.222  0.3209  0.3803 -0.0314
 3003POPC   GL136291   7.238  27.639  15.689 -0.1590 -0.1149  0.1878
 3003POPC   GL236292   7.158  27.388  15.797 -0.2510  0.0652  0.0379
 3003POPC   C1A36293   6.992  27.838  16.056  0.0129  0.2049  0.0103
 3003POPC   D2A36294   6.751  28.140  16.282  0.1495  0.0605  0.0530
 3003POPC   C3A36295   6.794  28.617  16.351 -0.3372  0.1300 -0.1399
 3003POPC   C4A36296   6.790  29.023  16.608 -0.1116 -0.3591 -0.0441
 3003POPC   C1B36297   6.897  27.278  16.149 -0.0455 -0.2356 -0.3846
 3003POPC   C2B36298   7.022  27.004  16.507  0.1343 -0.2714  0.1090
 3003POPC   C3B36299   7.257  27.187  16.824  0.1177  0.0761 -0.0962
 3003POPC   C4B36300   7.084  27.200  17.258 -0.3444  0.2585  0.1902
 3004POPC   NC336301  23.602   0.664  15.330 -0.1622 -0.2678 -0.1560
 3004POPC   PO436302  23.812   0.920  15.525 -0.0401  0.1142  0.2749
 3004POPC   GL136303  23.686   0.969  15.840 -0.0724  0.0479  0.1061
 3004POPC   GL236304  23.460   0.773  15.949  0.0486 -0.3883  0.2811
 3004POPC   C1A36305  23.864   1.077  16.267  0.2708 -0.2271  0.0690
 3004POPC   D2A36306  23.982   0.980  16.701 -0.0410  0.3408 -0.0135
 3004POPC   C3A36307  24.331   1.198  16.951 -0.3416 -0.2178 -0.3904
 3004POPC   C4A36308  24.745   1.360  16.922  0.1247 -0.1453 -0.0018
 3004POPC   C1B36309  23.482   0.521  16.283  0.0851  0.0609  0.0233
 3004POPC   C2B36310  23.298   0.491  16.675 -0.1812 -0.0142 -0.1747
 3004POPC   C3B36311  22.828   0.456  16.786 -0.2255 -0.1485 -0.0874
 3004POPC   C4B36312  22.469   0.669  16.934  0.0969  0.2468  0.1480
 3005POPC   NC336313  29.796  27.669  15.356  0.1557 -0.0096  0.0790
 3005POPC   PO436314  29.718  28.048  15.369 -0.0014  0.0464  0.0229
 3005POPC   GL136315  29.795  28.146  15.770 -0.2544 -0.1516  0.0113
 3005POPC   GL236316  29.817  28.438  15.881  0.1595 -0.0405 -0.0569
 3005POPC   C1A36317  30.000  28.027  16.175  0.2983  0.0921 -0.3635
 3005POPC   D2A36318  29.932  28.040  16.651  0.0681 -0.0434  0.1874
 3005POPC   C3A36319  29.685  28.094  17.000 -0.1439 -0.2482  0.0606
 3005POPC   C4A36320  29.475  27.885  17.390  0.0781  0.1109 -0.0787
 3005POPC   C1B36321  29.737  28.458  16.328 -0.0206 -0.0435  0.0320
 3005POPC   C2B36322  29.794  28.571  16.759  0.0058  0.0075 -0.1406
 3005POPC   C3B36323  29.468  28.524  17.127 -0.2712  0.2077 -0.1227
 3005POPC   C4B36324  29.478  28.358  17.570  0.0511  0.2248 -0.2936
 3006POPC   NC336325  21.952   8.982  15.647 -0.0064 -0.1196  0.0647
 3006POPC   PO436326  21.728   8.815  15.370  0.3061 -0.0864 -0.3422
 3006POPC   GL136327  21.547   8.746  15.759  0.1614 -0.1237  0.3931
 3006POPC   GL236328  21.466   9.025  15.806  0.0307 -0.0014 -0.1922
 3006POPC   C1A36329  21.871   8.818  16.105  0.1545 -0.1538  0.2347
 3006POPC   D2A36330  22.279   8.901  16.283 -0.0567  0.3794 -0.3015
 3006POPC   C3A36331  22.309   8.849  16.755  0.0724 -0.1864 -0.0524
 3006POPC   C4A36332  22.387   8.867  17.236 -0.2354 -0.0452 -0.4395
 3006POPC   C1B36333  21.543   9.137  16.273 -0.1907 -0.4235 -0.0124
 3006POPC   C2B36334  21.865   8.977  16.602 -0.0338  0.0988  0.0562
 3006POPC   C3B36335  21.844   8.969  17.062 -0.0282 -0.4743  0.1564
 3006POPC   C4B36336  21.445   8.873  17.374 -0.2930 -0.2700  0.0696
 3007POPC   NC336337  18.360  17.349  15.278  0.3031  0.3528 -0.1020
 3007POPC   PO436338  18.199  17.652  15.459 -0.0534  0.2052  0.0661
 3007POPC   GL136339  18.295  17.494  15.853  0.0072  0.0965  0.4020
 3007POPC   GL236340  18.125  17.437  15.960 -0.0315 -0.1860  0.0065
 3007POPC   C1A36341  18.663  17.350  16.087  0.0319  0.0342 -0.0809
 3007POPC   D2A36342  18.989  17.057  16.281 -0.1532  0.2160 -0.0670
 3007POPC   C3A36343  19.460  17.034  16.374 -0.2503 -0.1519 -0.1884
 3007POPC   C4A36344  19.923  16.964  16.509 -0.1665  0.0082 -0.0835
 3007POPC   C1B36345  18.183  17.351  16.361 -0.3086 -0.1114  0.0056
 3007POPC   C2B36346  18.571  17.332  16.620  0.2009  0.3174 -0.2906
 3007POPC   C3B36347  18.643  17.078  16.955 -0.3264  0.0460 -0.0556
 3007POPC   C4B36348  18.809  16.963  17.378  0.3539 -0.0633  0.4723
 3008POPC   NC336349  12.162   0.492  14.829 -0.0770 -0.0271  0.0271
 3008POPC   PO436350  11.993   0.154  14.798  0.4420  0.3235  0.2068
 3008POPC   GL136351  12.173   0.138  15.181  0.0653 -0.0329  0.1614
 3008POPC   GL236352  11.889   0.064  15.345 -0.2473 -0.2260 -0.1031
 3008POPC   C1A36353  12.578   0.182  15.299 -0.0606  0.1615 -0.1061
 3008POPC   D2A36354  13.008   0.325  15.306 -0.1713 -0.1303  0.1270
 3008POPC   C3A36355  13.425   0.160  15.282  0.0194  0.0369 -0.0773
 3008POPC   C4A36356  13.696  -0.137  15.154  0.0345 -0.1805  0.2261
 3008POPC   C1B36357  11.671  -0.159  15.737  0.2193  0.0190 -0.1985
 3008POPC   C2B36358  11.692  -0.330  16.158 -0.2403 -0.4023  0.3843
 3008POPC   C3B36359  11.671  -0.726  16.425 -0.0739 -0.0244 -0.1666
 3008POPC   C4B36360  11.220  -0.738  16.614 -0.1135  0.0643  0.0087
 3009POPC   NC336361  30.067   4.520  14.863 -0.0244  0.1838  0.2378
 3009POPC   PO436362  30.229   4.342  15.151 -0.0207 -0.4121  0.2328
 3009POPC   GL136363  29.921   4.715  15.304  0.1275  0.1271  0.0384
 3009POPC   GL236364  29.663   4.592  15.168 -0.2129  0.1260  0.1961
 3009POPC   C1A36365  29.826   4.886  15.683 -0.2137 -0.0245  0.2250
 3009POPC   D2A36366  29.899   5.166  16.043  0.0944  0.0034 -0.4062
 3009POPC   C3A36367  29.737   5.169  16.455  0.0778  0.3355  0.0275
 3009POPC   C4A36368  29.613   5.308  16.870  0.0938  0.0334  0.1001
 3009POPC   C1B36369  29.440   4.835  15.458  0.3469  0.0380 -0.3002
 3009POPC   C2B36370  29.125   4.920  15.859  0.1142 -0.2877 -0.2410
 3009POPC   C3B36371  28.908   5.041  16.198 -0.2789 -0.0204 -0.1055
 3009POPC   C4B36372  28.735   5.005  16.632  0.0479 -0.0114  0.0383
 3010POPC   NC336373  28.561   1.617  15.621  0.1753  0.1854  0.0236
 3010POPC   PO436374  28.292   1.889  15.416  0.0733  0.3565  0.1386
 3010POPC   GL136375  28.083   2.044  15.712 -0.1544  0.1634  0.2048
 3010POPC   GL236376  28.178   1.908  15.897 -0.3711  0.1868  0.2245
 3010POPC   C1A36377  28.334   2.299  16.034  0.1620  0.2540 -0.0894
 3010POPC   D2A36378  28.431   2.679  16.292 -0.0841  0.0182 -0.1684
 3010POPC   C3A36379  28.530   2.767  16.735 -0.1159 -0.3249  0.3415
 3010POPC   C4A36380  28.754   2.975  17.135  0.1127 -0.2986 -0.4573
 3010POPC   C1B36381  27.916   1.989  16.211  0.2034 -0.1842  0.2049
 3010POPC   C2B36382  27.793   1.689  16.559  0.1512 -0.1490 -0.1267
 3010POPC   C3B36383  27.846   1.420  16.944 -0.1325  0.1909 -0.3143
 3010POPC   C4B36384  28.003   1.023  16.819 -0.0898  0.0423  0.0166
 3011POPC   NC336385  25.275  27.997  15.585  0.0903  0.0658  0.3210
 3011POPC   PO436386  25.417  28.226  15.291  0.1564  0.0987  0.1056
 3011POPC   GL136387  25.562  28.494  15.516 -0.0141  0.1537 -0.3117
 3011POPC   GL236388  25.459  28.865  15.556 -0.1100 -0.3030 -0.3081
 3011POPC   C1A36389  25.985  28.375  15.724 -0.1710 -0.3930 -0.2242
 3011POPC   D2A36390  26.220  28.599  16.064 -0.1741 -0.1250 -0.1446
 3011POPC   C3A36391  26.062  28.623  16.513  0.0023  0.1896  0.1591
 3011POPC   C4A36392  26.002  28.604  16.951  0.2762 -0.1496  0.0606
 3011POPC   C1B36393  25.509  28.676  15.962 -0.2007  0.0911 -0.0770
 3011POPC   C2B36394  25.612  28.305  16.222  0.1231 -0.0204  0.1225
 3011POPC   C3B36395  25.678  27.975  16.520  0.0537 -0.1097 -0.2469
 3011POPC   C4B36396  25.762  27.747  16.977 -0.1611  0.0732 -0.0452
 3012POPC   NC336397  31.340  14.010  15.676  0.0592  0.2166  0.1891
 3012POPC   PO436398  31.185  14.141  15.345 -0.0042 -0.0995  0.3337
 3012POPC   GL136399  31.260  14.462  15.654 -0.0811 -0.2139  0.0696
 3012POPC   GL236400  30.972  14.577  15.589 -0.1533 -0.1656  0.0004
 3012POPC   C1A36401  31.210  14.641  16.085  0.0132 -0.0822 -0.2117
 3012POPC   D2A36402  31.286  14.793  16.527 -0.4641 -0.0024  0.0260
 3012POPC   C3A36403  30.905  14.857  16.849  0.3098 -0.1101 -0.0422
 3012POPC   C4A36404  30.512  14.676  17.042  0.0958 -0.1462  0.0116
 3012POPC   C1B36405  30.682  14.579  15.969 -0.0330  0.0787 -0.0446
 3012POPC   C2B36406  30.431  14.465  16.359 -0.1331 -0.4077  0.0823
 3012POPC   C3B36407  30.196  14.652  16.646  0.1364  0.0892 -0.2617
 3012POPC   C4B36408  29.993  14.818  17.027  0.0236  0.0582  0.1701
 3013POPC   NC336409  24.126  17.051  15.103  0.0598 -0.0961 -0.0496
 3013POPC   PO436410  24.112  17.460  15.154 -0.0694 -0.0205 -0.0378
 3013POPC   GL136411  24.118  17.500  15.501  0.0701 -0.3619  0.2587
 3013POPC   GL236412  24.160  17.221  15.637  0.0556 -0.0592  0.1357
 3013POPC   C1A36413  24.443  17.580  15.806 -0.2307  0.1088 -0.3068
 3013POPC   D2A36414  24.715  17.559  16.192  0.1484 -0.0120 -0.1519
 3013POPC   C3A36415  24.990  17.785  16.448  0.1684  0.0987  0.1623
 3013POPC   C4A36416  25.206  18.074  16.698 -0.0888  0.0190  0.1028
 3013POPC   C1B36417  24.141  17.205  16.058 -0.1088  0.0059  0.0457
 3013POPC   C2B36418  24.229  17.039  16.518 -0.1617  0.2352 -0.0999
 3013POPC   C3B36419  24.616  16.971  16.829 -0.0766  0.1004 -0.1163
 3013POPC   C4B36420  24.987  16.803  17.015  0.4732 -0.3273 -0.0667
 3014POPC   NC336421   5.473  30.658  14.822 -0.1375  0.1111 -0.2067
 3014POPC   PO436422   5.300  30.376  14.588  0.2514 -0.0270  0.0162
 3014POPC   GL136423   5.165  30.327  14.968 -0.1135 -0.1464  0.0590
 3014POPC   GL236424   4.982  30.572  14.975  0.1614 -0.0120  0.3940
 3014POPC   C1A36425   5.175  30.127  15.383  0.3266 -0.0202  0.0289
 3014POPC   D2A36426   4.917  30.099  15.787  0.2107 -0.0730  0.3312
 3014POPC   C3A36427   4.798  30.002  16.216  0.1880 -0.2647  0.1457
 3014POPC   C4A36428   4.826  30.263  16.591 -0.6547  0.0119 -0.4577
 3014POPC   C1B36429   4.699  30.256  15.208 -0.5344  0.0577 -0.3025
 3014POPC   C2B36430   4.258  30.336  15.270  0.2559 -0.2453 -0.3075
 3014POPC   C3B36431   3.791  30.300  15.164  0.1383 -0.1811  0.0091
 3014POPC   C4B36432   3.349  30.200  15.140 -0.0609 -0.2225  0.1770
 3015POPC   NC336433   5.642  17.808  15.329  0.1412  0.2595 -0.0381
 3015POPC   PO436434   5.468  17.478  15.221 -0.0479 -0.1048  0.2744
 3015POPC   GL136435   5.567  17.393  15.593 -0.0774 -0.1107 -0.2620
 3015POPC   GL236436   5.704  17.552  15.774 -0.1986 -0.0773 -0.1276
 3015POPC   C1A36437   5.184  17.313  15.920  0.0333  0.1705  0.2451
 3015POPC   D2A36438   4.850  17.139  16.215 -0.0409 -0.0658  0.1793
 3015POPC   C3A36439   4.457  17.003  16.186  0.3725 -0.0288  0.1659
 3015POPC   C4A36440   4.167  16.663  16.387  0.2489 -0.0617  0.0819
 3015POPC   C1B36441   5.408  17.684  16.109  0.0832  0.4596  0.1282
 3015POPC   C2B36442   5.096  17.537  16.426 -0.1254  0.3434 -0.1293
 3015POPC   C3B36443   4.810  17.293  16.717 -0.3858  0.2635  0.1294
 3015POPC   C4B36444   4.518  17.208  17.087 -0.1611  0.0885 -0.2192
 3016POPC   NC336445  17.027  26.542  15.432  0.2339 -0.1096  0.1571
 3016POPC   PO436446  17.376  26.604  15.262  0.2270 -0.2033  0.0790
 3016POPC   GL136447  17.543  26.459  15.628  0.0001  0.0496  0.2441
 3016POPC   GL236448  17.437  26.177  15.722  0.1693  0.0203 -0.2588
 3016POPC   C1A36449  17.740  26.503  16.035 -0.4313 -0.1069 -0.0709
 3016POPC   D2A36450  17.828  26.553  16.486 -0.1281 -0.0812 -0.1265
 3016POPC   C3A36451  17.718  26.323  16.917 -0.0991  0.0789  0.1043
 3016POPC   C4A36452  17.853  26.139  17.299  0.0263  0.2081 -0.3424
 3016POPC   C1B36453  17.274  25.920  16.019  0.0965  0.0482 -0.1948
 3016POPC   C2B36454  17.204  25.749  16.461  0.0664 -0.1077  0.0196
 3016POPC   C3B36455  17.097  25.439  16.837  0.0522  0.1734  0.2365
 3016POPC   C4B36456  17.102  25.272  17.287 -0.1381 -0.1870  0.3039
 3017POPC   NC336457  14.915  19.471  15.569 -0.0774  0.2899  0.0155
 3017POPC   PO436458  14.700  19.804  15.574 -0.3511  0.0948  0.1043
 3017POPC   GL136459  15.015  19.814  15.820  0.2257  0.2442 -0.0741
 3017POPC   GL236460  14.904  20.002  16.121  0.0190 -0.0857 -0.2387
 3017POPC   C1A36461  14.964  19.416  16.086 -0.2226  0.0906 -0.0649
 3017POPC   D2A36462  15.115  19.413  16.543  0.1037 -0.1070 -0.1103
 3017POPC   C3A36463  15.551  19.370  16.651 -0.0058 -0.0865 -0.2698
 3017POPC   C4A36464  15.982  19.218  16.872  0.1114 -0.0550  0.0422
 3017POPC   C1B36465  15.121  20.364  16.236  0.0220 -0.0539 -0.1664
 3017POPC   C2B36466  15.181  20.726  16.537  0.0824 -0.0032  0.1068
 3017POPC   C3B36467  15.303  20.831  16.949  0.0636  0.1874 -0.0142
 3017POPC   C4B36468  15.312  20.821  17.421 -0.2622  0.0919 -0.0377
 3018POPC   NC336469  18.996  24.450  15.419 -0.2836  0.1497 -0.1246
 3018POPC   PO436470  19.099  24.204  15.114  0.2544 -0.1887  0.2823
 3018POPC   GL136471  19.123  23.977  15.486  0.4997 -0.3961 -0.0472
 3018POPC   GL236472  19.387  24.100  15.571 -0.2209 -0.0575 -0.0889
 3018POPC   C1A36473  19.208  23.669  15.811  0.0773  0.0390  0.0687
 3018POPC   D2A36474  19.335  23.737  16.217  0.0947  0.2157  0.3831
 3018POPC   C3A36475  19.131  23.784  16.607 -0.1030  0.1696 -0.1329
 3018POPC   C4A36476  18.898  23.541  16.879 -0.0779  0.3572 -0.1094
 3018POPC   C1B36477  19.416  24.239  16.019 -0.3370 -0.3702  0.2357
 3018POPC   C2B36478  19.480  24.133  16.402 -0.1894  0.2324  0.0541
 3018POPC   C3B36479  19.492  23.988  16.868 -0.2819 -0.1543 -0.1221
 3018POPC   C4B36480  19.376  24.121  17.268 -0.0590  0.2478  0.0010
 3019POPC   NC336481  11.473  25.420  14.671 -0.6395 -0.2967 -0.0518
 3019POPC   PO436482  11.148  25.496  14.857 -0.0255  0.2079  0.0379
 3019POPC   GL136483  11.039  25.366  15.204  0.1042  0.0710  0.2120
 3019POPC   GL236484  10.744  25.476  15.185 -0.0249 -0.0704 -0.1353
 3019POPC   C1A36485  10.976  25.148  15.627 -0.0336  0.3708 -0.2939
 3019POPC   D2A36486  10.836  25.220  16.063 -0.3092  0.1221 -0.3057
 3019POPC   C3A36487  10.737  24.915  16.412  0.0658  0.3949  0.3475
 3019POPC   C4A36488  10.589  24.496  16.626  0.2342  0.0708  0.0620
 3019POPC   C1B36489  10.631  25.575  15.585  0.0215  0.1304 -0.6775
 3019POPC   C2B36490  10.373  25.429  15.947  0.0415  0.2006  0.1993
 3019POPC   C3B36491  10.426  25.305  16.323  0.0405 -0.0346 -0.1985
 3019POPC   C4B36492  10.371  25.458  16.781 -0.1678 -0.1824  0.2792
 3020POPC   NC336493   2.088  28.630  15.278 -0.1282 -0.1623  0.0301
 3020POPC   PO436494   1.730  28.514  15.223  0.0295 -0.0613  0.1532
 3020POPC   GL136495   1.648  28.646  15.523  0.0366 -0.0985  0.3792
 3020POPC   GL236496   1.392  28.848  15.516 -0.0821  0.1091  0.2821
 3020POPC   C1A36497   1.968  28.759  15.796  0.0854  0.0840  0.2850
 3020POPC   D2A36498   2.302  28.660  16.080 -0.0650 -0.0897  0.0784
 3020POPC   C3A36499   2.159  28.663  16.509 -0.0745 -0.3195  0.5195
 3020POPC   C4A36500   2.384  28.612  16.921  0.1856 -0.1007 -0.2119
 3020POPC   C1B36501   1.485  28.694  15.929 -0.4181  0.0867 -0.1074
 3020POPC   C2B36502   1.582  28.766  16.338 -0.1400  0.2499  0.0139
 3020POPC   C3B36503   1.672  28.701  16.798 -0.3031 -0.1679  0.0452
 3020POPC   C4B36504   1.732  28.842  17.244 -0.2022  0.2925 -0.2523
 3021POPC   NC336505  23.764   6.948  15.195 -0.0767  0.1101 -0.2145
 3021POPC   PO436506  24.052   6.698  15.174 -0.0535 -0.1070 -0.0498
 3021POPC   GL136507  23.871   6.453  15.491  0.0112 -0.1815  0.0714
 3021POPC   GL236508  23.679   6.624  15.514  0.2582 -0.2061 -0.1482
 3021POPC   C1A36509  23.878   6.468  15.973  0.1358 -0.1808  0.1066
 3021POPC   D2A36510  23.707   6.584  16.397  0.0891  0.2387  0.0386
 3021POPC   C3A36511  23.514   6.493  16.805  0.0455  0.1643 -0.1447
 3021POPC   C4A36512  23.763   6.198  17.135 -0.1345  0.0943  0.3807
 3021POPC   C1B36513  23.389   6.446  15.849  0.1107  0.0988 -0.0584
 3021POPC   C2B36514  23.174   6.372  16.253 -0.0927  0.3176 -0.1342
 3021POPC   C3B36515  23.184   6.102  16.662  0.0847  0.2579 -0.2645
 3021POPC   C4B36516  23.025   5.790  17.005 -0.0833  0.3740  0.0380
 3022POPC   NC336517  27.842  18.239  14.800 -0.1750  0.3503  0.1497
 3022POPC   PO436518  27.740  18.245  15.185  0.0127  0.2079 -0.2382
 3022POPC   GL136519  27.814  18.360  15.619 -0.2042 -0.2486 -0.0885
 3022POPC   GL236520  27.601  18.611  15.607 -0.1661 -0.2804  0.0322
 3022POPC   C1A36521  28.144  18.329  15.923 -0.0089  0.0104  0.0008
 3022POPC   D2A36522  28.269  18.376  16.398  0.0855  0.0165 -0.2755
 3022POPC   C3A36523  28.093  18.313  16.825 -0.0130 -0.2400  0.1605
 3022POPC   C4A36524  28.237  18.513  17.232  0.0126 -0.1864 -0.0656
 3022POPC   C1B36525  27.842  18.699  15.979 -0.0817  0.0954  0.4125
 3022POPC   C2B36526  27.958  18.861  16.354 -0.1077 -0.0849  0.0542
 3022POPC   C3B36527  28.278  18.867  16.745  0.1354 -0.1572  0.0092
 3022POPC   C4B36528  28.578  18.907  17.078  0.4412 -0.1741 -0.1743
 3023POPC   NC336529  28.260   3.769  14.758  0.1033 -0.1595 -0.1126
 3023POPC   PO436530  28.358   3.711  15.117  0.1596  0.0457  0.2024
 3023POPC   GL136531  28.348   3.757  15.493  0.1461  0.2874 -0.3542
 3023POPC   GL236532  28.071   3.941  15.477 -0.3177  0.1621 -0.0175
 3023POPC   C1A36533  28.507   3.807  15.966 -0.3952  0.0961 -0.0656
 3023POPC   D2A36534  28.598   3.608  16.362 -0.3371  0.3640  0.2159
 3023POPC   C3A36535  28.414   3.552  16.756  0.0091 -0.2301 -0.0074
 3023POPC   C4A36536  28.324   3.186  17.045 -0.0152  0.1386  0.0709
 3023POPC   C1B36537  28.088   3.954  15.940  0.2198  0.0071 -0.0772
 3023POPC   C2B36538  28.319   4.269  16.244 -0.0507 -0.1278 -0.2129
 3023POPC   C3B36539  28.000   4.396  16.571 -0.0704  0.2818 -0.2088
 3023POPC   C4B36540  28.055   4.273  17.012  0.1002  0.3019  0.0098
 3024POPC   NC336541   3.848  24.270  15.247 -0.1435  0.2448 -0.0381
 3024POPC   PO436542   4.084  24.589  15.219 -0.2600  0.3560 -0.1872
 3024POPC   GL136543   4.111  24.557  15.624  0.2535  0.0881 -0.1065
 3024POPC   GL236544   4.300  24.314  15.591  0.1074 -0.1563 -0.0302
 3024POPC   C1A36545   4.272  24.779  15.957 -0.0953 -0.0153  0.1176
 3024POPC   D2A36546   4.404  24.786  16.419  0.2612 -0.0139  0.1329
 3024POPC   C3A36547   4.153  24.953  16.826  0.0099  0.3743  0.0557
 3024POPC   C4A36548   4.380  25.135  17.185 -0.0426  0.0921  0.3295
 3024POPC   C1B36549   4.391  24.082  16.022  0.0180  0.3223  0.1540
 3024POPC   C2B36550   4.419  24.031  16.450 -0.0480 -0.0548  0.0873
 3024POPC   C3B36551   4.412  23.707  16.802  0.3477 -0.1544 -0.0980
 3024POPC   C4B36552   4.469  23.793  17.280 -0.3485  0.0626  0.1817
 3025POPC   NC336553  14.772   4.205  15.362  0.1541  0.0184 -0.0001
 3025POPC   PO436554  14.396   4.173  15.515 -0.0228 -0.1556 -0.1068
 3025POPC   GL136555  14.454   4.145  15.929 -0.1986  0.0509  0.2978
 3025POPC   GL236556  14.757   4.232  15.891  0.1571 -0.2494 -0.2634
 3025POPC   C1A36557  14.368   4.267  16.394  0.0916  0.1224  0.1813
 3025POPC   D2A36558  14.276   4.396  16.823 -0.2498  0.1554  0.1495
 3025POPC   C3A36559  14.453   4.765  17.083 -0.2721  0.1684 -0.0494
 3025POPC   C4A36560  14.425   5.017  17.490 -0.3720  0.2374  0.2134
 3025POPC   C1B36561  14.914   4.071  16.291  0.0927  0.3353  0.1529
 3025POPC   C2B36562  15.196   4.081  16.650 -0.1663 -0.2851  0.1986
 3025POPC   C3B36563  15.451   4.365  16.978 -0.2930  0.2388  0.0678
 3025POPC   C4B36564  15.692   4.636  17.255 -0.0479 -0.0892  0.2293
 3026POPC   NC336565   7.025  14.958  15.370 -0.2233  0.1534  0.1239
 3026POPC   PO436566   6.618  15.002  15.427 -0.3292 -0.1139  0.1151
 3026POPC   GL136567   6.586  14.655  15.696 -0.1345 -0.0115 -0.0706
 3026POPC   GL236568   6.355  14.706  15.793  0.1535  0.1371 -0.1202
 3026POPC   C1A36569   6.672  14.507  16.111  0.2784 -0.0736 -0.0866
 3026POPC   D2A36570   6.518  14.394  16.555  0.1465  0.0613  0.2523
 3026POPC   C3A36571   6.311  14.006  16.509 -0.0565 -0.1244 -0.0359
 3026POPC   C4A36572   5.944  13.688  16.584 -0.1048  0.2113  0.0216
 3026POPC   C1B36573   6.214  14.668  16.277  0.2143 -0.1050 -0.1486
 3026POPC   C2B36574   6.166  14.771  16.709  0.0796  0.0650 -0.3027
 3026POPC   C3B36575   6.145  14.897  17.186 -0.1691  0.0013  0.0472
 3026POPC   C4B36576   6.366  14.975  17.531  0.0495  0.1839 -0.0237
 3027POPC   NC336577  10.787   5.173  15.701 -0.0184  0.0606 -0.2790
 3027POPC   PO436578  10.559   5.355  15.493  0.0373 -0.0689  0.1830
 3027POPC   GL136579  10.400   5.358  15.739  0.0334  0.0917 -0.0015
 3027POPC   GL236580  10.565   5.583  15.934  0.1847 -0.0185 -0.0123
 3027POPC   C1A36581  10.380   5.111  16.125 -0.1732 -0.0855 -0.1026
 3027POPC   D2A36582  10.516   4.868  16.528 -0.0303 -0.2456 -0.1782
 3027POPC   C3A36583  10.512   5.089  16.955 -0.0422  0.1572 -0.1334
 3027POPC   C4A36584  10.541   4.994  17.445  0.2527 -0.2446 -0.1261
 3027POPC   C1B36585  10.224   5.673  16.249  0.2401  0.2910  0.1252
 3027POPC   C2B36586   9.931   5.739  16.609  0.1020 -0.1408 -0.0081
 3027POPC   C3B36587   9.590   6.017  16.709  0.0892  0.1925  0.2603
 3027POPC   C4B36588   9.225   6.154  16.965 -0.1120 -0.0118  0.1151
 3028POPC   NC336589  27.324  24.385  15.740  0.2130  0.0501  0.1908
 3028POPC   PO436590  27.050  24.098  15.623 -0.2874  0.4123  0.0232
 3028POPC   GL136591  27.103  23.993  15.971  0.1406  0.1138 -0.0360
 3028POPC   GL236592  27.341  23.879  15.973 -0.0337  0.2150  0.0492
 3028POPC   C1A36593  26.873  23.923  16.361  0.0977  0.0366  0.2715
 3028POPC   D2A36594  26.516  23.954  16.582  0.1270 -0.0135 -0.1840
 3028POPC   C3A36595  26.360  24.163  17.029  0.0739 -0.0315  0.2574
 3028POPC   C4A36596  26.079  24.130  17.360  0.0425 -0.1812 -0.2068
 3028POPC   C1B36597  27.326  24.296  16.270  0.2446 -0.0887  0.0861
 3028POPC   C2B36598  27.439  24.429  16.701 -0.1200 -0.2507 -0.2446
 3028POPC   C3B36599  27.182  24.576  16.993 -0.1396 -0.2432 -0.2761
 3028POPC   C4B36600  27.142  24.689  17.485  0.0155 -0.2418 -0.0850
 3029POPC   NC336601  25.234  18.656  15.482 -0.2100  0.3922  0.0910
 3029POPC   PO436602  24.878  18.705  15.350 -0.1870 -0.0423 -0.2081
 3029POPC   GL136603  24.880  18.749  15.805 -0.2505 -0.3921 -0.1442
 3029POPC   GL236604  24.614  18.830  15.905 -0.0937  0.2380 -0.1218
 3029POPC   C1A36605  24.827  18.528  16.250  0.1036 -0.3023  0.2444
 3029POPC   D2A36606  24.862  18.394  16.682  0.1453 -0.0661  0.2328
 3029POPC   C3A36607  25.176  18.606  16.965 -0.0623  0.0729  0.2328
 3029POPC   C4A36608  25.550  18.718  17.220  0.1390 -0.1004 -0.1675
 3029POPC   C1B36609  24.721  18.993  16.285  0.1473  0.3013  0.1817
 3029POPC   C2B36610  24.703  18.888  16.736  0.3204  0.5872 -0.1373
 3029POPC   C3B36611  24.713  18.848  17.187 -0.2060 -0.1248  0.0298
 3029POPC   C4B36612  24.372  18.730  17.476  0.2878  0.0865 -0.0766
 3030POPC   NC336613  20.541   2.842  14.834  0.2511 -0.2156 -0.0269
 3030POPC   PO436614  20.129   2.774  14.870  0.0192  0.1619  0.1667
 3030POPC   GL136615  20.021   2.688  15.241  0.1900 -0.1701 -0.1106
 3030POPC   GL236616  20.236   2.757  15.432  0.1797 -0.2378  0.0379
 3030POPC   C1A36617  20.107   2.289  15.520 -0.0343 -0.3073  0.1162
 3030POPC   D2A36618  20.401   2.270  15.809 -0.0619 -0.0832 -0.3238
 3030POPC   C3A36619  20.644   2.059  16.135 -0.5235  0.0884  0.0937
 3030POPC   C4A36620  20.903   1.690  16.381  0.0568  0.1604 -0.3140
 3030POPC   C1B36621  20.354   2.793  15.885 -0.0560  0.0661  0.0386
 3030POPC   C2B36622  20.448   2.590  16.280 -0.1529 -0.0454  0.2568
 3030POPC   C3B36623  20.650   2.489  16.652  0.1519 -0.2881 -0.0068
 3030POPC   C4B36624  21.059   2.497  16.884 -0.0726  0.3081 -0.0449
 3031POPC   NC336625   8.620  15.160  15.552 -0.0604 -0.0565 -0.1522
 3031POPC   PO436626   8.330  14.979  15.745 -0.2120 -0.0287  0.1705
 3031POPC   GL136627   8.332  14.831  16.087  0.3444  0.0293 -0.0766
 3031POPC   GL236628   8.531  14.887  16.259 -0.0564  0.0972  0.2190
 3031POPC   C1A36629   8.049  14.815  16.532 -0.2844 -0.0821  0.1207
 3031POPC   D2A36630   8.055  14.781  16.964 -0.0083 -0.1386 -0.1764
 3031POPC   C3A36631   8.349  14.987  17.326  0.1309  0.0136  0.0008
 3031POPC   C4A36632   8.703  15.089  17.600  0.1662 -0.2061 -0.0204
 3031POPC   C1B36633   8.525  14.642  16.663  0.2199 -0.0839  0.0384
 3031POPC   C2B36634   8.615  14.522  17.146  0.0554  0.2100 -0.2240
 3031POPC   C3B36635   8.560  14.135  17.348 -0.0052 -0.2936  0.1676
 3031POPC   C4B36636   8.660  13.792  17.672 -0.1053  0.4566  0.2982
 3032POPC   NC336637  26.288   8.316  15.794 -0.0573  0.0196  0.2280
 3032POPC   PO436638  26.096   8.059  15.592  0.1462 -0.0247 -0.4752
 3032POPC   GL136639  26.187   7.870  16.007  0.0645  0.2575 -0.1582
 3032POPC   GL236640  26.453   7.820  15.972  0.1878  0.0512  0.2181
 3032POPC   C1A36641  26.208   7.425  16.175 -0.0680  0.1547  0.3330
 3032POPC   D2A36642  26.321   7.006  16.248 -0.1343 -0.0912 -0.0717
 3032POPC   C3A36643  26.301   7.046  16.653 -0.0393 -0.1190  0.1514
 3032POPC   C4A36644  25.974   7.030  16.985  0.0367 -0.0756 -0.0075
 3032POPC   C1B36645  26.427   7.814  16.433 -0.1911 -0.1532  0.3693
 3032POPC   C2B36646  26.702   7.858  16.837  0.2327 -0.2363 -0.1484
 3032POPC   C3B36647  26.949   7.601  17.072  0.1805 -0.0788  0.3049
 3032POPC   C4B36648  27.208   7.258  17.223 -0.1432 -0.2842  0.0062
 3033POPC   NC336649  29.159   2.445  15.569 -0.0449  0.1592  0.2841
 3033POPC   PO436650  28.850   2.628  15.591  0.2767 -0.1672 -0.1843
 3033POPC   GL136651  28.882   2.555  15.980 -0.3167  0.0234  0.0385
 3033POPC   GL236652  29.215   2.610  16.059 -0.0181 -0.2027 -0.1643
 3033POPC   C1A36653  28.865   2.559  16.455 -0.2381 -0.0235  0.0488
 3033POPC   D2A36654  28.774   2.341  16.843  0.2305 -0.0409  0.1209
 3033POPC   C3A36655  28.699   2.514  17.194  0.0409  0.2583 -0.2970
 3033POPC   C4A36656  29.052   2.701  17.498  0.1231 -0.1032 -0.2740
 3033POPC   C1B36657  29.486   2.782  16.447  0.1509  0.1596 -0.2234
 3033POPC   C2B36658  29.670   2.887  16.884 -0.2546  0.0605 -0.2228
 3033POPC   C3B36659  29.726   2.866  17.343 -0.2068 -0.0411 -0.3766
 3033POPC   C4B36660  29.407   3.013  17.712  0.0709  0.2288  0.0495
 3034POPC   NC336661  21.087  26.212  15.424 -0.4866  0.0641 -0.0272
 3034POPC   PO436662  20.850  25.911  15.326 -0.0022 -0.0985 -0.3175
 3034POPC   GL136663  20.842  25.999  15.733  0.1170  0.1938 -0.0479
 3034POPC   GL236664  20.851  25.788  15.908 -0.0458  0.2658  0.0086
 3034POPC   C1A36665  20.715  26.383  15.933 -0.1835 -0.0252  0.0072
 3034POPC   D2A36666  20.569  26.435  16.394  0.0258  0.3563  0.3093
 3034POPC   C3A36667  20.374  26.764  16.683 -0.0462 -0.0086 -0.4416
 3034POPC   C4A36668  20.276  26.687  17.140  0.2493 -0.1758 -0.0430
 3034POPC   C1B36669  20.642  25.799  16.361  0.0651 -0.0642 -0.0511
 3034POPC   C2B36670  20.411  25.824  16.727 -0.2756  0.0927 -0.2134
 3034POPC   C3B36671  20.319  25.660  17.137 -0.2656  0.0780 -0.0882
 3034POPC   C4B36672  20.157  25.444  17.554  0.1776 -0.0193  0.2569
 3035POPC   NC336673  29.121   0.704  14.834 -0.2920  0.1413  0.1773
 3035POPC   PO436674  28.865   0.665  15.164  0.1110  0.1406  0.0372
 3035POPC   GL136675  28.897   0.463  15.543 -0.0573 -0.0112  0.2372
 3035POPC   GL236676  28.614   0.554  15.646 -0.1694  0.0082 -0.1125
 3035POPC   C1A36677  29.059   0.620  15.937  0.0228 -0.1925 -0.0839
 3035POPC   D2A36678  29.026   0.471  16.368 -0.2227  0.0891 -0.1001
 3035POPC   C3A36679  29.240   0.122  16.649  0.1984  0.2747  0.1657
 3035POPC   C4A36680  29.547  -0.157  16.808  0.1857  0.0956  0.1671
 3035POPC   C1B36681  28.601   0.442  16.135  0.0727 -0.2726 -0.0678
 3035POPC   C2B36682  28.319   0.167  16.371 -0.1398 -0.1593  0.4404
 3035POPC   C3B36683  28.320  -0.263  16.606  0.0984  0.2128 -0.3891
 3035POPC   C4B36684  28.163  -0.648  16.728  0.3464 -0.2774  0.3700
 3036POPC   NC336685  21.372  11.032  14.557  0.2821  0.1992  0.1103
 3036POPC   PO436686  21.525  11.249  14.857 -0.0212 -0.0025 -0.0487
 3036POPC   GL136687  21.468  11.187  15.336 -0.2928  0.1213 -0.0301
 3036POPC   GL236688  21.220  11.161  15.395  0.2159  0.0074  0.0960
 3036POPC   C1A36689  21.601  11.438  15.662  0.1529  0.2138 -0.1028
 3036POPC   D2A36690  21.842  11.575  15.999 -0.0429 -0.1469 -0.2162
 3036POPC   C3A36691  22.208  11.366  16.198  0.1503  0.0068 -0.0267
 3036POPC   C4A36692  22.375  11.399  16.609  0.0231  0.1550 -0.1710
 3036POPC   C1B36693  21.079  11.305  15.809 -0.1711 -0.2334  0.0913
 3036POPC   C2B36694  20.834  11.424  16.200  0.3332  0.0766  0.0113
 3036POPC   C3B36695  20.798  11.433  16.635  0.1546 -0.1052  0.3021
 3036POPC   C4B36696  20.985  11.567  16.985  0.1745  0.3549  0.0715
 3037POPC   NC336697   9.233   0.167  15.470 -0.1206  0.2471 -0.1588
 3037POPC   PO436698   9.325   0.503  15.359 -0.0746  0.0622 -0.1055
 3037POPC   GL136699   9.151   0.469  15.816  0.4010 -0.0687  0.3281
 3037POPC   GL236700   8.899   0.409  15.841 -0.0552 -0.2503 -0.0860
 3037POPC   C1A36701   9.187   0.372  16.236 -0.0215 -0.1245 -0.0299
 3037POPC   D2A36702   8.922   0.460  16.582  0.0321  0.0925  0.0792
 3037POPC   C3A36703   9.092   0.655  16.927  0.0158  0.2656 -0.2317
 3037POPC   C4A36704   9.125   0.838  17.343 -0.4055  0.0366 -0.0564
 3037POPC   C1B36705   8.944   0.820  16.058 -0.0707  0.1055  0.0562
 3037POPC   C2B36706   9.010   1.005  16.504 -0.1181 -0.0403  0.0182
 3037POPC   C3B36707   9.024   1.134  16.950 -0.1076  0.0830 -0.2685
 3037POPC   C4B36708   9.085   1.373  17.349 -0.0038 -0.3351  0.0857
 3038POPC   NC336709  24.120  11.802  15.392  0.2825 -0.0361 -0.1303
 3038POPC   PO436710  24.398  11.535  15.314 -0.1960 -0.2242  0.1441
 3038POPC   GL136711  24.501  11.771  15.622  0.3617 -0.1432 -0.2169
 3038POPC   GL236712  24.316  11.643  15.830 -0.4462  0.2321  0.4351
 3038POPC   C1A36713  24.833  11.763  15.896 -0.1316 -0.0343 -0.2546
 3038POPC   D2A36714  25.044  12.011  16.266 -0.1909  0.1144 -0.2328
 3038POPC   C3A36715  24.957  12.011  16.703 -0.1095  0.1604 -0.2082
 3038POPC   C4A36716  25.035  12.128  17.144 -0.6811  0.0829 -0.0216
 3038POPC   C1B36717  24.455  11.794  16.242 -0.0518  0.2381 -0.0027
 3038POPC   C2B36718  24.461  11.678  16.728 -0.1864 -0.1829 -0.0170
 3038POPC   C3B36719  24.791  11.645  17.046 -0.1804  0.0002  0.1730
 3038POPC   C4B36720  24.902  11.727  17.461  0.0015 -0.0910 -0.2264
 3039POPC   NC336721   8.398  29.927  15.201  0.1148 -0.0637 -0.1703
 3039POPC   PO436722   8.374  29.529  15.093  0.0072 -0.1294 -0.0820
 3039POPC   GL136723   8.132  29.502  15.507  0.1438  0.2568 -0.1812
 3039POPC   GL236724   8.012  29.750  15.499 -0.2110 -0.2367 -0.4117
 3039POPC   C1A36725   8.083  29.533  15.994  0.0950 -0.0343  0.1517
 3039POPC   D2A36726   8.155  29.735  16.403 -0.2675 -0.0990 -0.1619
 3039POPC   C3A36727   8.211  29.432  16.741  0.0778 -0.1927 -0.3873
 3039POPC   C4A36728   8.289  29.163  17.094  0.2122  0.0897  0.2851
 3039POPC   C1B36729   7.654  29.668  15.772  0.1783  0.3107 -0.0395
 3039POPC   C2B36730   7.613  29.700  16.250  0.0307 -0.3792  0.0981
 3039POPC   C3B36731   7.697  29.916  16.606  0.0849 -0.3562 -0.0116
 3039POPC   C4B36732   7.559  29.914  17.077  0.0563 -0.1343 -0.1003
 3040POPC   NC336733  24.563  17.943  14.865  0.1790 -0.1708  0.1492
 3040POPC   PO436734  24.478  17.779  15.217  0.0452 -0.1156 -0.2545
 3040POPC   GL136735  24.526  18.001  15.574 -0.0775 -0.2172 -0.3287
 3040POPC   GL236736  24.372  18.115  15.698 -0.0307 -0.2018  0.1216
 3040POPC   C1A36737  24.858  17.834  15.833  0.0807  0.1205  0.4602
 3040POPC   D2A36738  25.114  17.452  15.878  0.1930 -0.2235 -0.0551
 3040POPC   C3A36739  25.160  17.339  16.321 -0.0083 -0.0483  0.0629
 3040POPC   C4A36740  25.153  17.128  16.688  0.0145 -0.0360  0.2190
 3040POPC   C1B36741  24.323  18.437  16.020  0.0418 -0.0735  0.0762
 3040POPC   C2B36742  24.341  18.616  16.457  0.1075  0.3522 -0.1261
 3040POPC   C3B36743  24.475  18.491  16.889  0.2292 -0.1546  0.0636
 3040POPC   C4B36744  24.747  18.375  17.237  0.0958 -0.0665 -0.3423
 3041POPC   NC336745  18.513  26.926  15.199  0.0164 -0.2538  0.0048
 3041POPC   PO436746  18.842  26.963  15.000 -0.0602  0.5562 -0.0886
 3041POPC   GL136747  19.102  26.789  15.249 -0.1647 -0.0103 -0.1978
 3041POPC   GL236748  18.873  26.635  15.478  0.1372 -0.1236  0.0744
 3041POPC   C1A36749  19.374  26.830  15.602 -0.0539  0.0047  0.2528
 3041POPC   D2A36750  19.573  26.968  15.996 -0.0237 -0.0205 -0.0234
 3041POPC   C3A36751  19.588  26.974  16.426 -0.1580  0.3384 -0.1657
 3041POPC   C4A36752  19.355  27.094  16.821  0.0250  0.1153  0.0074
 3041POPC   C1B36753  19.110  26.394  15.843  0.0108 -0.2898  0.0769
 3041POPC   C2B36754  19.225  26.260  16.279 -0.1322  0.2209 -0.1664
 3041POPC   C3B36755  19.603  26.114  16.514  0.0471 -0.0547  0.0316
 3041POPC   C4B36756  19.819  25.819  16.828 -0.0853  0.2566  0.1467
 3042POPC   NC336757  30.219  30.694  15.306 -0.2343  0.0601 -0.1389
 3042POPC   PO436758  29.935  30.991  15.316 -0.0194 -0.2203  0.0940
 3042POPC   GL136759  29.759  30.970  15.638 -0.1950 -0.0247 -0.2619
 3042POPC   GL236760  29.971  30.884  15.780  0.0477 -0.2281 -0.1506
 3042POPC   C1A36761  29.280  31.059  15.726 -0.0902 -0.0152  0.1479
 3042POPC   D2A36762  28.928  30.806  15.665 -0.0137  0.2225 -0.0311
 3042POPC   C3A36763  28.571  30.619  15.828 -0.1372 -0.0518 -0.1161
 3042POPC   C4A36764  28.267  30.725  16.220 -0.1997  0.0557  0.5776
 3042POPC   C1B36765  29.727  31.022  16.169 -0.0589 -0.1491 -0.3526
 3042POPC   C2B36766  29.603  30.877  16.607  0.0602 -0.0654 -0.0001
 3042POPC   C3B36767  29.527  30.520  16.858 -0.0399 -0.1741  0.0905
 3042POPC   C4B36768  29.744  30.468  17.284  0.0204 -0.1042 -0.1794
 3043POPC   NC336769   0.996  19.343  15.429  0.0156 -0.1490 -0.1213
 3043POPC   PO436770   0.928  18.969  15.442  0.0774  0.0520 -0.1753
 3043POPC   GL136771   1.221  18.806  15.762  0.1891 -0.1330  0.0694
 3043POPC   GL236772   1.092  18.643  16.015  0.1468 -0.1313  0.2260
 3043POPC   C1A36773   1.577  18.919  16.061  0.0606  0.2483  0.1391
 3043POPC   D2A36774   1.890  18.843  16.389 -0.1821  0.3557  0.2264
 3043POPC   C3A36775   1.812  18.404  16.420 -0.0494  0.0179 -0.1662
 3043POPC   C4A36776   1.742  18.155  16.768  0.0568 -0.0408 -0.0235
 3043POPC   C1B36777   1.223  18.730  16.448 -0.0417  0.0790 -0.0836
 3043POPC   C2B36778   1.499  18.747  16.762  0.1580 -0.1325  0.1979
 3043POPC   C3B36779   1.936  18.613  16.835 -0.0333  0.0663 -0.2406
 3043POPC   C4B36780   2.302  18.390  16.677 -0.2109  0.1028  0.0759
 3044POPC   NC336781   6.223   9.870  14.870 -0.0932  0.1407 -0.2265
 3044POPC   PO436782   6.168   9.483  15.008  0.4316 -0.1484  0.1000
 3044POPC   GL136783   6.360   9.430  15.323 -0.0073  0.2785 -0.1808
 3044POPC   GL236784   6.115   9.351  15.529 -0.1567  0.1489 -0.1002
 3044POPC   C1A36785   6.468   9.455  15.813 -0.0501 -0.0720  0.1351
 3044POPC   D2A36786   6.514   9.438  16.289 -0.3054 -0.0405 -0.1802
 3044POPC   C3A36787   6.802   9.208  16.521 -0.1859  0.2250 -0.1655
 3044POPC   C4A36788   7.226   9.300  16.754  0.0826  0.1618 -0.2343
 3044POPC   C1B36789   6.125   9.218  15.997  0.0488  0.1522  0.2147
 3044POPC   C2B36790   6.033   9.391  16.427 -0.1822  0.1367  0.2240
 3044POPC   C3B36791   5.931   9.660  16.809 -0.3750 -0.0606 -0.2278
 3044POPC   C4B36792   6.244   9.634  17.195 -0.1278  0.2304 -0.0806
 3045POPC   NC336793  20.462  13.802  14.814  0.4612  0.0092  0.1394
 3045POPC   PO436794  20.276  13.478  14.960 -0.0799  0.1844 -0.2801
 3045POPC   GL136795  20.289  13.760  15.224  0.1765 -0.3207 -0.2457
 3045POPC   GL236796  20.492  13.870  15.280  0.1877  0.2303  0.2681
 3045POPC   C1A36797  20.256  13.871  15.697 -0.0564  0.2511  0.2313
 3045POPC   D2A36798  19.998  14.179  15.891 -0.0807  0.2195  0.0272
 3045POPC   C3A36799  20.011  14.259  16.339  0.0340 -0.0558  0.2024
 3045POPC   C4A36800  19.834  14.163  16.754 -0.2968  0.1064 -0.2384
 3045POPC   C1B36801  20.638  13.602  15.587 -0.0701  0.4332  0.2480
 3045POPC   C2B36802  20.475  13.412  15.983 -0.1339 -0.0377  0.0135
 3045POPC   C3B36803  20.403  13.332  16.403 -0.1913 -0.0799 -0.2248
 3045POPC   C4B36804  20.233  13.292  16.859 -0.0281  0.2110 -0.0404
 3046POPC   NC336805  25.156  18.667  14.908  0.3072 -0.0487 -0.2332
 3046POPC   PO436806  25.102  19.038  15.020  0.1537 -0.2849  0.0409
 3046POPC   GL136807  25.328  19.090  15.313 -0.1104 -0.1094  0.1444
 3046POPC   GL236808  25.194  19.145  15.540  0.0344 -0.1753 -0.0245
 3046POPC   C1A36809  25.646  19.186  15.631 -0.2072  0.0295 -0.0410
 3046POPC   D2A36810  25.966  18.983  15.820 -0.1094 -0.0416  0.0478
 3046POPC   C3A36811  26.166  18.900  16.260  0.5414  0.0980 -0.0203
 3046POPC   C4A36812  26.128  18.730  16.705  0.0516 -0.0803 -0.1602
 3046POPC   C1B36813  25.163  19.052  16.011 -0.3235 -0.2047  0.0930
 3046POPC   C2B36814  25.170  18.953  16.464  0.0597  0.0171  0.0165
 3046POPC   C3B36815  25.259  19.083  16.888 -0.0129  0.2648 -0.2911
 3046POPC   C4B36816  25.604  19.233  17.107 -0.1257  0.6061 -0.1624
 3047POPC   NC336817  12.616  22.084  15.224  0.2036 -0.0349 -0.3718
 3047POPC   PO436818  12.695  21.731  15.182 -0.4153 -0.0462 -0.0504
 3047POPC   GL136819  12.750  21.651  15.554  0.1468  0.2602  0.0825
 3047POPC   GL236820  12.911  21.919  15.587 -0.0615 -0.0803  0.0135
 3047POPC   C1A36821  12.525  21.311  15.821  0.1600  0.2289 -0.1622
 3047POPC   D2A36822  12.300  20.973  16.047  0.0346 -0.0556 -0.3912
 3047POPC   C3A36823  12.489  20.641  16.286 -0.1895 -0.0373 -0.1222
 3047POPC   C4A36824  12.698  20.258  16.259 -0.2833 -0.0279 -0.0340
 3047POPC   C1B36825  12.985  21.630  15.912 -0.1833  0.0468  0.0149
 3047POPC   C2B36826  12.853  21.565  16.346  0.0648  0.1544  0.1255
 3047POPC   C3B36827  12.872  21.893  16.671 -0.1454  0.1792 -0.2070
 3047POPC   C4B36828  12.769  22.026  17.125 -0.1808  0.2022 -0.1385
 3048POPC   NC336829  21.669  21.226  15.124 -0.2240 -0.0078 -0.2934
 3048POPC   PO436830  21.600  21.231  15.522  0.0288 -0.1259 -0.3314
 3048POPC   GL136831  21.636  20.840  15.688  0.1605 -0.2180  0.0885
 3048POPC   GL236832  21.346  20.831  15.841 -0.3272 -0.0062 -0.1401
 3048POPC   C1A36833  21.856  20.498  15.942  0.1213  0.4030 -0.0219
 3048POPC   D2A36834  21.932  20.231  16.307  0.3271  0.0333  0.2144
 3048POPC   C3A36835  21.743  20.331  16.678 -0.5522 -0.0617  0.2095
 3048POPC   C4A36836  21.945  20.674  16.993  0.0106 -0.0726 -0.0107
 3048POPC   C1B36837  21.600  20.914  16.171  0.0291 -0.1131 -0.0091
 3048POPC   C2B36838  21.559  20.822  16.572  0.2145  0.0444  0.2204
 3048POPC   C3B36839  21.469  20.602  16.958  0.0875 -0.1171  0.4062
 3048POPC   C4B36840  21.353  20.649  17.428 -0.0247  0.1107  0.1022
 3049POPC   NC336841   3.487  28.178  15.184 -0.0214 -0.0139  0.0376
 3049POPC   PO436842   3.388  27.786  15.214 -0.2000  0.0014 -0.0403
 3049POPC   GL136843   3.435  27.859  15.590  0.2452 -0.0495  0.1069
 3049POPC   GL236844   3.255  28.058  15.662 -0.5857 -0.0046  0.0516
 3049POPC   C1A36845   3.593  27.876  15.987 -0.1857 -0.0810  0.1247
 3049POPC   D2A36846   3.790  27.910  16.427  0.0320 -0.0020  0.2616
 3049POPC   C3A36847   4.001  28.276  16.633 -0.1728 -0.1043 -0.0481
 3049POPC   C4A36848   3.987  28.555  16.978  0.1766 -0.1500 -0.0345
 3049POPC   C1B36849   3.582  28.406  15.713 -0.0716  0.0815 -0.1009
 3049POPC   C2B36850   3.849  28.743  15.714 -0.3411  0.1358 -0.0701
 3049POPC   C3B36851   3.925  29.184  15.896 -0.2561  0.1862  0.0489
 3049POPC   C4B36852   4.121  29.388  16.327 -0.0360  0.1521  0.1995
 3050POPC   NC336853  14.841  20.416  15.226 -0.4256  0.2719 -0.0490
 3050POPC   PO436854  14.992  20.790  15.264  0.0365 -0.0323  0.0953
 3050POPC   GL136855  15.062  20.701  15.615  0.2842 -0.0367 -0.0453
 3050POPC   GL236856  14.903  20.853  15.870  0.0216  0.1323 -0.2596
 3050POPC   C1A36857  15.413  20.584  15.890 -0.1995 -0.3060 -0.1172
 3050POPC   D2A36858  15.703  20.738  16.203 -0.2757 -0.0061 -0.1208
 3050POPC   C3A36859  15.741  20.878  16.631  0.1954 -0.4023 -0.0586
 3050POPC   C4A36860  15.632  21.287  16.846 -0.1627 -0.2966 -0.2110
 3050POPC   C1B36861  14.789  20.976  16.252  0.2765  0.3733 -0.1805
 3050POPC   C2B36862  14.478  20.935  16.574 -0.0791 -0.3450 -0.0760
 3050POPC   C3B36863  14.264  20.717  16.925  0.2530 -0.2572 -0.0260
 3050POPC   C4B36864  13.943  20.522  17.134  0.0192  0.1084 -0.1541
 3051POPC   NC336865  30.630  25.926  14.231 -0.3241 -0.0896  0.0026
 3051POPC   PO436866  30.605  26.292  14.098 -0.2158  0.2156 -0.1694
 3051POPC   GL136867  30.486  26.278  14.574  0.1368  0.1035 -0.3295
 3051POPC   GL236868  30.639  26.092  14.775 -0.1464  0.0617 -0.1331
 3051POPC   C1A36869  30.181  25.964  14.607  0.3047 -0.0895 -0.1668
 3051POPC   D2A36870  29.955  25.638  14.888  0.0714 -0.2508 -0.1656
 3051POPC   C3A36871  30.015  25.216  14.766 -0.1863  0.2482 -0.0354
 3051POPC   C4A36872  30.161  24.830  14.891 -0.1069 -0.1162 -0.3408
 3051POPC   C1B36873  31.003  25.740  14.781  0.0118  0.4457 -0.1945
 3051POPC   C2B36874  31.033  25.321  14.975 -0.1056 -0.0725 -0.2934
 3051POPC   C3B36875  31.161  24.914  14.894  0.0978  0.1019 -0.2559
 3051POPC   C4B36876  31.019  24.554  14.610  0.1892  0.0211 -0.0859
 3052POPC   NC336877   9.595  23.041  15.154  0.3746 -0.0794  0.2281
 3052POPC   PO436878   9.693  23.437  15.063 -0.1199 -0.1685  0.0819
 3052POPC   GL136879   9.692  23.525  15.428 -0.2339 -0.1143 -0.0466
 3052POPC   GL236880   9.997  23.643  15.440 -0.2879  0.0114 -0.0308
 3052POPC   C1A36881   9.902  23.208  15.711 -0.2015 -0.2155  0.4661
 3052POPC   D2A36882   9.991  23.175  16.145 -0.0102  0.2734  0.0807
 3052POPC   C3A36883   9.904  23.597  16.290 -0.3451  0.2470 -0.0098
 3052POPC   C4A36884   9.791  23.969  16.608  0.1727  0.1027  0.0826
 3052POPC   C1B36885  10.144  23.599  15.873 -0.0445 -0.0187  0.3304
 3052POPC   C2B36886  10.393  23.645  16.243 -0.1988  0.2560  0.2358
 3052POPC   C3B36887  10.263  23.788  16.625  0.0951  0.2770 -0.1021
 3052POPC   C4B36888  10.378  23.725  17.091 -0.0328  0.1655 -0.2842
 3053POPC   NC336889  10.069   3.239  15.242  0.1996  0.1307  0.1070
 3053POPC   PO436890   9.823   2.920  15.230 -0.0178  0.0500  0.3426
 3053POPC   GL136891  10.050   2.831  15.538 -0.2143 -0.0899  0.6693
 3053POPC   GL236892  10.155   2.972  15.791 -0.0806 -0.0542  0.0160
 3053POPC   C1A36893   9.756   2.673  15.866  0.1424 -0.1451  0.0618
 3053POPC   D2A36894   9.396   2.782  16.138  0.0232  0.2068 -0.1188
 3053POPC   C3A36895   9.266   3.074  16.494  0.1236 -0.0332 -0.0555
 3053POPC   C4A36896   9.333   3.385  16.842 -0.1794 -0.4281 -0.2895
 3053POPC   C1B36897  10.400   2.944  16.195 -0.1942 -0.0833  0.5170
 3053POPC   C2B36898  10.445   2.875  16.575 -0.1119  0.2053 -0.0798
 3053POPC   C3B36899  10.186   2.914  16.942  0.0823  0.0317 -0.1618
 3053POPC   C4B36900   9.996   2.832  17.353 -0.0820 -0.1637 -0.0003
 3054POPC   NC336901  21.155  14.724  15.060 -0.1127 -0.2334  0.0149
 3054POPC   PO436902  20.791  14.710  14.870  0.1661  0.2516  0.0812
 3054POPC   GL136903  20.762  14.889  15.218  0.5291 -0.1337  0.0723
 3054POPC   GL236904  20.955  15.013  15.455  0.0894  0.0457  0.1168
 3054POPC   C1A36905  20.411  15.221  15.378  0.1814  0.2522 -0.1658
 3054POPC   D2A36906  20.054  15.506  15.391 -0.0845 -0.0646 -0.0169
 3054POPC   C3A36907  19.633  15.487  15.149  0.0378 -0.1576 -0.2620
 3054POPC   C4A36908  19.183  15.468  15.278  0.1449  0.0306 -0.0968
 3054POPC   C1B36909  20.783  15.031  15.841  0.0425 -0.1160  0.2369
 3054POPC   C2B36910  20.723  15.179  16.289  0.0615  0.1848  0.1303
 3054POPC   C3B36911  20.493  15.008  16.665  0.1552  0.0140  0.0317
 3054POPC   C4B36912  20.639  14.776  17.051 -0.0259  0.0068 -0.1411
 3055POPC   NC336913  15.657  21.582  15.185  0.1547 -0.1864 -0.1983
 3055POPC   PO436914  15.947  21.327  15.100  0.1322  0.2780 -0.2083
 3055POPC   GL136915  16.008  21.384  15.455 -0.0201 -0.2412  0.1580
 3055POPC   GL236916  15.818  21.441  15.606 -0.0020 -0.4870 -0.2668
 3055POPC   C1A36917  16.393  21.576  15.643 -0.0812  0.1473  0.0376
 3055POPC   D2A36918  16.698  21.312  15.887  0.2022  0.2283 -0.0357
 3055POPC   C3A36919  16.865  21.673  16.150  0.0454 -0.0894 -0.3121
 3055POPC   C4A36920  17.057  21.679  16.620  0.0219  0.3432  0.1457
 3055POPC   C1B36921  16.005  21.528  15.983  0.1559  0.1531  0.0850
 3055POPC   C2B36922  16.376  21.501  16.241  0.1111 -0.1797 -0.2478
 3055POPC   C3B36923  16.720  21.321  16.471  0.0577 -0.0601 -0.4460
 3055POPC   C4B36924  17.050  21.185  16.245  0.2095  0.1006  0.3316
 3056POPC   NC336925  13.333  22.774  15.392 -0.0320 -0.1162  0.0067
 3056POPC   PO436926  13.628  22.576  15.294 -0.1002  0.1650 -0.0746
 3056POPC   GL136927  13.547  22.563  15.722  0.0122 -0.0452 -0.2696
 3056POPC   GL236928  13.526  22.795  15.915  0.0647 -0.0273 -0.0619
 3056POPC   C1A36929  13.166  22.297  15.892 -0.0452  0.0514  0.2572
 3056POPC   D2A36930  13.301  21.914  16.123  0.0875 -0.0838 -0.6285
 3056POPC   C3A36931  13.389  21.998  16.597 -0.0216  0.0079 -0.3264
 3056POPC   C4A36932  13.302  21.757  16.990 -0.1576  0.0827  0.0102
 3056POPC   C1B36933  13.293  22.762  16.321 -0.1141  0.1079  0.0311
 3056POPC   C2B36934  13.120  22.597  16.708 -0.1230 -0.0248 -0.1903
 3056POPC   C3B36935  12.787  22.582  17.098  0.2828 -0.1518 -0.0792
 3056POPC   C4B36936  12.746  22.406  17.513  0.3436 -0.1008  0.2900
 3057POPC   NC336937  18.401  30.089  15.216 -0.1079  0.1504 -0.3243
 3057POPC   PO436938  18.448  30.437  15.371  0.1782 -0.2405  0.1196
 3057POPC   GL136939  18.404  30.491  15.746  0.0143 -0.0772  0.2416
 3057POPC   GL236940  18.263  30.708  15.897  0.1232  0.2144 -0.0040
 3057POPC   C1A36941  18.236  30.227  16.103  0.2217  0.0772 -0.2673
 3057POPC   D2A36942  17.955  30.175  16.498 -0.2305 -0.0868 -0.0034
 3057POPC   C3A36943  18.174  29.939  16.849  0.1569  0.2484 -0.2311
 3057POPC   C4A36944  18.561  29.707  16.896 -0.3663 -0.0315 -0.1109
 3057POPC   C1B36945  17.994  30.643  16.241 -0.1447 -0.1471  0.0925
 3057POPC   C2B36946  18.021  30.624  16.724  0.0634 -0.1419  0.2665
 3057POPC   C3B36947  17.881  30.572  17.128  0.0678  0.0916  0.0812
 3057POPC   C4B36948  17.458  30.527  17.256 -0.2181 -0.2461  0.2141
 3058POPC   NC336949  29.039   8.787  14.219  0.5648  0.0642 -0.0262
 3058POPC   PO436950  29.313   8.650  14.497  0.1253  0.1667 -0.2903
 3058POPC   GL136951  29.190   8.284  14.556  0.5454 -0.2489  0.0985
 3058POPC   GL236952  29.139   8.202  14.827  0.0776  0.1722 -0.1087
 3058POPC   C1A36953  28.710   8.144  14.591 -0.3236  0.1557 -0.4107
 3058POPC   D2A36954  28.387   7.784  14.677 -0.0442 -0.3019 -0.1391
 3058POPC   C3A36955  28.627   7.429  14.866 -0.2414 -0.1638 -0.3080
 3058POPC   C4A36956  28.637   7.169  15.317  0.2658 -0.1857  0.0370
 3058POPC   C1B36957  28.995   7.801  15.053 -0.4378  0.3514  0.0017
 3058POPC   C2B36958  29.182   7.332  15.081  0.1769 -0.1149 -0.0163
 3058POPC   C3B36959  29.516   7.026  14.928  0.1549  0.2678 -0.2730
 3058POPC   C4B36960  29.870   6.792  15.035 -0.3350 -0.2563 -0.0117
 3059POPC   NC336961  19.063  29.702  15.567 -0.1967 -0.0776 -0.1202
 3059POPC   PO436962  19.256  30.032  15.661 -0.2253  0.2801  0.3486
 3059POPC   GL136963  19.343  29.958  15.947  0.1322  0.0411 -0.3705
 3059POPC   GL236964  19.201  29.729  16.081  0.3694 -0.2733  0.1959
 3059POPC   C1A36965  19.637  30.143  16.215  0.0395 -0.1288  0.0844
 3059POPC   D2A36966  19.844  30.428  16.479  0.3086 -0.3243  0.2423
 3059POPC   C3A36967  19.686  30.299  16.933 -0.1598 -0.2592 -0.2847
 3059POPC   C4A36968  19.674  30.289  17.383 -0.0007 -0.1601  0.0802
 3059POPC   C1B36969  19.286  29.705  16.501 -0.1934  0.2215 -0.2747
 3059POPC   C2B36970  19.090  29.610  16.870  0.1686  0.0692 -0.0840
 3059POPC   C3B36971  18.950  29.691  17.293  0.0550  0.0306  0.0895
 3059POPC   C4B36972  19.003  30.044  17.671 -0.0376 -0.1421  0.4309
 3060POPC   NC336973   4.900  18.253  15.210  0.0703 -0.3857 -0.1767
 3060POPC   PO436974   5.069  18.637  15.283  0.5578  0.1444  0.2355
 3060POPC   GL136975   4.828  18.868  15.448  0.0548 -0.1628 -0.1935
 3060POPC   GL236976   5.094  18.887  15.701 -0.1771 -0.1878 -0.1869
 3060POPC   C1A36977   4.504  19.011  15.742  0.0203 -0.2726 -0.1075
 3060POPC   D2A36978   4.103  18.985  15.962 -0.0533 -0.0387 -0.1773
 3060POPC   C3A36979   3.931  18.668  16.229  0.1391  0.0495 -0.1631
 3060POPC   C4A36980   3.858  18.464  16.641  0.1702  0.3359 -0.1761
 3060POPC   C1B36981   5.006  18.920  16.194  0.1087  0.1653  0.0979
 3060POPC   C2B36982   4.837  18.657  16.599 -0.2235 -0.2899 -0.1434
 3060POPC   C3B36983   4.679  18.700  17.057  0.2053 -0.0449  0.0783
 3060POPC   C4B36984   4.371  18.695  17.435  0.0849 -0.0594 -0.1328
 3061POPC   NC336985  24.097  22.071  14.996  0.0677 -0.0765  0.2109
 3061POPC   PO436986  23.993  21.726  14.924 -0.2112 -0.1069 -0.0363
 3061POPC   GL136987  24.125  21.432  15.231  0.4416  0.1305  0.1712
 3061POPC   GL236988  24.323  21.598  15.291 -0.0257  0.1506 -0.1129
 3061POPC   C1A36989  24.185  21.450  15.709 -0.0017  0.0575  0.1312
 3061POPC   D2A36990  24.086  21.314  16.128  0.1005 -0.3272 -0.1160
 3061POPC   C3A36991  23.749  21.477  16.426 -0.2350  0.2242  0.2091
 3061POPC   C4A36992  23.352  21.297  16.446 -0.0640  0.0713 -0.3390
 3061POPC   C1B36993  24.219  21.972  15.502  0.1148  0.0007  0.2723
 3061POPC   C2B36994  23.942  22.297  15.617  0.0459  0.0983 -0.0453
 3061POPC   C3B36995  23.835  22.615  15.979 -0.1615 -0.0337  0.0394
 3061POPC   C4B36996  23.741  22.945  16.317 -0.0699 -0.0872  0.1285
 3062POPC   NC336997  10.617  18.560  15.348 -0.0089  0.1120 -0.1210
 3062POPC   PO436998  10.968  18.494  15.250 -0.2518  0.0661 -0.0242
 3062POPC   GL136999  11.073  18.102  15.287  0.3099  0.5369 -0.0904
 3062POPC   GL237000  10.945  17.880  15.563 -0.1392 -0.1865  0.1245
 3062POPC   C1A37001  11.478  18.020  15.410 -0.2775  0.1539 -0.0562
 3062POPC   D2A37002  11.636  17.957  15.860 -0.1844 -0.3747  0.0555
 3062POPC   C3A37003  11.466  17.646  16.157  0.0834 -0.2477 -0.1408
 3062POPC   C4A37004  11.539  17.384  16.597  0.1587  0.0856  0.1430
 3062POPC   C1B37005  11.109  17.990  15.962 -0.1597 -0.0060 -0.1476
 3062POPC   C2B37006  11.198  17.913  16.442  0.2058  0.0371  0.1004
 3062POPC   C3B37007  11.268  17.733  16.875  0.0211 -0.2156  0.1389
 3062POPC   C4B37008  11.243  17.611  17.326 -0.2650  0.0297 -0.0566
 3063POPC   NC337009   9.156  14.590  15.603 -0.1589 -0.0571  0.2033
 3063POPC   PO437010   8.870  14.705  15.341 -0.1746  0.1185  0.1114
 3063POPC   GL137011   8.708  14.751  15.650 -0.3784  0.0224  0.0199
 3063POPC   GL237012   8.695  14.533  15.842  0.0502 -0.3209 -0.1460
 3063POPC   C1A37013   8.959  14.890  16.007  0.0634  0.1945 -0.3962
 3063POPC   D2A37014   9.030  15.104  16.464  0.0403  0.1524 -0.0485
 3063POPC   C3A37015   9.095  14.962  16.895  0.2123  0.1215  0.1302
 3063POPC   C4A37016   9.039  14.769  17.297  0.3366 -0.1396 -0.2225
 3063POPC   C1B37017   8.795  14.490  16.286 -0.0747 -0.1857  0.0087
 3063POPC   C2B37018   8.974  14.422  16.750  0.2051 -0.2632  0.2612
 3063POPC   C3B37019   9.028  14.289  17.231 -0.0903  0.3726 -0.0483
 3063POPC   C4B37020   9.200  14.003  17.560 -0.0501 -0.3384 -0.2509
 3064POPC   NC337021  17.874   0.864  15.164 -0.0200 -0.3859 -0.0450
 3064POPC   PO437022  18.018   0.741  15.518 -0.0182 -0.0627  0.0110
 3064POPC   GL137023  18.035   0.806  15.859  0.1667 -0.1625 -0.4386
 3064POPC   GL237024  18.166   0.541  15.924  0.1359  0.1423 -0.0241
 3064POPC   C1A37025  17.936   0.795  16.328 -0.0342  0.6577 -0.0536
 3064POPC   D2A37026  18.020   0.745  16.801 -0.2970 -0.1564  0.0376
 3064POPC   C3A37027  18.005   1.071  17.090  0.0713 -0.0338 -0.2141
 3064POPC   C4A37028  18.058   1.495  17.338  0.2494  0.0453 -0.1351
 3064POPC   C1B37029  17.787   0.335  16.107 -0.2638  0.0094  0.0692
 3064POPC   C2B37030  17.761   0.365  16.565  0.1616  0.0447 -0.1682
 3064POPC   C3B37031  17.440   0.175  16.784  0.0242  0.3201  0.3379
 3064POPC   C4B37032  16.998   0.115  16.865 -0.0178  0.0943 -0.2176
 3065POPC   NC337033  25.668   4.742  15.078 -0.0706  0.2875 -0.0496
 3065POPC   PO437034  25.983   4.896  15.228  0.1528 -0.1691 -0.0077
 3065POPC   GL137035  25.804   4.719  15.529 -0.0074  0.2575  0.2286
 3065POPC   GL237036  26.046   4.676  15.740 -0.1748 -0.0780 -0.0653
 3065POPC   C1A37037  25.417   4.670  15.712 -0.0358 -0.2405  0.0098
 3065POPC   D2A37038  25.094   4.659  16.090 -0.0446 -0.2792  0.1880
 3065POPC   C3A37039  25.393   5.004  16.197  0.0036  0.2291 -0.1471
 3065POPC   C4A37040  25.554   5.449  16.164  0.0450  0.0280  0.0473
 3065POPC   C1B37041  25.882   4.821  16.159 -0.0501 -0.0463  0.1588
 3065POPC   C2B37042  25.773   4.931  16.671 -0.2080 -0.1079 -0.0965
 3065POPC   C3B37043  25.876   4.512  16.871 -0.1848  0.0938  0.4486
 3065POPC   C4B37044  25.877   4.081  16.799 -0.1418  0.0585  0.1189
 3066POPC   NC337045   2.877   8.727  14.801  0.1376 -0.0141 -0.0331
 3066POPC   PO437046   2.623   8.444  14.850 -0.0112  0.3542 -0.0838
 3066POPC   GL137047   2.781   8.614  15.229 -0.0196  0.0151 -0.0236
 3066POPC   GL237048   2.802   8.369  15.433  0.0188 -0.1183 -0.1461
 3066POPC   C1A37049   2.551   8.809  15.584  0.0813 -0.0752 -0.1448
 3066POPC   D2A37050   2.776   9.201  15.790 -0.1367 -0.2214 -0.2212
 3066POPC   C3A37051   2.898   9.199  16.241  0.0069  0.0539  0.3340
 3066POPC   C4A37052   3.156   9.140  16.608 -0.1624  0.0219  0.1730
 3066POPC   C1B37053   2.616   8.394  15.833 -0.2031  0.1020  0.1222
 3066POPC   C2B37054   2.356   8.526  16.204  0.1868 -0.0393 -0.0354
 3066POPC   C3B37055   2.032   8.552  16.557 -0.1314  0.2844  0.1034
 3066POPC   C4B37056   1.701   8.642  16.809  0.0301 -0.0775 -0.1200
 3067POPC   NC337057  20.516  29.784  15.859  0.0188 -0.4812  0.1719
 3067POPC   PO437058  20.770  29.841  15.571  0.1354  0.1910  0.1507
 3067POPC   GL137059  20.942  29.771  15.911 -0.0825  0.2189 -0.3980
 3067POPC   GL237060  20.983  30.109  15.971  0.2526 -0.2104 -0.1797
 3067POPC   C1A37061  20.818  29.508  16.292  0.3304  0.2114  0.1953
 3067POPC   D2A37062  20.592  29.428  16.704  0.0740  0.1738  0.0824
 3067POPC   C3A37063  20.139  29.491  16.936  0.4471 -0.1317  0.1865
 3067POPC   C4A37064  19.909  29.861  17.184 -0.2033 -0.1083  0.0067
 3067POPC   C1B37065  21.058  30.430  16.336  0.1791  0.1297 -0.0674
 3067POPC   C2B37066  20.925  30.665  16.718 -0.1994 -0.0801  0.3051
 3067POPC   C3B37067  20.541  30.815  16.922 -0.3333 -0.0248 -0.0392
 3067POPC   C4B37068  20.237  30.878  17.266  0.3137 -0.1499  0.0554
 3068POPC   NC337069   0.268  11.174  15.298  0.1302 -0.0435 -0.0668
 3068POPC   PO437070   0.551  11.104  15.559  0.2310  0.3382 -0.4488
 3068POPC   GL137071   0.571  11.111  15.932  0.3872  0.0079  0.0240
 3068POPC   GL237072   0.743  10.899  15.975  0.3756 -0.0575 -0.0197
 3068POPC   C1A37073   0.270  10.869  16.262 -0.1544 -0.2821  0.2538
 3068POPC   D2A37074   0.143  10.959  16.689 -0.0567  0.0081  0.0338
 3068POPC   C3A37075   0.554  10.971  16.782 -0.3121  0.0758  0.1372
 3068POPC   C4A37076   1.003  10.953  16.905 -0.1470  0.0978  0.3434
 3068POPC   C1B37077   0.850  11.068  16.389 -0.2530 -0.0155 -0.2240
 3068POPC   C2B37078   0.790  11.390  16.717  0.1717 -0.2641  0.1375
 3068POPC   C3B37079   0.710  11.391  17.187  0.4187 -0.1288  0.0219
 3068POPC   C4B37080   0.754  11.578  17.616  0.0802 -0.2079 -0.0217
 3069POPC   NC337081  10.955   7.619  15.555 -0.1308 -0.0884  0.1213
 3069POPC   PO437082  11.353   7.492  15.544  0.1064 -0.0042 -0.1129
 3069POPC   GL137083  11.355   7.645  15.965  0.4429 -0.0863  0.1167
 3069POPC   GL237084  11.145   7.677  16.126  0.1110 -0.2233 -0.0873
 3069POPC   C1A37085  11.480   7.330  16.279  0.0080  0.1451  0.0547
 3069POPC   D2A37086  11.488   6.985  16.616  0.2531  0.1723 -0.1043
 3069POPC   C3A37087  11.639   6.989  17.039 -0.0973  0.0688  0.0858
 3069POPC   C4A37088  11.654   7.215  17.459  0.2825  0.0094 -0.1902
 3069POPC   C1B37089  11.006   7.761  16.504  0.0182  0.1361 -0.0851
 3069POPC   C2B37090  10.933   7.987  16.887  0.1971  0.1725  0.1852
 3069POPC   C3B37091  10.844   8.315  17.257 -0.0241  0.2055  0.2438
 3069POPC   C4B37092  10.947   8.626  17.591 -0.1354 -0.2524  0.1968
 3070POPC   NC337093  14.532  15.238  15.558  0.1513 -0.1767  0.0266
 3070POPC   PO437094  14.638  15.572  15.332 -0.1302  0.2520 -0.2317
 3070POPC   GL137095  14.515  15.727  15.642 -0.2197  0.0054 -0.1245
 3070POPC   GL237096  14.425  15.598  15.929 -0.3851 -0.2013 -0.1014
 3070POPC   C1A37097  14.755  15.921  16.024 -0.2008 -0.1992 -0.0901
 3070POPC   D2A37098  14.747  15.863  16.501  0.0181  0.1197  0.2056
 3070POPC   C3A37099  15.099  15.910  16.786 -0.0725  0.0117  0.2884
 3070POPC   C4A37100  15.501  16.003  16.972  0.0320 -0.0160 -0.1730
 3070POPC   C1B37101  14.471  15.475  16.324  0.0587  0.0229 -0.0058
 3070POPC   C2B37102  14.314  15.387  16.796  0.0281  0.3134 -0.1834
 3070POPC   C3B37103  14.078  15.593  17.100  0.0554 -0.0781  0.3024
 3070POPC   C4B37104  13.928  16.082  17.188  0.0331 -0.0653 -0.3438
 3071POPC   NC337105  24.479   8.025  14.681  0.2754  0.2799  0.3033
 3071POPC   PO437106  24.383   7.959  15.050 -0.0761 -0.3741  0.3557
 3071POPC   GL137107  24.282   7.794  15.405  0.3097 -0.0739 -0.1178
 3071POPC   GL237108  24.472   7.681  15.550 -0.0982  0.1485 -0.1283
 3071POPC   C1A37109  24.029   7.870  15.795  0.0094 -0.2230 -0.1844
 3071POPC   D2A37110  24.213   7.832  16.188 -0.1019  0.0039  0.0054
 3071POPC   C3A37111  24.520   7.558  16.422  0.1333 -0.1000  0.0899
 3071POPC   C4A37112  24.726   7.409  16.785 -0.3431  0.0878 -0.4289
 3071POPC   C1B37113  24.702   7.643  15.942 -0.0269  0.2968  0.2542
 3071POPC   C2B37114  24.852   7.987  16.272 -0.2905  0.2644 -0.2166
 3071POPC   C3B37115  24.763   7.905  16.706  0.0191 -0.1671  0.0889
 3071POPC   C4B37116  24.318   7.777  16.855 -0.0259 -0.4906 -0.0606
 3072POPC   NC337117   0.184  19.483  15.304  0.1661 -0.1799  0.3491
 3072POPC   PO437118   0.431  19.260  15.483  0.2017 -0.2657  0.2083
 3072POPC   GL137119   0.386  19.123  15.749 -0.1183  0.1688  0.0970
 3072POPC   GL237120   0.626  19.073  15.912 -0.2587  0.2710  0.1217
 3072POPC   C1A37121   0.247  18.976  16.197  0.1824 -0.1020  0.1881
 3072POPC   D2A37122   0.296  18.651  16.553  0.3116 -0.0189 -0.0819
 3072POPC   C3A37123   0.535  18.751  16.961 -0.0643 -0.4122 -0.1434
 3072POPC   C4A37124   0.693  19.112  17.102 -0.0774  0.0535  0.0788
 3072POPC   C1B37125   0.592  18.620  16.110  0.0073  0.0182 -0.0761
 3072POPC   C2B37126   0.779  18.421  16.513  0.1370 -0.0027  0.1252
 3072POPC   C3B37127   0.593  18.303  16.876 -0.1180  0.0716 -0.2718
 3072POPC   C4B37128   0.668  18.186  17.285 -0.1273  0.2661 -0.0810
 3073POPC   NC337129  23.356  17.531  15.800 -0.1121 -0.2169  0.4064
 3073POPC   PO437130  23.652  17.589  15.599 -0.0939  0.2261 -0.1920
 3073POPC   GL137131  23.851  17.582  15.919 -0.0346  0.0524 -0.0639
 3073POPC   GL237132  23.993  17.847  15.898 -0.0455 -0.2109  0.1996
 3073POPC   C1A37133  23.736  17.287  16.290  0.2290  0.1767  0.0836
 3073POPC   D2A37134  23.822  17.334  16.785  0.0424  0.3645  0.0163
 3073POPC   C3A37135  23.991  17.129  17.144 -0.3076 -0.2356 -0.2216
 3073POPC   C4A37136  24.268  17.206  17.490 -0.1214 -0.0867  0.0399
 3073POPC   C1B37137  24.188  17.658  16.288 -0.1094 -0.0004 -0.1375
 3073POPC   C2B37138  24.184  17.696  16.787  0.0862  0.1088 -0.0350
 3073POPC   C3B37139  24.406  17.402  17.070 -0.3600  0.0923  0.4134
 3073POPC   C4B37140  24.809  17.282  17.279 -0.1397  0.1110 -0.1779
 3074POPC   NC337141  13.158  28.176  15.253  0.1468  0.0813  0.1185
 3074POPC   PO437142  13.326  28.508  15.422  0.1904  0.0479  0.2344
 3074POPC   GL137143  13.277  28.693  15.791  0.2146 -0.0697 -0.0906
 3074POPC   GL237144  13.089  28.973  15.660 -0.2219  0.2379  0.0521
 3074POPC   C1A37145  13.182  28.893  16.167  0.2157  0.1893  0.1418
 3074POPC   D2A37146  12.992  28.944  16.563  0.0193  0.0522 -0.1252
 3074POPC   C3A37147  13.114  29.064  16.978  0.1272 -0.1573 -0.4093
 3074POPC   C4A37148  13.214  29.506  17.166  0.2572 -0.0862 -0.3621
 3074POPC   C1B37149  13.475  29.249  15.867  0.0432  0.3463  0.4443
 3074POPC   C2B37150  13.612  29.561  16.128 -0.0071 -0.0240  0.0331
 3074POPC   C3B37151  13.707  29.801  16.538  0.0318  0.1320  0.0902
 3074POPC   C4B37152  13.984  29.589  16.819 -0.0366  0.0496  0.0138
 3075POPC   NC337153   6.825  10.282  14.520 -0.1043 -0.1950  0.2918
 3075POPC   PO437154   6.700  10.089  14.845  0.0042 -0.0337 -0.0078
 3075POPC   GL137155   6.493  10.301  15.169 -0.2837 -0.2258  0.2618
 3075POPC   GL237156   6.474  10.055  15.370  0.2709  0.3423 -0.0097
 3075POPC   C1A37157   6.775  10.623  15.316  0.2757 -0.2779 -0.0239
 3075POPC   D2A37158   6.832  10.975  15.633  0.0432 -0.3794 -0.2503
 3075POPC   C3A37159   6.728  11.012  16.119  0.0902  0.1146  0.0551
 3075POPC   C4A37160   6.600  11.016  16.567  0.1545  0.0484 -0.1736
 3075POPC   C1B37161   6.213   9.841  15.659 -0.2478  0.6010 -0.1652
 3075POPC   C2B37162   5.993   9.704  16.025  0.1533 -0.0546  0.0636
 3075POPC   C3B37163   5.846   9.981  16.316 -0.0020 -0.0236  0.1359
 3075POPC   C4B37164   5.691  10.395  16.407 -0.2642  0.1865  0.0498
 3076POPC   NC337165   1.752  23.626  14.890  0.0165  0.3758  0.1832
 3076POPC   PO437166   1.699  23.393  15.203  0.4407 -0.0285  0.0157
 3076POPC   GL137167   1.647  23.483  15.574  0.0197 -0.1622  0.0286
 3076POPC   GL237168   1.386  23.445  15.714 -0.2523 -0.3703  0.1790
 3076POPC   C1A37169   1.729  23.633  15.999 -0.4414  0.1349  0.2893
 3076POPC   D2A37170   1.762  23.642  16.429  0.0990 -0.1604 -0.1316
 3076POPC   C3A37171   1.564  23.936  16.767 -0.0273 -0.0289  0.0470
 3076POPC   C4A37172   1.223  23.980  17.158  0.2366 -0.1088  0.0119
 3076POPC   C1B37173   1.199  23.659  16.084 -0.0849  0.0354  0.1085
 3076POPC   C2B37174   1.026  23.968  16.322  0.1708  0.5477  0.2022
 3076POPC   C3B37175   0.850  23.885  16.731  0.0116  0.1884 -0.0694
 3076POPC   C4B37176   0.758  23.552  17.041  0.0007 -0.2333 -0.0175
 3077POPC   NC337177   8.791  21.591  15.694  0.0726  0.1145  0.2758
 3077POPC   PO437178   8.429  21.651  15.810  0.0237  0.2184 -0.0521
 3077POPC   GL137179   8.530  21.722  16.200 -0.4719 -0.1472  0.0863
 3077POPC   GL237180   8.781  21.805  16.167 -0.0394 -0.2405 -0.1431
 3077POPC   C1A37181   8.444  21.615  16.619  0.1276  0.1448 -0.1664
 3077POPC   D2A37182   8.491  21.490  17.064 -0.2140 -0.1066  0.0562
 3077POPC   C3A37183   8.416  21.225  17.409  0.5579 -0.0024  0.1783
 3077POPC   C4A37184   8.381  21.067  17.870 -0.0157 -0.3407 -0.0131
 3077POPC   C1B37185   8.958  22.009  16.523 -0.1519 -0.0898 -0.0380
 3077POPC   C2B37186   8.858  22.379  16.804 -0.3139 -0.1956  0.2786
 3077POPC   C3B37187   9.201  22.534  17.068 -0.0345  0.1915 -0.1776
 3077POPC   C4B37188   9.387  22.651  17.453  0.1075  0.2281 -0.2478
 3078POPC   NC337189   2.452   9.714  14.915  0.1282 -0.0336 -0.1507
 3078POPC   PO437190   2.787   9.790  14.997  0.3168  0.0828 -0.0643
 3078POPC   GL137191   2.770   9.858  15.314 -0.0255  0.4797 -0.0180
 3078POPC   GL237192   3.031   9.743  15.450  0.0407  0.2908 -0.0082
 3078POPC   C1A37193   2.677   9.676  15.752 -0.2702 -0.3985 -0.0008
 3078POPC   D2A37194   2.537   9.582  16.238 -0.0999  0.0825  0.1934
 3078POPC   C3A37195   2.938   9.707  16.452 -0.0473  0.0575 -0.1935
 3078POPC   C4A37196   3.021   9.810  16.859 -0.2626  0.1726  0.0839
 3078POPC   C1B37197   3.169   9.563  15.838  0.0900 -0.1495 -0.0749
 3078POPC   C2B37198   3.344   9.637  16.217 -0.0777  0.3285 -0.0760
 3078POPC   C3B37199   3.405   9.603  16.667  0.0662  0.1973  0.0236
 3078POPC   C4B37200   3.791   9.600  16.924  0.2071 -0.2140  0.0034
 3079POPC   NC337201  20.848  25.204  14.700 -0.5667 -0.0831  0.2521
 3079POPC   PO437202  21.058  25.100  15.030  0.0201  0.1582  0.1962
 3079POPC   GL137203  20.840  25.071  15.331 -0.1727  0.0908 -0.2747
 3079POPC   GL237204  20.902  25.250  15.561  0.1288  0.1075  0.2000
 3079POPC   C1A37205  20.628  24.843  15.696 -0.0514 -0.2692  0.4030
 3079POPC   D2A37206  20.598  24.825  16.129  0.0682  0.0204 -0.1666
 3079POPC   C3A37207  20.463  25.053  16.499 -0.1035 -0.2239  0.3007
 3079POPC   C4A37208  20.201  25.351  16.747 -0.1294 -0.1499 -0.0529
 3079POPC   C1B37209  20.779  25.248  16.014 -0.1028  0.0668 -0.1002
 3079POPC   C2B37210  20.840  25.383  16.432 -0.0830 -0.0885 -0.0998
 3079POPC   C3B37211  20.674  25.371  16.834 -0.1821 -0.3501 -0.2737
 3079POPC   C4B37212  20.448  25.179  17.225  0.1951  0.2263  0.0296
 3080POPC   NC337213  10.299  20.055  15.502  0.2315  0.1006  0.0108
 3080POPC   PO437214  10.305  19.674  15.326  0.1511  0.1408  0.2278
 3080POPC   GL137215  10.016  19.623  15.576 -0.2680 -0.1254 -0.4362
 3080POPC   GL237216  10.153  19.562  15.854  0.3620  0.3784 -0.0598
 3080POPC   C1A37217   9.784  19.259  15.745 -0.0678 -0.0464 -0.0997
 3080POPC   D2A37218   9.568  19.182  16.120  0.0022  0.4060  0.0605
 3080POPC   C3A37219   9.394  18.753  16.250  0.1049 -0.1774 -0.3737
 3080POPC   C4A37220   9.186  18.638  16.646  0.1143 -0.3087  0.1596
 3080POPC   C1B37221  10.148  19.242  16.180  0.1370 -0.0134 -0.0282
 3080POPC   C2B37222  10.167  19.108  16.613  0.0091  0.1236 -0.0776
 3080POPC   C3B37223  10.279  18.749  16.879 -0.3301  0.1023 -0.1443
 3080POPC   C4B37224  10.136  18.274  16.903  0.0193 -0.4497  0.4514
 3081POPC   NC337225   4.446   1.534  15.399  0.0462  0.0681  0.2178
 3081POPC   PO437226   4.208   1.800  15.564 -0.2220 -0.1209  0.2295
 3081POPC   GL137227   3.922   1.994  15.579 -0.0188 -0.2497  0.1127
 3081POPC   GL237228   3.677   2.060  15.832 -0.0415  0.0382 -0.3872
 3081POPC   C1A37229   4.050   2.434  15.799 -0.1062 -0.1737 -0.0637
 3081POPC   D2A37230   4.256   2.600  16.161  0.1511  0.2650 -0.2319
 3081POPC   C3A37231   4.415   2.337  16.505 -0.0485 -0.2001  0.1648
 3081POPC   C4A37232   4.405   2.216  16.919  0.2573 -0.2836 -0.0675
 3081POPC   C1B37233   3.541   1.948  16.206 -0.2790  0.1525  0.0094
 3081POPC   C2B37234   3.508   1.910  16.642 -0.3049  0.2014 -0.0803
 3081POPC   C3B37235   3.597   1.766  17.071 -0.3548 -0.0051 -0.1837
 3081POPC   C4B37236   3.880   1.490  17.304 -0.0681  0.0595 -0.1400
 3082POPC   NC337237   4.353  12.249  14.991  0.0749 -0.1196 -0.2762
 3082POPC   PO437238   4.685  12.483  15.108 -0.2876 -0.1433  0.1264
 3082POPC   GL137239   4.640  12.392  15.528 -0.0312  0.1256 -0.2121
 3082POPC   GL237240   4.707  12.669  15.729  0.2448  0.1536 -0.0873
 3082POPC   C1A37241   4.512  12.143  15.868  0.2077 -0.1647  0.0875
 3082POPC   D2A37242   4.526  11.938  16.313  0.3308 -0.1491 -0.0421
 3082POPC   C3A37243   4.765  12.218  16.571  0.1554 -0.1641 -0.0586
 3082POPC   C4A37244   5.085  12.475  16.810 -0.3367 -0.2285 -0.3802
 3082POPC   C1B37245   4.942  12.362  16.063 -0.1432  0.2318 -0.2278
 3082POPC   C2B37246   5.389  12.352  16.312  0.0052  0.0103  0.1648
 3082POPC   C3B37247   5.671  12.395  16.703 -0.0097  0.1907  0.0456
 3082POPC   C4B37248   5.986  12.562  16.997 -0.2483 -0.2570  0.0460
 3083POPC   NC337249  28.824  30.388  15.442  0.3145  0.0723 -0.0844
 3083POPC   PO437250  29.205  30.445  15.292  0.2240 -0.2565  0.0633
 3083POPC   GL137251  29.468  30.356  15.633 -0.3734 -0.3201 -0.0551
 3083POPC   GL237252  29.483  30.602  15.700  0.4210 -0.1055 -0.1449
 3083POPC   C1A37253  29.423  30.184  16.079  0.0030 -0.0545 -0.1817
 3083POPC   D2A37254  29.266  30.284  16.499  0.0863 -0.1144 -0.1099
 3083POPC   C3A37255  29.097  30.711  16.713 -0.1226 -0.0114  0.0788
 3083POPC   C4A37256  29.038  30.685  17.129  0.1831  0.0322  0.1204
 3083POPC   C1B37257  29.795  30.515  16.069 -0.1852  0.0578  0.1442
 3083POPC   C2B37258  29.824  30.291  16.490 -0.1719 -0.1849  0.0607
 3083POPC   C3B37259  29.751  30.093  16.915 -0.2054  0.2723  0.3392
 3083POPC   C4B37260  29.665  29.955  17.309 -0.0242  0.3433  0.0702
 3084POPC   NC337261  20.685  18.531  15.486  0.2415  0.0598 -0.0339
 3084POPC   PO437262  20.555  18.876  15.562 -0.1265  0.0762  0.1288
 3084POPC   GL137263  20.686  18.986  15.952 -0.0400 -0.2829  0.0255
 3084POPC   GL237264  20.391  19.092  16.078  0.1373 -0.1401  0.0752
 3084POPC   C1A37265  20.858  19.385  16.118  0.0408 -0.0551 -0.1431
 3084POPC   D2A37266  21.188  19.611  16.411  0.0874 -0.0287  0.0422
 3084POPC   C3A37267  21.112  19.695  16.830 -0.0255 -0.1404  0.1664
 3084POPC   C4A37268  21.035  19.893  17.239 -0.4510  0.1905  0.1214
 3084POPC   C1B37269  20.409  18.868  16.552 -0.0243  0.2610  0.3627
 3084POPC   C2B37270  20.434  18.788  17.006  0.0346 -0.0282 -0.1194
 3084POPC   C3B37271  20.118  18.875  17.289  0.2868 -0.0767 -0.1426
 3084POPC   C4B37272  19.802  19.211  17.350 -0.2333 -0.1753 -0.0851
 3085POPC   NC337273   5.032  23.898  15.319  0.0501  0.0754  0.1011
 3085POPC   PO437274   5.290  24.092  15.216  0.1051  0.0439  0.0292
 3085POPC   GL137275   5.314  24.230  15.579 -0.0203 -0.0034  0.0885
 3085POPC   GL237276   5.562  24.194  15.734  0.1242 -0.1770  0.2114
 3085POPC   C1A37277   5.189  24.301  16.025 -0.0447  0.1554 -0.0618
 3085POPC   D2A37278   5.337  24.170  16.454  0.0180 -0.0537  0.1236
 3085POPC   C3A37279   5.371  24.061  16.889  0.0044  0.0989  0.0226
 3085POPC   C4A37280   5.365  23.970  17.347 -0.2373 -0.0653  0.1562
 3085POPC   C1B37281   5.664  24.488  16.101 -0.0137 -0.0862 -0.0388
 3085POPC   C2B37282   6.039  24.562  16.389 -0.1289  0.1543  0.2212
 3085POPC   C3B37283   6.217  24.571  16.796  0.0300  0.0588  0.1051
 3085POPC   C4B37284   6.458  24.989  16.882  0.0081 -0.0317  0.2852
 3086POPC   NC337285   5.266   3.037  15.193 -0.0384 -0.0356 -0.0660
 3086POPC   PO437286   5.434   3.349  15.227 -0.2192  0.1680  0.0186
 3086POPC   GL137287   5.370   3.263  15.589 -0.0572  0.0510  0.0995
 3086POPC   GL237288   5.563   3.493  15.648  0.1933 -0.0827 -0.1237
 3086POPC   C1A37289   5.101   3.162  15.952 -0.0778  0.3716 -0.1719
 3086POPC   D2A37290   5.003   3.076  16.368 -0.0462  0.0387  0.2981
 3086POPC   C3A37291   4.992   3.096  16.835  0.2726 -0.2101  0.0764
 3086POPC   C4A37292   5.010   2.888  17.276 -0.2763 -0.0581  0.1662
 3086POPC   C1B37293   5.419   3.594  16.109 -0.0132 -0.1611 -0.0471
 3086POPC   C2B37294   5.198   3.607  16.531  0.1084 -0.0454  0.1088
 3086POPC   C3B37295   5.136   3.683  16.992 -0.0456  0.1900  0.2106
 3086POPC   C4B37296   4.772   3.887  17.259 -0.0814  0.0912 -0.1646
 3087POPC   NC337297  27.964  26.896  15.510 -0.1034  0.1365 -0.0699
 3087POPC   PO437298  27.653  26.608  15.512 -0.2059  0.0748 -0.3206
 3087POPC   GL137299  27.831  26.681  15.914  0.0815  0.0752  0.2793
 3087POPC   GL237300  27.758  26.986  15.935  0.1398 -0.0056 -0.2648
 3087POPC   C1A37301  28.103  26.466  16.259  0.1775  0.0150  0.2020
 3087POPC   D2A37302  28.210  26.416  16.698 -0.1182 -0.0687  0.2691
 3087POPC   C3A37303  28.086  26.861  16.890 -0.1467  0.1072 -0.0443
 3087POPC   C4A37304  27.787  27.053  17.198  0.3944 -0.2693 -0.0619
 3087POPC   C1B37305  28.112  26.965  16.267 -0.0388 -0.0732  0.3103
 3087POPC   C2B37306  28.430  26.885  16.583 -0.2398  0.3099 -0.1900
 3087POPC   C3B37307  28.816  26.830  16.719 -0.1432 -0.1790  0.0213
 3087POPC   C4B37308  29.001  27.217  16.858 -0.2795 -0.1621  0.1491
 3088POPC   NC337309  17.121  19.552  15.106 -0.2506 -0.0903 -0.1500
 3088POPC   PO437310  17.496  19.455  15.091  0.1233 -0.0451  0.1372
 3088POPC   GL137311  17.681  19.688  15.465  0.2388 -0.1082 -0.1789
 3088POPC   GL237312  17.838  19.602  15.674 -0.2047 -0.3824 -0.2286
 3088POPC   C1A37313  17.531  19.956  15.866 -0.1252 -0.1052  0.2564
 3088POPC   D2A37314  17.731  20.013  16.263  0.1822 -0.3109  0.0960
 3088POPC   C3A37315  17.626  20.149  16.685 -0.0163 -0.1051  0.1402
 3088POPC   C4A37316  17.589  20.138  17.101 -0.0983  0.0846 -0.0182
 3088POPC   C1B37317  17.837  19.565  16.119  0.0624  0.0082  0.1452
 3088POPC   C2B37318  17.588  19.627  16.523  0.0499 -0.0948  0.1848
 3088POPC   C3B37319  17.423  19.604  16.958  0.0276 -0.2766 -0.1668
 3088POPC   C4B37320  17.195  19.857  17.261 -0.2723  0.1417 -0.1047
 3089POPC   NC337321  22.998  13.314  15.093 -0.4254  0.0375  0.0770
 3089POPC   PO437322  22.821  13.720  15.126 -0.1877 -0.0996 -0.1226
 3089POPC   GL137323  22.702  13.873  15.498  0.1214  0.2192 -0.0753
 3089POPC   GL237324  22.441  13.903  15.585 -0.1325 -0.1443 -0.1065
 3089POPC   C1A37325  22.949  14.044  15.855  0.0186 -0.0873  0.0380
 3089POPC   D2A37326  23.065  14.130  16.266 -0.0218 -0.0557  0.3095
 3089POPC   C3A37327  23.155  13.855  16.679 -0.0873 -0.0044 -0.0787
 3089POPC   C4A37328  23.000  13.967  17.104 -0.1483  0.0627  0.1466
 3089POPC   C1B37329  22.394  13.685  15.948  0.5060  0.2624  0.0943
 3089POPC   C2B37330  22.277  13.476  16.368  0.2070 -0.0877  0.3470
 3089POPC   C3B37331  21.928  13.271  16.535  0.0399 -0.2455 -0.3548
 3089POPC   C4B37332  21.956  13.335  17.025  0.1047  0.1723 -0.2451
 3090POPC   NC337333  19.651   8.727  15.219  0.1173 -0.1226  0.1320
 3090POPC   PO437334  19.989   8.606  15.320  0.1692  0.1817 -0.2129
 3090POPC   GL137335  19.869   8.719  15.687 -0.2250  0.1948  0.0766
 3090POPC   GL237336  19.570   8.759  15.675 -0.1183  0.0198 -0.1757
 3090POPC   C1A37337  20.068   8.672  16.126  0.0288 -0.3027 -0.0153
 3090POPC   D2A37338  20.418   8.735  16.450 -0.0556 -0.2039  0.0006
 3090POPC   C3A37339  20.562   8.374  16.690  0.5081  0.2180  0.1126
 3090POPC   C4A37340  20.805   8.290  17.099  0.3005 -0.1021  0.0189
 3090POPC   C1B37341  19.443   8.616  16.177  0.1313  0.1908 -0.1518
 3090POPC   C2B37342  19.769   8.644  16.507 -0.0382 -0.2447 -0.0186
 3090POPC   C3B37343  20.079   8.757  16.862 -0.0803 -0.4156  0.1139
 3090POPC   C4B37344  20.022   8.812  17.302  0.1465  0.1108  0.0667
 3091POPC   NC337345  16.557  25.690  15.576  0.2085 -0.0573  0.0775
 3091POPC   PO437346  16.933  25.759  15.418 -0.2949 -0.2904 -0.2710
 3091POPC   GL137347  16.976  25.704  15.787  0.1005  0.2048  0.0410
 3091POPC   GL237348  17.056  25.472  15.854 -0.1727  0.0877  0.1062
 3091POPC   C1A37349  16.766  25.890  16.097 -0.3156  0.0656 -0.4642
 3091POPC   D2A37350  16.664  26.073  16.539  0.4161 -0.0024 -0.1026
 3091POPC   C3A37351  16.717  25.931  16.983  0.0373  0.0447  0.1062
 3091POPC   C4A37352  16.729  26.103  17.432 -0.0816 -0.0140 -0.1395
 3091POPC   C1B37353  17.172  25.300  16.231  0.1275  0.4106  0.2517
 3091POPC   C2B37354  17.297  25.048  16.581  0.1670  0.2527 -0.2034
 3091POPC   C3B37355  17.529  24.941  16.966  0.3512 -0.0036  0.3638
 3091POPC   C4B37356  17.731  24.701  17.247 -0.0196 -0.1332 -0.1059
 3092POPC   NC337357   6.703  19.594  14.947  0.2087 -0.2024  0.0773
 3092POPC   PO437358   6.892  19.320  15.131 -0.0037  0.0313 -0.1336
 3092POPC   GL137359   7.184  19.124  15.440 -0.0586 -0.3349  0.3303
 3092POPC   GL237360   7.058  18.925  15.572 -0.0911  0.1827  0.2133
 3092POPC   C1A37361   7.586  18.998  15.629  0.1765  0.1271  0.3232
 3092POPC   D2A37362   7.921  18.713  15.740 -0.0898 -0.2693  0.0133
 3092POPC   C3A37363   7.875  18.922  16.152  0.1054  0.1493 -0.0273
 3092POPC   C4A37364   8.026  18.950  16.562  0.1306 -0.0550  0.0316
 3092POPC   C1B37365   6.807  18.892  15.975 -0.1337 -0.5653 -0.0117
 3092POPC   C2B37366   6.842  19.176  16.333  0.1128 -0.0745 -0.0085
 3092POPC   C3B37367   6.654  19.316  16.741  0.0110 -0.2632  0.2351
 3092POPC   C4B37368   6.404  19.685  16.620 -0.0128  0.1052 -0.2716
 3093POPC   NC337369  25.757  18.124  14.755  0.2717  0.1423 -0.3458
 3093POPC   PO437370  25.523  18.343  15.056  0.3617 -0.1390 -0.0404
 3093POPC   GL137371  25.569  18.145  15.382  0.0114 -0.1628 -0.0858
 3093POPC   GL237372  25.656  18.339  15.584 -0.0789 -0.2510 -0.0450
 3093POPC   C1A37373  25.281  18.089  15.687 -0.3346  0.1623  0.0053
 3093POPC   D2A37374  25.118  18.091  16.164 -0.0478  0.2631  0.1366
 3093POPC   C3A37375  25.285  18.467  16.439 -0.0041 -0.1696  0.1430
 3093POPC   C4A37376  25.575  18.437  16.794  0.0913 -0.0947 -0.0677
 3093POPC   C1B37377  25.652  18.195  16.037 -0.3542 -0.1873  0.0621
 3093POPC   C2B37378  25.653  18.050  16.487 -0.1665 -0.3825 -0.0419
 3093POPC   C3B37379  25.810  17.803  16.861 -0.2477  0.1694  0.3788
 3093POPC   C4B37380  25.967  17.865  17.286 -0.1826 -0.2208 -0.2965
 3094POPC   NC337381   5.580   0.513  15.568 -0.0049  0.0631  0.1128
 3094POPC   PO437382   5.226   0.434  15.535 -0.0690  0.2489 -0.0069
 3094POPC   GL137383   5.138   0.583  15.810 -0.1259 -0.3041  0.0117
 3094POPC   GL237384   5.363   0.464  16.022  0.1705  0.2091 -0.0748
 3094POPC   C1A37385   4.854   0.475  16.176  0.0649 -0.0100  0.0361
 3094POPC   D2A37386   4.792   0.424  16.660 -0.0173  0.1712  0.1939
 3094POPC   C3A37387   5.097   0.380  16.983  0.0298  0.3619  0.0771
 3094POPC   C4A37388   5.506   0.619  17.089 -0.1526  0.0311 -0.1270
 3094POPC   C1B37389   5.511   0.104  16.127  0.2285 -0.0995 -0.0232
 3094POPC   C2B37390   5.797  -0.100  16.407 -0.0009  0.2261 -0.0703
 3094POPC   C3B37391   5.963  -0.072  16.812  0.1772  0.1880  0.1304
 3094POPC   C4B37392   6.186  -0.002  17.220 -0.2295  0.1209 -0.0063
 3095POPC   NC337393  21.137  10.578  15.389 -0.0744 -0.3574 -0.0580
 3095POPC   PO437394  20.780  10.798  15.365 -0.1472  0.2323 -0.3253
 3095POPC   GL137395  20.635  10.785  15.730 -0.0570  0.0775 -0.2270
 3095POPC   GL237396  20.365  10.836  15.724  0.0409  0.2145  0.0104
 3095POPC   C1A37397  20.840  10.890  16.104  0.0597 -0.0003 -0.1093
 3095POPC   D2A37398  21.071  11.027  16.446 -0.1844 -0.0044 -0.2713
 3095POPC   C3A37399  20.978  11.001  16.871  0.2933 -0.1056  0.0206
 3095POPC   C4A37400  21.032  10.640  17.138 -0.3145 -0.4426  0.0148
 3095POPC   C1B37401  20.417  10.695  16.167 -0.2865  0.1115 -0.0885
 3095POPC   C2B37402  20.201  10.421  16.394 -0.0134  0.1218 -0.2672
 3095POPC   C3B37403  19.987  10.344  16.795  0.1353  0.0412  0.0887
 3095POPC   C4B37404  19.727   9.990  16.958 -0.0540 -0.4623 -0.0497
 3096POPC   NC337405  30.410   6.283  15.122  0.2532  0.0235 -0.0050
 3096POPC   PO437406  30.710   6.094  15.224  0.0294  0.0954 -0.2421
 3096POPC   GL137407  30.575   6.133  15.603 -0.8153  0.0970 -0.4840
 3096POPC   GL237408  30.558   5.846  15.693 -0.2036 -0.1464  0.0462
 3096POPC   C1A37409  30.715   6.266  15.996  0.1186 -0.0247 -0.0054
 3096POPC   D2A37410  30.799   6.421  16.426  0.1667  0.1856 -0.0335
 3096POPC   C3A37411  30.432   6.395  16.704  0.0894 -0.2387  0.2758
 3096POPC   C4A37412  30.023   6.621  16.677 -0.0802 -0.0343  0.0549
 3096POPC   C1B37413  30.279   5.941  16.018 -0.0868 -0.1082 -0.0423
 3096POPC   C2B37414  29.885   6.090  16.283 -0.1610 -0.0201 -0.2040
 3096POPC   C3B37415  29.610   6.311  16.572 -0.0466  0.1281 -0.0671
 3096POPC   C4B37416  29.591   6.660  16.881  0.2166  0.3030  0.2284
 3097POPC   NC337417   9.553  30.834  15.146  0.0312 -0.3080 -0.2687
 3097POPC   PO437418   9.183  30.943  15.243 -0.1455  0.1534  0.1244
 3097POPC   GL137419   9.322  30.741  15.598 -0.2248 -0.4740 -0.0013
 3097POPC   GL237420   9.635  30.680  15.667  0.2101 -0.2278 -0.0461
 3097POPC   C1A37421   9.071  30.375  15.782 -0.1797  0.0118 -0.0740
 3097POPC   D2A37422   8.915  29.960  16.005 -0.0895  0.0938 -0.0405
 3097POPC   C3A37423   8.567  29.674  16.119  0.1935 -0.0160 -0.1506
 3097POPC   C4A37424   8.452  29.305  16.368 -0.3198 -0.0700  0.0036
 3097POPC   C1B37425   9.454  30.564  16.013 -0.0477  0.0736 -0.2037
 3097POPC   C2B37426   9.339  30.499  16.424 -0.0248  0.0894 -0.0552
 3097POPC   C3B37427   9.435  30.252  16.824 -0.1160 -0.1104  0.0741
 3097POPC   C4B37428   9.595  30.031  17.209 -0.2640  0.2004  0.0815
 3098POPC   NC337429  16.241  15.777  15.266  0.1736 -0.0789  0.1513
 3098POPC   PO437430  16.612  15.717  15.148  0.0856  0.2716 -0.1941
 3098POPC   GL137431  16.699  15.883  15.420 -0.1059  0.0401  0.2496
 3098POPC   GL237432  16.459  15.905  15.672 -0.0617  0.0273  0.0883
 3098POPC   C1A37433  17.068  15.924  15.719  0.1190 -0.0925 -0.1196
 3098POPC   D2A37434  17.408  15.989  16.057 -0.1508  0.1992  0.0717
 3098POPC   C3A37435  17.354  16.202  16.455  0.3484  0.2610  0.0079
 3098POPC   C4A37436  17.043  16.099  16.836  0.0700 -0.2454 -0.3811
 3098POPC   C1B37437  16.698  16.185  15.941  0.2613  0.2369  0.2946
 3098POPC   C2B37438  16.480  16.380  16.254  0.3603  0.1842 -0.0229
 3098POPC   C3B37439  16.190  16.469  16.610  0.1264  0.2191  0.1902
 3098POPC   C4B37440  16.281  16.541  16.992 -0.0801 -0.0550 -0.1937
 3099POPC   NC337441   0.220   0.431  15.330 -0.1166 -0.1196  0.3847
 3099POPC   PO437442  -0.096   0.578  15.420 -0.1015  0.0232 -0.2124
 3099POPC   GL137443  -0.307   0.598  15.776 -0.0184  0.0843 -0.4190
 3099POPC   GL237444  -0.279   0.255  15.797  0.1449  0.0032  0.0251
 3099POPC   C1A37445  -0.294   0.596  16.230 -0.0562  0.2327 -0.0315
 3099POPC   D2A37446  -0.381   0.431  16.659  0.2699  0.0585 -0.0219
 3099POPC   C3A37447  -0.466   0.276  17.087  0.0167 -0.2344  0.1226
 3099POPC   C4A37448  -0.551   0.002  17.516 -0.0273  0.2985 -0.0259
 3099POPC   C1B37449  -0.141   0.108  16.191  0.2342 -0.0395  0.0409
 3099POPC   C2B37450   0.055   0.204  16.596 -0.2490 -0.2664 -0.0679
 3099POPC   C3B37451   0.064   0.312  17.005  0.0559 -0.1868 -0.0586
 3099POPC   C4B37452  -0.029   0.182  17.457  0.1287 -0.1550  0.0902
 3100POPC   NC337453   5.127  19.792  15.176  0.4772 -0.1117 -0.0384
 3100POPC   PO437454   5.011  20.045  15.481  0.2341 -0.0239 -0.0680
 3100POPC   GL137455   5.003  19.787  15.795 -0.1029  0.1312 -0.0724
 3100POPC   GL237456   4.804  19.559  15.674  0.0390  0.5196 -0.1546
 3100POPC   C1A37457   5.259  19.396  15.851 -0.0349 -0.0272  0.2468
 3100POPC   D2A37458   5.498  19.057  16.015 -0.1732 -0.0982 -0.1687
 3100POPC   C3A37459   5.405  19.070  16.549  0.0161 -0.0120 -0.0448
 3100POPC   C4A37460   5.574  18.906  17.003  0.0955  0.1922  0.3946
 3100POPC   C1B37461   4.868  19.383  16.102  0.1406  0.0989  0.0525
 3100POPC   C2B37462   4.843  19.218  16.543 -0.0298 -0.3587  0.3914
 3100POPC   C3B37463   4.724  19.260  16.968  0.1276 -0.2694  0.0961
 3100POPC   C4B37464   4.491  19.176  17.338  0.1304  0.2538  0.0238
 3101POPC   NC337465  26.983  25.084  15.704 -0.1775 -0.3569 -0.0487
 3101POPC   PO437466  27.226  24.959  15.451 -0.2158  0.0429  0.1538
 3101POPC   GL137467  27.557  24.790  15.587 -0.4850 -0.4735 -0.2536
 3101POPC   GL237468  27.578  24.567  15.364 -0.1495 -0.2043 -0.0546
 3101POPC   C1A37469  27.677  24.720  16.024  0.2232 -0.0634 -0.1569
 3101POPC   D2A37470  27.836  24.757  16.459 -0.1610 -0.3482 -0.1641
 3101POPC   C3A37471  27.922  25.121  16.652  0.1526  0.0564 -0.1918
 3101POPC   C4A37472  27.794  25.541  16.760  0.3957  0.1011  0.1295
 3101POPC   C1B37473  27.864  24.412  15.664  0.1945  0.0703 -0.2296
 3101POPC   C2B37474  27.756  24.199  16.057 -0.3070  0.0495  0.0015
 3101POPC   C3B37475  27.864  24.120  16.515 -0.0208  0.2044  0.0493
 3101POPC   C4B37476  27.907  24.445  16.791 -0.0027  0.0481 -0.0308
 3102POPC   NC337477  19.119  22.930  15.215  0.1032  0.1014  0.1568
 3102POPC   PO437478  18.803  23.023  15.351 -0.0162  0.0603  0.0050
 3102POPC   GL137479  19.012  23.003  15.647 -0.2064  0.0656  0.2058
 3102POPC   GL237480  19.252  22.812  15.765  0.0619  0.0241  0.0817
 3102POPC   C1A37481  19.120  23.277  16.043  0.0826 -0.0949  0.1365
 3102POPC   D2A37482  19.151  23.328  16.464 -0.0968 -0.0404 -0.3376
 3102POPC   C3A37483  19.207  23.121  16.913 -0.1206  0.0869  0.1579
 3102POPC   C4A37484  19.448  22.760  17.099 -0.0125 -0.0563  0.0024
 3102POPC   C1B37485  19.066  22.513  16.069 -0.1844  0.0858  0.0287
 3102POPC   C2B37486  18.799  22.347  16.441 -0.2417  0.2950  0.0725
 3102POPC   C3B37487  18.406  22.197  16.658 -0.1818  0.0666 -0.2301
 3102POPC   C4B37488  18.201  21.836  16.628 -0.2879 -0.2186 -0.0794
 3103POPC   NC337489   7.337  11.538  15.048 -0.1707 -0.3751 -0.0848
 3103POPC   PO437490   7.650  11.271  15.017  0.2737 -0.1377 -0.2929
 3103POPC   GL137491   7.613  11.327  15.375  0.1107 -0.1664 -0.3103
 3103POPC   GL237492   7.841  11.587  15.460 -0.1652 -0.1222 -0.1653
 3103POPC   C1A37493   7.744  11.134  15.807 -0.2527 -0.0166 -0.1130
 3103POPC   D2A37494   7.763  10.687  15.930 -0.0933  0.0074 -0.1090
 3103POPC   C3A37495   7.498  10.556  16.311 -0.1655  0.2509  0.1621
 3103POPC   C4A37496   7.283  10.370  16.682  0.3985 -0.1739  0.1062
 3103POPC   C1B37497   7.486  11.600  15.785  0.0319  0.0726 -0.0208
 3103POPC   C2B37498   7.237  11.629  16.153 -0.3420  0.2537  0.0358
 3103POPC   C3B37499   7.136  11.820  16.520  0.0188  0.1901  0.1999
 3103POPC   C4B37500   6.847  11.997  16.773 -0.0215 -0.2619 -0.0590
 3104POPC   NC337501  12.350  30.093  14.534  0.0538  0.0426 -0.0279
 3104POPC   PO437502  12.403  30.266  14.889 -0.1795 -0.1665 -0.0396
 3104POPC   GL137503  12.521  30.534  15.150 -0.3028 -0.2792 -0.1975
 3104POPC   GL237504  12.611  30.386  15.366  0.3077  0.0976  0.2249
 3104POPC   C1A37505  12.399  30.968  15.385 -0.0301  0.1679  0.0826
 3104POPC   D2A37506  12.471  31.407  15.320  0.2475  0.0226 -0.1708
 3104POPC   C3A37507  12.905  31.524  15.381 -0.2113  0.0299  0.1946
 3104POPC   C4A37508  13.314  31.349  15.478 -0.2714  0.2192  0.2680
 3104POPC   C1B37509  12.803  30.693  15.650  0.0630  0.1137  0.0671
 3104POPC   C2B37510  12.870  30.740  16.079  0.0216  0.0124 -0.1946
 3104POPC   C3B37511  12.981  31.040  16.379 -0.4359 -0.1964  0.0003
 3104POPC   C4B37512  12.844  31.395  16.679  0.1015 -0.1701  0.0253
 3105POPC   NC337513  11.884  29.566  15.453 -0.0407 -0.0509 -0.2055
 3105POPC   PO437514  12.050  29.238  15.313 -0.1960  0.1247 -0.0167
 3105POPC   GL137515  12.193  29.250  15.641 -0.1572 -0.3797  0.0039
 3105POPC   GL237516  12.144  29.107  15.861  0.3063  0.0371 -0.0025
 3105POPC   C1A37517  12.253  29.493  16.029  0.0770 -0.2351  0.1001
 3105POPC   D2A37518  12.325  29.453  16.478 -0.3354 -0.1594 -0.2313
 3105POPC   C3A37519  12.320  29.734  16.842 -0.0458  0.0942  0.0581
 3105POPC   C4A37520  12.421  29.857  17.242  0.0837  0.1681  0.0393
 3105POPC   C1B37521  12.213  28.903  16.272 -0.3626  0.2395 -0.2239
 3105POPC   C2B37522  12.425  28.873  16.645  0.0671  0.1730 -0.2399
 3105POPC   C3B37523  12.530  28.886  17.096 -0.3757  0.1109  0.4667
 3105POPC   C4B37524  12.528  28.861  17.557 -0.4258  0.1932 -0.3068
 3106POPC   NC337525  14.194   9.021  14.592  0.1159 -0.0309  0.0681
 3106POPC   PO437526  13.877   9.248  14.676  0.0050 -0.0219 -0.2172
 3106POPC   GL137527  14.210   9.434  14.962 -0.0058  0.3980 -0.0189
 3106POPC   GL237528  14.050   9.545  15.189  0.0748  0.1488 -0.0694
 3106POPC   C1A37529  14.527   9.742  15.026  0.4503 -0.0491 -0.0408
 3106POPC   D2A37530  14.907   9.882  15.049 -0.1671 -0.2181  0.0595
 3106POPC   C3A37531  15.252   9.688  15.256 -0.0019 -0.0125 -0.1682
 3106POPC   C4A37532  15.513   9.319  15.402 -0.2104  0.0292  0.0388
 3106POPC   C1B37533  14.187   9.625  15.586 -0.0339 -0.1092 -0.0880
 3106POPC   C2B37534  14.473   9.497  15.858  0.0425  0.1848  0.1370
 3106POPC   C3B37535  14.550   9.551  16.299  0.2436 -0.3081  0.2870
 3106POPC   C4B37536  14.603   9.706  16.703 -0.0340 -0.2161  0.0788
 3107POPC   NC337537  11.899   8.070  15.204 -0.0101 -0.2095  0.0652
 3107POPC   PO437538  11.759   7.892  15.554 -0.1600  0.3409 -0.5078
 3107POPC   GL137539  11.854   7.834  15.963  0.0902  0.4030  0.0340
 3107POPC   GL237540  11.852   7.534  16.006  0.3027  0.0469  0.2788
 3107POPC   C1A37541  11.563   7.825  16.368  0.1447 -0.0997  0.1935
 3107POPC   D2A37542  11.400   7.939  16.791  0.0593  0.5253  0.4088
 3107POPC   C3A37543  11.341   8.035  17.234  0.3230 -0.2973 -0.1382
 3107POPC   C4A37544  11.176   8.063  17.613 -0.0897  0.1091 -0.2491
 3107POPC   C1B37545  12.205   7.628  16.191  0.1197  0.1087  0.4574
 3107POPC   C2B37546  12.236   7.580  16.667  0.2565  0.0953 -0.2798
 3107POPC   C3B37547  12.159   7.381  17.072  0.4789 -0.0498  0.3364
 3107POPC   C4B37548  12.122   6.908  17.064  0.3091 -0.3386 -0.0474
 3108POPC   NC337549   6.563  12.844  14.903  0.2288 -0.1651 -0.0765
 3108POPC   PO437550   6.921  13.019  15.033  0.2104 -0.3468  0.2063
 3108POPC   GL137551   6.896  12.810  15.276 -0.1249  0.0142  0.5223
 3108POPC   GL237552   7.013  12.816  15.557  0.1853  0.1104 -0.1223
 3108POPC   C1A37553   6.543  12.673  15.431 -0.2587  0.0252 -0.3618
 3108POPC   D2A37554   6.096  12.556  15.374  0.3548  0.3283  0.1659
 3108POPC   C3A37555   5.927  12.308  15.695 -0.2165 -0.0555 -0.0453
 3108POPC   C4A37556   5.865  12.320  16.148  0.0268 -0.0571  0.1714
 3108POPC   C1B37557   7.171  12.730  15.940 -0.1819  0.4352 -0.3302
 3108POPC   C2B37558   7.100  12.513  16.313 -0.0200  0.0976  0.5215
 3108POPC   C3B37559   6.780  12.423  16.572  0.0662  0.0295 -0.1992
 3108POPC   C4B37560   6.560  12.424  16.965  0.1445 -0.1997  0.1000
 3109POPC   NC337561   9.552   8.135  15.342  0.2149  0.3410  0.0799
 3109POPC   PO437562   9.896   8.096  15.398 -0.3123 -0.1268  0.1197
 3109POPC   GL137563   9.742   8.296  15.723 -0.0175 -0.0691 -0.1716
 3109POPC   GL237564  10.037   8.161  15.935 -0.5193 -0.0683 -0.0872
 3109POPC   C1A37565   9.629   8.258  16.189 -0.1526 -0.1123  0.0484
 3109POPC   D2A37566   9.735   7.979  16.539 -0.1522  0.2634  0.4304
 3109POPC   C3A37567   9.929   7.938  16.908  0.1157  0.1445 -0.1871
 3109POPC   C4A37568  10.109   7.646  17.214  0.0443 -0.1497 -0.0730
 3109POPC   C1B37569  10.094   8.251  16.396  0.0399  0.0093  0.1126
 3109POPC   C2B37570  10.164   8.428  16.826 -0.1509  0.2120  0.0708
 3109POPC   C3B37571  10.163   8.277  17.269 -0.1305  0.2546  0.3472
 3109POPC   C4B37572  10.352   8.424  17.680  0.0659  0.0698  0.3625
 3110POPC   NC337573  15.068  12.758  14.610  0.2463 -0.2263  0.0427
 3110POPC   PO437574  14.897  12.398  14.709 -0.0809 -0.4163 -0.2321
 3110POPC   GL137575  15.115  12.050  14.747  0.0157  0.0826  0.1178
 3110POPC   GL237576  15.102  11.985  15.035 -0.0125  0.1511 -0.1930
 3110POPC   C1A37577  15.269  11.707  14.499 -0.1335  0.2067 -0.0101
 3110POPC   D2A37578  15.100  11.272  14.315  0.0551 -0.2144  0.2974
 3110POPC   C3A37579  14.984  10.894  14.488  0.0046  0.3609  0.1397
 3110POPC   C4A37580  15.102  10.512  14.718 -0.1941 -0.0797 -0.1106
 3110POPC   C1B37581  15.054  11.646  15.335  0.2007  0.4255 -0.0338
 3110POPC   C2B37582  14.883  11.351  15.702 -0.1778  0.0039  0.2563
 3110POPC   C3B37583  14.952  11.165  16.101 -0.0574  0.1498 -0.3082
 3110POPC   C4B37584  15.368  11.145  16.350 -0.1439 -0.2798  0.0843
 3111POPC   NC337585  23.522  30.754  15.487  0.4011 -0.3209  0.3618
 3111POPC   PO437586  23.311  30.396  15.542  0.1231 -0.1726  0.2252
 3111POPC   GL137587  23.206  30.274  15.900 -0.0586  0.0402  0.1212
 3111POPC   GL237588  22.947  30.177  15.874  0.0447  0.1856  0.0953
 3111POPC   C1A37589  23.337  30.551  16.228  0.2201 -0.3276 -0.0061
 3111POPC   D2A37590  23.534  30.377  16.647 -0.2923 -0.3776  0.1907
 3111POPC   C3A37591  23.615  30.624  17.040  0.2699  0.3613 -0.1058
 3111POPC   C4A37592  23.621  30.484  17.495 -0.0716 -0.0353 -0.2032
 3111POPC   C1B37593  23.121  30.037  16.267  0.0418  0.0229  0.0183
 3111POPC   C2B37594  23.134  30.048  16.726  0.0298  0.3709  0.0051
 3111POPC   C3B37595  23.271  30.237  17.104 -0.1007 -0.2684 -0.2709
 3111POPC   C4B37596  23.145  30.395  17.535  0.1498  0.2683  0.1098
 3112POPC   NC337597   9.896  27.896  15.382  0.0850 -0.4161  0.2672
 3112POPC   PO437598   9.613  27.966  15.121  0.4485 -0.0209  0.1723
 3112POPC   GL137599   9.294  27.803  15.358  0.3368 -0.1565  0.3102
 3112POPC   GL237600   9.369  28.000  15.539 -0.0021 -0.0473  0.1050
 3112POPC   C1A37601   9.021  27.612  15.687  0.0742 -0.4381 -0.1006
 3112POPC   D2A37602   8.885  27.577  16.075 -0.1617  0.0560 -0.2535
 3112POPC   C3A37603   8.953  27.530  16.520 -0.2299  0.0117  0.0933
 3112POPC   C4A37604   9.060  27.461  16.969 -0.1968  0.3063  0.4305
 3112POPC   C1B37605   9.428  28.229  15.929 -0.1361 -0.1747  0.1078
 3112POPC   C2B37606   9.292  28.076  16.387  0.1970  0.1291 -0.3390
 3112POPC   C3B37607   9.179  28.251  16.757 -0.3808 -0.2554 -0.1833
 3112POPC   C4B37608   8.942  28.333  17.179 -0.0081  0.0708  0.4217
 3113POPC   NC337609  23.528  20.245  15.314 -0.0418 -0.3165  0.2565
 3113POPC   PO437610  23.154  20.195  15.378  0.2298 -0.0093 -0.1314
 3113POPC   GL137611  22.978  20.502  15.589 -0.2023 -0.1857  0.1048
 3113POPC   GL237612  22.752  20.666  15.664  0.2832  0.0029  0.1928
 3113POPC   C1A37613  22.915  20.338  16.003 -0.1886  0.0074  0.0249
 3113POPC   D2A37614  22.929  20.279  16.460 -0.1250 -0.1815 -0.3803
 3113POPC   C3A37615  22.681  20.010  16.707  0.0057  0.0325 -0.0348
 3113POPC   C4A37616  22.428  20.056  17.131 -0.0641 -0.0382  0.1147
 3113POPC   C1B37617  22.909  20.867  16.079  0.0521 -0.1231 -0.0267
 3113POPC   C2B37618  22.972  20.991  16.487 -0.1648 -0.1544 -0.0825
 3113POPC   C3B37619  23.132  21.211  16.883 -0.2297 -0.0556  0.0091
 3113POPC   C4B37620  22.963  21.028  17.280 -0.1853 -0.1600  0.2762
 3114POPC   NC337621   6.994  17.131  14.904 -0.0809  0.0340  0.2588
 3114POPC   PO437622   6.802  17.487  14.980  0.1039 -0.0154 -0.1504
 3114POPC   GL137623   6.724  17.565  15.370 -0.0120  0.1587  0.1071
 3114POPC   GL237624   6.570  17.429  15.506  0.1684 -0.2630 -0.2565
 3114POPC   C1A37625   7.057  17.562  15.703  0.2847  0.1418 -0.1995
 3114POPC   D2A37626   7.314  17.760  16.009  0.3024 -0.3374  0.0481
 3114POPC   C3A37627   7.379  17.808  16.475 -0.2818 -0.2000  0.2803
 3114POPC   C4A37628   7.272  17.760  16.933 -0.0035  0.0397 -0.1598
 3114POPC   C1B37629   6.607  17.500  16.006  0.0585  0.0520  0.1098
 3114POPC   C2B37630   6.409  17.495  16.418  0.3463 -0.0199  0.2480
 3114POPC   C3B37631   6.227  17.586  16.834  0.0629  0.0402  0.0788
 3114POPC   C4B37632   6.365  17.441  17.271 -0.3980 -0.2620 -0.0927
 3115POPC   NC337633  15.274   6.028  15.554 -0.1566  0.0547  0.0298
 3115POPC   PO437634  15.018   5.843  15.352  0.2278 -0.1183 -0.1875
 3115POPC   GL137635  15.126   5.610  15.647  0.1072  0.1860 -0.0548
 3115POPC   GL237636  14.969   5.405  15.848  0.0499 -0.3491  0.1922
 3115POPC   C1A37637  15.209   5.775  16.095  0.0325 -0.1612  0.0801
 3115POPC   D2A37638  15.139   5.955  16.508  0.0784  0.1035 -0.0808
 3115POPC   C3A37639  15.299   5.961  16.978  0.0008 -0.0561  0.1074
 3115POPC   C4A37640  15.286   6.179  17.391  0.2430  0.1063 -0.4436
 3115POPC   C1B37641  14.709   5.121  16.041  0.3728  0.2254  0.0671
 3115POPC   C2B37642  14.698   4.997  16.440  0.5633 -0.2907 -0.0256
 3115POPC   C3B37643  14.682   5.168  16.825  0.2346 -0.1677 -0.0830
 3115POPC   C4B37644  15.075   5.276  16.998  0.1216 -0.2643 -0.2433
 3116POPC   NC337645   6.989  22.078  15.073  0.0011  0.0731 -0.1441
 3116POPC   PO437646   7.277  21.905  15.334  0.0864  0.1510  0.1341
 3116POPC   GL137647   7.429  22.002  15.593 -0.3043  0.1851 -0.1721
 3116POPC   GL237648   7.321  22.148  15.814  0.0560  0.1863  0.2478
 3116POPC   C1A37649   7.800  21.896  15.900  0.1483  0.1987 -0.0870
 3116POPC   D2A37650   8.086  21.762  16.256 -0.0692  0.0366  0.1838
 3116POPC   C3A37651   8.067  21.989  16.623  0.0105 -0.2482  0.0904
 3116POPC   C4A37652   8.165  22.051  17.103  0.2771 -0.0812  0.1659
 3116POPC   C1B37653   7.429  22.134  16.264 -0.1087  0.1965  0.0934
 3116POPC   C2B37654   7.417  22.279  16.697 -0.0227 -0.2215 -0.4387
 3116POPC   C3B37655   7.387  22.638  17.019  0.0052 -0.2188 -0.0749
 3116POPC   C4B37656   7.344  22.776  17.462  0.0174 -0.7432 -0.1379
 3117POPC   NC337657  26.130  25.083  15.634 -0.1856  0.2172 -0.3206
 3117POPC   PO437658  26.130  24.915  15.284  0.0368 -0.1963 -0.0053
 3117POPC   GL137659  26.363  24.647  15.516  0.0413 -0.2162  0.0245
 3117POPC   GL237660  26.226  24.516  15.736  0.1078 -0.0447  0.2385
 3117POPC   C1A37661  26.564  24.870  15.977  0.1866  0.0484  0.1766
 3117POPC   D2A37662  26.677  25.008  16.366 -0.0905  0.0135  0.3999
 3117POPC   C3A37663  27.069  24.892  16.573 -0.1885  0.1872 -0.2161
 3117POPC   C4A37664  27.478  24.955  16.750  0.0734  0.0695  0.0581
 3117POPC   C1B37665  26.134  24.546  16.190 -0.1321  0.0065 -0.1908
 3117POPC   C2B37666  26.342  24.701  16.521 -0.0039  0.0148  0.2460
 3117POPC   C3B37667  26.582  24.663  16.936 -0.0410 -0.4421  0.0277
 3117POPC   C4B37668  26.866  24.322  17.201 -0.1433  0.1994 -0.0043
 3118POPC   NC337669  19.177   0.746  15.471  0.0583  0.2552 -0.2890
 3118POPC   PO437670  18.864   1.005  15.501  0.0334  0.0028 -0.0483
 3118POPC   GL137671  18.727   1.085  15.886  0.2773  0.0489  0.1261
 3118POPC   GL237672  18.490   0.936  15.823  0.0896 -0.1209 -0.4647
 3118POPC   C1A37673  18.837   1.090  16.356 -0.1256 -0.0901  0.1977
 3118POPC   D2A37674  19.107   0.829  16.612 -0.1033 -0.1187 -0.0147
 3118POPC   C3A37675  19.102   0.661  16.971  0.0892  0.2016  0.1506
 3118POPC   C4A37676  19.216   0.288  17.154 -0.2616 -0.2219 -0.0695
 3118POPC   C1B37677  18.379   0.929  16.248  0.2240  0.3677  0.0604
 3118POPC   C2B37678  18.449   0.970  16.704 -0.1543  0.0768  0.0519
 3118POPC   C3B37679  18.829   1.181  16.870 -0.2004 -0.1773  0.0468
 3118POPC   C4B37680  19.144   1.540  16.911  0.0944 -0.0455  0.0547
 3119POPC   NC337681   8.333   6.502  14.955  0.0190 -0.3250 -0.0122
 3119POPC   PO437682   7.973   6.368  15.102  0.1608 -0.2018  0.2773
 3119POPC   GL137683   8.118   6.531  15.347 -0.0538  0.0254 -0.0061
 3119POPC   GL237684   7.880   6.629  15.512  0.1460  0.1074  0.0257
 3119POPC   C1A37685   8.088   6.258  15.752 -0.1954  0.2212 -0.0705
 3119POPC   D2A37686   8.028   6.042  16.172 -0.0411 -0.0889  0.3514
 3119POPC   C3A37687   8.505   5.942  16.265 -0.2287  0.1627  0.2205
 3119POPC   C4A37688   8.600   5.669  16.576  0.0871 -0.0311 -0.2111
 3119POPC   C1B37689   8.290   6.752  15.719 -0.0427 -0.2022  0.0157
 3119POPC   C2B37690   8.579   6.860  16.114  0.0722 -0.0505 -0.1630
 3119POPC   C3B37691   8.731   6.932  16.553 -0.0643 -0.0657 -0.0060
 3119POPC   C4B37692   8.906   7.015  16.975 -0.0372 -0.2026 -0.0158
 3120POPC   NC337693  20.435  30.757  15.131 -0.1389  0.0233 -0.0698
 3120POPC   PO437694  20.692  30.624  15.396  0.1747  0.0804 -0.1278
 3120POPC   GL137695  20.819  30.579  15.708 -0.2693  0.0044  0.4551
 3120POPC   GL237696  20.881  30.748  15.954  0.2008  0.0484 -0.0750
 3120POPC   C1A37697  20.607  30.384  16.087  0.1102  0.0191 -0.0272
 3120POPC   D2A37698  20.420  30.441  16.510  0.0690 -0.4340  0.0810
 3120POPC   C3A37699  20.581  30.292  16.835  0.3404 -0.1879  0.1489
 3120POPC   C4A37700  20.734  30.173  17.309  0.1603 -0.1340  0.0321
 3120POPC   C1B37701  20.616  30.884  16.333 -0.0528  0.0986  0.0287
 3120POPC   C2B37702  20.526  31.212  16.644 -0.1313 -0.3296 -0.1274
 3120POPC   C3B37703  20.579  31.373  17.055  0.2701  0.1907  0.2997
 3120POPC   C4B37704  20.820  31.479  17.357 -0.1695 -0.0314  0.2410
 3121POPC   NC337705  12.176  10.555  15.384  0.3076  0.1630 -0.4070
 3121POPC   PO437706  12.480  10.793  15.471 -0.2355  0.0699  0.0983
 3121POPC   GL137707  12.562  10.707  15.791 -0.3430 -0.3559  0.0873
 3121POPC   GL237708  12.692  10.853  16.046 -0.0483 -0.0237  0.1006
 3121POPC   C1A37709  12.393  10.428  16.121 -0.0114  0.0015  0.0554
 3121POPC   D2A37710  12.120  10.378  16.486 -0.1505 -0.2570  0.2132
 3121POPC   C3A37711  12.212  10.091  16.809 -0.0667 -0.1018  0.0478
 3121POPC   C4A37712  12.506   9.848  17.058 -0.0152 -0.5262  0.1351
 3121POPC   C1B37713  12.795  10.694  16.489 -0.0473 -0.1282 -0.0493
 3121POPC   C2B37714  13.006  10.619  16.880 -0.1588  0.1320  0.0361
 3121POPC   C3B37715  13.321  10.482  17.189 -0.0022 -0.1337 -0.2213
 3121POPC   C4B37716  13.451  10.090  17.397  0.2509 -0.3106  0.1816
 3122POPC   NC337717  20.562  26.323  15.097 -0.1537 -0.2429 -0.0522
 3122POPC   PO437718  20.932  26.376  15.010  0.2161 -0.2159  0.0067
 3122POPC   GL137719  20.846  26.612  15.335  0.0217  0.0243 -0.2763
 3122POPC   GL237720  21.010  26.700  15.602  0.0341 -0.3965  0.2698
 3122POPC   C1A37721  20.580  26.865  15.685  0.0444  0.2184 -0.0781
 3122POPC   D2A37722  20.510  26.850  16.154  0.0297  0.2040 -0.2576
 3122POPC   C3A37723  20.485  27.233  16.460  0.0023  0.0486  0.2112
 3122POPC   C4A37724  20.274  27.650  16.531  0.1839 -0.4114 -0.2948
 3122POPC   C1B37725  21.012  26.905  16.005 -0.0102  0.1018  0.3301
 3122POPC   C2B37726  20.950  26.722  16.396  0.0420 -0.2103  0.0888
 3122POPC   C3B37727  20.861  26.683  16.831  0.0404  0.0296  0.2807
 3122POPC   C4B37728  21.043  26.432  17.199 -0.1279  0.3253  0.0426
 3123POPC   NC337729  17.641   6.559  15.301 -0.0375 -0.0301 -0.1909
 3123POPC   PO437730  17.729   6.941  15.283 -0.3159 -0.0295  0.2343
 3123POPC   GL137731  18.064   7.083  15.451  0.1428  0.2612 -0.0890
 3123POPC   GL237732  17.927   7.361  15.558 -0.1771 -0.2926  0.1506
 3123POPC   C1A37733  18.326   7.087  15.781  0.3377 -0.0254  0.0127
 3123POPC   D2A37734  18.249   7.171  16.274  0.0456 -0.0999 -0.0219
 3123POPC   C3A37735  18.455   7.133  16.671 -0.1148 -0.2728 -0.2646
 3123POPC   C4A37736  18.428   6.858  17.034 -0.0541 -0.2501  0.2019
 3123POPC   C1B37737  18.021   7.508  15.941  0.0494 -0.0320 -0.2764
 3123POPC   C2B37738  17.926   7.566  16.338 -0.1196 -0.0066 -0.0728
 3123POPC   C3B37739  17.973   7.298  16.750 -0.0555  0.3139  0.1749
 3123POPC   C4B37740  17.962   7.300  17.226  0.1044  0.0949  0.1847
 3124POPC   NC337741  28.454   2.357  15.265  0.0161 -0.1912  0.0239
 3124POPC   PO437742  28.740   2.094  15.374 -0.1334  0.0991  0.2288
 3124POPC   GL137743  28.738   2.142  15.697 -0.0502 -0.1845 -0.1273
 3124POPC   GL237744  29.022   2.097  15.850 -0.0910 -0.0054  0.0907
 3124POPC   C1A37745  28.624   1.874  16.049 -0.2439 -0.0238 -0.2792
 3124POPC   D2A37746  28.333   1.767  16.374  0.0713  0.1659 -0.0413
 3124POPC   C3A37747  28.275   1.608  16.796 -0.2039 -0.1201 -0.0226
 3124POPC   C4A37748  28.635   1.525  17.010  0.0423  0.2146  0.0483
 3124POPC   C1B37749  29.141   1.807  16.136  0.0381 -0.0042 -0.0022
 3124POPC   C2B37750  29.291   1.499  16.493 -0.0963 -0.0213 -0.0594
 3124POPC   C3B37751  29.120   1.500  16.920  0.2318  0.1353 -0.2417
 3124POPC   C4B37752  29.364   1.429  17.330 -0.0850  0.1631 -0.1462
 3125POPC   NC337753  12.308  31.009  14.886 -0.1860 -0.1720 -0.0885
 3125POPC   PO437754  12.575  31.238  14.751  0.0374 -0.4290 -0.0989
 3125POPC   GL137755  12.558  31.652  14.864  0.0943 -0.1926 -0.2439
 3125POPC   GL237756  12.539  31.938  14.775  0.1064  0.2098  0.1745
 3125POPC   C1A37757  13.011  31.832  14.828 -0.2064 -0.1889 -0.3321
 3125POPC   D2A37758  13.326  31.929  14.519 -0.1084 -0.2850 -0.1621
 3125POPC   C3A37759  13.672  31.600  14.636 -0.4012  0.0179 -0.0930
 3125POPC   C4A37760  14.043  31.304  14.764  0.2413  0.1238  0.0295
 3125POPC   C1B37761  12.699  32.279  14.955  0.0512  0.1545  0.3661
 3125POPC   C2B37762  12.736  32.506  15.366  0.1307 -0.0525  0.1579
 3125POPC   C3B37763  12.935  32.378  15.718 -0.0328  0.0472  0.2533
 3125POPC   C4B37764  13.380  32.302  15.670 -0.0595 -0.1612  0.1585
 3126POPC   NC337765  27.521  27.601  15.461  0.1996  0.0846 -0.2134
 3126POPC   PO437766  27.517  27.872  15.200  0.0510 -0.1603 -0.1352
 3126POPC   GL137767  27.189  27.935  15.497  0.2416  0.2011  0.0233
 3126POPC   GL237768  26.966  28.087  15.557 -0.1257 -0.0505 -0.1994
 3126POPC   C1A37769  27.108  27.745  15.918  0.2663  0.3555  0.0635
 3126POPC   D2A37770  26.959  27.594  16.343 -0.2583  0.1309 -0.0057
 3126POPC   C3A37771  27.235  27.537  16.683  0.0617  0.1331 -0.1863
 3126POPC   C4A37772  27.269  27.763  17.050 -0.1335  0.2337  0.3475
 3126POPC   C1B37773  27.175  28.262  15.887  0.0741 -0.2747  0.0171
 3126POPC   C2B37774  27.296  28.471  16.234 -0.0909 -0.1915 -0.2140
 3126POPC   C3B37775  27.549  28.825  16.430  0.1878 -0.0394  0.0630
 3126POPC   C4B37776  27.786  28.736  16.793 -0.0462  0.3637 -0.1499
 3127POPC   NC337777   5.857  26.390  14.953 -0.1911 -0.0067  0.2798
 3127POPC   PO437778   6.126  26.640  15.022 -0.0099 -0.3261 -0.1269
 3127POPC   GL137779   6.051  26.679  15.417  0.1616  0.1464  0.2079
 3127POPC   GL237780   5.869  26.444  15.476  0.0234  0.2507  0.2820
 3127POPC   C1A37781   6.271  26.988  15.653 -0.0347 -0.0540  0.1548
 3127POPC   D2A37782   6.340  27.213  16.080  0.0573  0.0039 -0.0233
 3127POPC   C3A37783   6.442  27.045  16.473  0.0378 -0.1904  0.1278
 3127POPC   C4A37784   6.674  27.111  16.828  0.0849  0.1632  0.1637
 3127POPC   C1B37785   6.138  26.532  15.833 -0.1351 -0.0527 -0.3149
 3127POPC   C2B37786   6.195  26.592  16.283  0.0044 -0.0124  0.2225
 3127POPC   C3B37787   6.307  26.672  16.753 -0.0745  0.1330  0.1071
 3127POPC   C4B37788   6.537  26.653  17.153  0.1895  0.1465  0.2674
 3128POPC   NC337789   3.009  18.655  14.086  0.1195  0.2501 -0.1559
 3128POPC   PO437790   2.689  18.788  14.226  0.3051 -0.4292 -0.0492
 3128POPC   GL137791   2.814  18.482  14.428  0.1288  0.0862 -0.1759
 3128POPC   GL237792   2.565  18.405  14.559  0.0381 -0.2727 -0.0265
 3128POPC   C1A37793   2.854  18.026  14.368 -0.1219  0.2586  0.0635
 3128POPC   D2A37794   2.814  17.592  14.499 -0.2189  0.0304  0.0714
 3128POPC   C3A37795   2.656  17.415  14.886  0.0775 -0.3233  0.0516
 3128POPC   C4A37796   2.926  17.057  15.092 -0.2181 -0.0436  0.2274
 3128POPC   C1B37797   2.243  18.120  14.552 -0.3079 -0.1866 -0.2939
 3128POPC   C2B37798   2.269  17.636  14.642  0.1552  0.1261  0.0584
 3128POPC   C3B37799   2.361  17.227  14.467 -0.1460  0.0399  0.1425
 3128POPC   C4B37800   2.698  16.929  14.580 -0.0149 -0.0699 -0.1454
 3129POPC   NC337801  25.770  27.114  15.483 -0.0231  0.0175  0.0811
 3129POPC   PO437802  25.828  27.458  15.251 -0.2886  0.1185 -0.5058
 3129POPC   GL137803  25.684  27.779  15.459 -0.0120  0.3436  0.3164
 3129POPC   GL237804  25.533  27.612  15.612 -0.2518  0.0906 -0.1238
 3129POPC   C1A37805  25.718  28.015  15.867  0.0538 -0.0280  0.1644
 3129POPC   D2A37806  26.034  28.052  16.183 -0.1303  0.1788 -0.0860
 3129POPC   C3A37807  26.393  28.257  16.442  0.2351  0.3245 -0.0675
 3129POPC   C4A37808  26.456  28.455  16.903 -0.1381 -0.1358  0.1356
 3129POPC   C1B37809  25.319  27.660  16.018 -0.0722  0.1420  0.3584
 3129POPC   C2B37810  25.098  27.748  16.402 -0.1112 -0.0919 -0.1347
 3129POPC   C3B37811  24.810  28.046  16.667 -0.0319 -0.0839  0.1588
 3129POPC   C4B37812  24.666  28.273  17.047 -0.3119 -0.0374  0.1002
 3130POPC   NC337813   5.822  14.769  14.987  0.2814 -0.1577 -0.0118
 3130POPC   PO437814   5.807  14.550  15.330 -0.0541 -0.1069 -0.1191
 3130POPC   GL137815   5.708  14.860  15.657 -0.2196 -0.4256 -0.5029
 3130POPC   GL237816   5.493  14.820  15.843  0.0845 -0.0474  0.0872
 3130POPC   C1A37817   5.959  15.073  15.999 -0.2463  0.0979 -0.1606
 3130POPC   D2A37818   6.138  15.253  16.387 -0.0753  0.0181 -0.2281
 3130POPC   C3A37819   6.400  15.200  16.800  0.0479  0.1495 -0.0308
 3130POPC   C4A37820   6.597  15.276  17.126 -0.0334 -0.0609 -0.0546
 3130POPC   C1B37821   5.659  14.783  16.243  0.2350  0.1088  0.1702
 3130POPC   C2B37822   5.619  14.753  16.667  0.0189 -0.0997  0.0281
 3130POPC   C3B37823   5.752  14.598  17.042  0.0184  0.2883 -0.0527
 3130POPC   C4B37824   5.687  14.147  16.988  0.0529 -0.2130  0.3712
 3131POPC   NC337825  31.693   1.861  15.337 -0.1145 -0.3284 -0.1978
 3131POPC   PO437826  31.575   1.493  15.440  0.1623 -0.0348  0.2041
 3131POPC   GL137827  31.553   1.591  15.868 -0.3385 -0.1028 -0.0108
 3131POPC   GL237828  31.865   1.569  15.930  0.2718 -0.2597 -0.0710
 3131POPC   C1A37829  31.611   1.553  16.318  0.2826  0.1395  0.0185
 3131POPC   D2A37830  31.712   1.669  16.757 -0.2880  0.0886 -0.1313
 3131POPC   C3A37831  31.362   1.867  16.918  0.1979  0.0132  0.2951
 3131POPC   C4A37832  30.962   1.843  17.060  0.2404 -0.1234 -0.0178
 3131POPC   C1B37833  32.101   1.579  16.325 -0.6111 -0.2223 -0.0171
 3131POPC   C2B37834  32.241   1.676  16.749  0.0158 -0.2588  0.0598
 3131POPC   C3B37835  32.073   1.740  17.226 -0.1404 -0.2165  0.1496
 3131POPC   C4B37836  31.936   1.879  17.607  0.1135 -0.2646 -0.0290
 3132POPC   NC337837   5.371  19.104  15.386  0.1619 -0.1193 -0.1005
 3132POPC   PO437838   5.720  18.915  15.356 -0.1475 -0.0162  0.3172
 3132POPC   GL137839   5.527  18.679  15.592  0.0862 -0.0690  0.2013
 3132POPC   GL237840   5.820  18.671  15.796 -0.0457 -0.1562  0.1270
 3132POPC   C1A37841   5.350  18.593  16.043 -0.1755 -0.0354 -0.0955
 3132POPC   D2A37842   5.444  18.209  16.277 -0.0634 -0.1459 -0.1992
 3132POPC   C3A37843   5.311  17.957  16.686 -0.2762 -0.0112 -0.2718
 3132POPC   C4A37844   5.427  17.872  17.115 -0.1595  0.3258  0.2097
 3132POPC   C1B37845   5.895  18.423  16.230  0.1540 -0.0309  0.1320
 3132POPC   C2B37846   5.921  18.300  16.634 -0.0711  0.0949  0.2633
 3132POPC   C3B37847   5.907  18.035  16.971  0.3399  0.2251 -0.0845
 3132POPC   C4B37848   5.849  17.605  17.172  0.2180  0.2628 -0.0053
 3133POPC   NC337849   7.359  12.978  15.281 -0.0897 -0.2477 -0.0060
 3133POPC   PO437850   7.308  12.573  15.190 -0.1115  0.2913  0.1076
 3133POPC   GL137851   7.332  12.416  15.534 -0.0389  0.2162 -0.1592
 3133POPC   GL237852   7.590  12.422  15.601 -0.0429 -0.1142 -0.0801
 3133POPC   C1A37853   7.345  12.055  15.846 -0.2205 -0.1320  0.0082
 3133POPC   D2A37854   7.527  12.015  16.249  0.0225  0.0192  0.2771
 3133POPC   C3A37855   7.602  11.746  16.654 -0.0947  0.1424  0.2437
 3133POPC   C4A37856   7.432  11.389  16.845 -0.0649 -0.1619  0.0502
 3133POPC   C1B37857   7.722  12.536  16.038  0.1213 -0.2051  0.0282
 3133POPC   C2B37858   7.606  12.451  16.474 -0.2103  0.0341 -0.1862
 3133POPC   C3B37859   7.252  12.367  16.757  0.0029  0.2137  0.0052
 3133POPC   C4B37860   7.017  12.274  17.157  0.1432  0.3455  0.2879
 3134POPC   NC337861  11.948  25.738  15.212  0.1725  0.0449 -0.3304
 3134POPC   PO437862  12.207  26.016  15.252 -0.0109 -0.2795  0.0945
 3134POPC   GL137863  12.108  26.188  15.602  0.3902  0.2752 -0.0169
 3134POPC   GL237864  12.260  26.448  15.520 -0.0419  0.2105  0.3313
 3134POPC   C1A37865  12.156  26.302  16.044 -0.1962 -0.2196  0.0775
 3134POPC   D2A37866  12.471  26.393  16.403 -0.0479  0.2729  0.0358
 3134POPC   C3A37867  12.482  26.205  16.787  0.0611  0.0880 -0.1141
 3134POPC   C4A37868  12.665  25.756  16.933 -0.2799  0.1267 -0.0400
 3134POPC   C1B37869  12.562  26.564  15.854  0.0211 -0.0229  0.0526
 3134POPC   C2B37870  12.926  26.535  16.170 -0.0485  0.0327  0.2125
 3134POPC   C3B37871  12.881  26.411  16.605 -0.0306  0.0314 -0.0070
 3134POPC   C4B37872  12.932  26.329  17.059 -0.0997  0.0766 -0.3958
 3135POPC   NC337873  13.785  12.000  15.196  0.1366 -0.1657  0.0324
 3135POPC   PO437874  13.727  12.359  15.123  0.0954  0.0484 -0.3334
 3135POPC   GL137875  13.944  12.296  15.531 -0.1120  0.0542  0.0664
 3135POPC   GL237876  14.072  12.001  15.560  0.2669  0.1377 -0.1572
 3135POPC   C1A37877  14.053  12.295  15.996  0.2181 -0.1445  0.0850
 3135POPC   D2A37878  13.897  12.082  16.399  0.2477  0.3099  0.0472
 3135POPC   C3A37879  13.811  12.043  16.891  0.0555  0.1520 -0.4361
 3135POPC   C4A37880  13.528  11.938  17.259  0.0078 -0.1071 -0.0533
 3135POPC   C1B37881  14.227  11.807  15.967 -0.0160  0.0465  0.3490
 3135POPC   C2B37882  14.218  11.686  16.423  0.1378  0.1798 -0.0612
 3135POPC   C3B37883  14.076  11.634  16.891 -0.0518 -0.0577  0.0444
 3135POPC   C4B37884  14.063  11.641  17.390  0.0867 -0.0228 -0.1331
 3136POPC   NC337885  29.150  23.192  15.099  0.0964 -0.1399 -0.0253
 3136POPC   PO437886  29.534  23.293  15.077  0.1400 -0.0742  0.1487
 3136POPC   GL137887  29.593  23.170  15.463 -0.2516 -0.2279  0.1129
 3136POPC   GL237888  29.298  23.321  15.575  0.0107 -0.0690 -0.1167
 3136POPC   C1A37889  29.737  23.483  15.803 -0.1795 -0.1921  0.1218
 3136POPC   D2A37890  30.016  23.831  15.882  0.2229 -0.1876  0.1013
 3136POPC   C3A37891  30.138  23.815  16.316 -0.2351 -0.0451 -0.0217
 3136POPC   C4A37892  30.512  23.937  16.590 -0.2537  0.2577 -0.0479
 3136POPC   C1B37893  29.379  23.188  16.014  0.0462  0.0242  0.1910
 3136POPC   C2B37894  29.201  23.319  16.449  0.2157 -0.0234  0.1185
 3136POPC   C3B37895  29.026  23.602  16.762 -0.5078 -0.1419  0.2873
 3136POPC   C4B37896  28.606  23.624  16.953 -0.1223 -0.1310 -0.0547
 3137POPC   NC337897   6.907   6.143  15.158 -0.0794  0.0628  0.0554
 3137POPC   PO437898   6.589   5.960  15.162 -0.0576 -0.1117 -0.2952
 3137POPC   GL137899   6.497   5.756  15.397  0.1040 -0.1576  0.2940
 3137POPC   GL237900   6.481   5.834  15.644 -0.2695  0.1644 -0.0661
 3137POPC   C1A37901   6.646   5.322  15.573  0.3419  0.3081 -0.0075
 3137POPC   D2A37902   6.863   5.145  15.964  0.1153  0.0420 -0.1382
 3137POPC   C3A37903   6.866   5.405  16.341 -0.0944  0.0789  0.1248
 3137POPC   C4A37904   6.874   5.618  16.734 -0.0293  0.2499  0.0804
 3137POPC   C1B37905   6.441   5.734  16.105 -0.1633 -0.2112  0.0986
 3137POPC   C2B37906   6.459   5.583  16.504 -0.0729 -0.0186  0.0310
 3137POPC   C3B37907   6.432   5.415  16.926 -0.0970  0.0192 -0.2372
 3137POPC   C4B37908   6.072   5.387  17.262 -0.1507 -0.3226 -0.0454
 3138POPC   NC337909   2.136  10.825  15.849 -0.1018 -0.2867  0.0639
 3138POPC   PO437910   2.405  10.864  15.570  0.0683  0.0938  0.0819
 3138POPC   GL137911   2.488  10.551  15.767 -0.0664 -0.3538 -0.0036
 3138POPC   GL237912   2.759  10.603  15.932  0.1522 -0.2318  0.2319
 3138POPC   C1A37913   2.372  10.554  16.217  0.1925  0.0844  0.0080
 3138POPC   D2A37914   2.483  10.720  16.636 -0.0984 -0.1258  0.1724
 3138POPC   C3A37915   2.613  10.390  16.980 -0.1395 -0.0034 -0.2073
 3138POPC   C4A37916   2.966  10.177  17.143 -0.0045  0.0478 -0.1701
 3138POPC   C1B37917   2.916  10.563  16.336 -0.0367  0.2004 -0.0028
 3138POPC   C2B37918   3.021  10.606  16.769 -0.2651  0.2234 -0.0940
 3138POPC   C3B37919   3.057  10.743  17.205 -0.1619 -0.0791 -0.2179
 3138POPC   C4B37920   3.235  10.607  17.561  0.1399  0.0969  0.1141
 3139POPC   NC337921  23.748  10.272  14.827  0.1520  0.0843 -0.2335
 3139POPC   PO437922  23.507  10.112  15.129 -0.1423 -0.1145  0.1188
 3139POPC   GL137923  23.551   9.983  15.521 -0.0399  0.0288  0.4160
 3139POPC   GL237924  23.701   9.668  15.494 -0.2044 -0.1857  0.0170
 3139POPC   C1A37925  23.827  10.114  15.904 -0.1151  0.1104  0.0484
 3139POPC   D2A37926  24.174   9.988  16.216  0.0378 -0.1972 -0.1879
 3139POPC   C3A37927  24.327  10.215  16.593  0.2664  0.1252  0.2097
 3139POPC   C4A37928  24.558  10.122  16.933 -0.0496 -0.2738  0.0493
 3139POPC   C1B37929  23.701   9.606  15.956 -0.0810 -0.2381  0.3296
 3139POPC   C2B37930  23.505   9.546  16.316  0.0432  0.1069 -0.4302
 3139POPC   C3B37931  23.644   9.641  16.768  0.2516  0.1131 -0.1391
 3139POPC   C4B37932  23.909   9.490  17.138  0.0637 -0.0508 -0.3383
 3140POPC   NC337933  14.654  21.863  15.401 -0.4340  0.3058  0.1518
 3140POPC   PO437934  14.408  21.573  15.300 -0.0138 -0.2658 -0.0535
 3140POPC   GL137935  14.327  21.448  15.690 -0.0566 -0.3315  0.1190
 3140POPC   GL237936  14.229  21.165  15.735 -0.0450 -0.0523  0.0796
 3140POPC   C1A37937  14.555  21.422  16.094 -0.0912 -0.0443 -0.0178
 3140POPC   D2A37938  14.461  21.503  16.570  0.1315  0.0437 -0.1692
 3140POPC   C3A37939  14.743  21.691  16.884 -0.2590  0.2063  0.1346
 3140POPC   C4A37940  14.851  21.709  17.332 -0.2838 -0.1152  0.1684
 3140POPC   C1B37941  14.350  20.960  16.064 -0.1786 -0.3777 -0.1265
 3140POPC   C2B37942  14.594  20.537  16.191 -0.2973 -0.0775 -0.3140
 3140POPC   C3B37943  14.698  20.309  16.540  0.0391  0.4429 -0.1335
 3140POPC   C4B37944  14.873  19.859  16.623 -0.1854 -0.1074  0.0909
 3141POPC   NC337945  22.303  19.700  15.669 -0.1042 -0.2863 -0.4199
 3141POPC   PO437946  22.635  19.498  15.561 -0.0361  0.1717  0.0082
 3141POPC   GL137947  22.709  19.439  15.883  0.0122  0.3182  0.0214
 3141POPC   GL237948  22.687  19.102  15.877 -0.1549  0.3068 -0.2845
 3141POPC   C1A37949  23.104  19.379  16.092 -0.2491 -0.1614 -0.1777
 3141POPC   D2A37950  23.401  19.314  16.432 -0.2554  0.0806  0.0165
 3141POPC   C3A37951  23.290  19.379  16.903  0.0074  0.1095  0.0864
 3141POPC   C4A37952  23.238  19.280  17.377  0.3053 -0.2994 -0.0203
 3141POPC   C1B37953  22.722  19.121  16.291  0.2278 -0.0442  0.2195
 3141POPC   C2B37954  22.855  19.179  16.705 -0.1570 -0.0127  0.1424
 3141POPC   C3B37955  22.768  19.162  17.189  0.3788 -0.1247 -0.1487
 3141POPC   C4B37956  22.801  19.298  17.634 -0.3422  0.3129  0.1033
 3142POPC   NC337957  10.792  25.125  14.784 -0.1206 -0.3451 -0.0142
 3142POPC   PO437958  10.500  25.021  14.972  0.0122  0.0055  0.0507
 3142POPC   GL137959  10.592  24.837  15.304  0.0383  0.0909  0.0180
 3142POPC   GL237960  10.478  24.976  15.502  0.1690  0.1460  0.1041
 3142POPC   C1A37961  10.903  24.667  15.643  0.1289 -0.1053  0.0114
 3142POPC   D2A37962  11.116  24.827  15.992  0.0382  0.0374 -0.4127
 3142POPC   C3A37963  11.213  24.872  16.453 -0.2937  0.6110  0.0318
 3142POPC   C4A37964  11.413  25.099  16.816 -0.0494 -0.0618  0.1706
 3142POPC   C1B37965  10.480  24.873  15.939  0.3558 -0.0443  0.2945
 3142POPC   C2B37966  10.688  24.490  16.134  0.1287  0.1790  0.0313
 3142POPC   C3B37967  10.656  24.078  16.350  0.0482 -0.1040  0.3305
 3142POPC   C4B37968  10.678  23.953  16.793 -0.2303 -0.3125 -0.2991
 3143POPC   NC337969   6.911   3.138  14.914  0.1365  0.0387  0.1320
 3143POPC   PO437970   6.895   3.482  15.124 -0.1006  0.2117 -0.2673
 3143POPC   GL137971   7.218   3.320  15.362  0.1124  0.0646 -0.0277
 3143POPC   GL237972   7.074   3.095  15.468  0.1093 -0.1641  0.2113
 3143POPC   C1A37973   7.347   3.490  15.752  0.1857  0.2257 -0.2555
 3143POPC   D2A37974   7.368   3.392  16.193 -0.0377 -0.0014 -0.0330
 3143POPC   C3A37975   7.514   3.640  16.623 -0.0801 -0.1867 -0.1570
 3143POPC   C4A37976   7.752   3.617  17.030 -0.0951 -0.0696  0.2127
 3143POPC   C1B37977   6.916   3.243  15.881 -0.3277  0.0111 -0.0675
 3143POPC   C2B37978   6.931   3.566  16.210 -0.0113 -0.0413 -0.0417
 3143POPC   C3B37979   7.135   3.871  16.424 -0.0251  0.2872 -0.0596
 3143POPC   C4B37980   7.065   3.929  16.893 -0.0349  0.0536  0.1009
 3144POPC   NC337981   5.171  11.791  14.965 -0.2464 -0.1192  0.1025
 3144POPC   PO437982   5.369  11.409  15.000  0.3098 -0.1067 -0.0808
 3144POPC   GL137983   5.241  11.485  15.333  0.4185  0.2114 -0.0862
 3144POPC   GL237984   5.445  11.606  15.482 -0.2331 -0.4597  0.1505
 3144POPC   C1A37985   5.029  11.413  15.696  0.2070  0.2116  0.0946
 3144POPC   D2A37986   5.284  11.467  16.042 -0.2313 -0.1964  0.3648
 3144POPC   C3A37987   5.651  11.195  16.175 -0.1915  0.3966  0.0543
 3144POPC   C4A37988   5.790  10.908  16.499 -0.1341  0.0860 -0.1890
 3144POPC   C1B37989   5.568  11.811  15.877  0.0881 -0.2026  0.1804
 3144POPC   C2B37990   5.633  11.843  16.298  0.4229 -0.0975 -0.0620
 3144POPC   C3B37991   5.646  11.589  16.662  0.1981  0.0803  0.1982
 3144POPC   C4B37992   5.410  11.603  17.088  0.2112  0.1348 -0.3007
 3145POPC   NC337993  13.238  20.535  14.888  0.0170 -0.0874 -0.1689
 3145POPC   PO437994  13.514  20.488  15.166 -0.1132 -0.0141 -0.1062
 3145POPC   GL137995  13.549  20.494  15.589  0.3398  0.2433  0.0149
 3145POPC   GL237996  13.776  20.361  15.597  0.1896  0.2956  0.0369
 3145POPC   C1A37997  13.420  20.702  15.996  0.1135 -0.0153 -0.2453
 3145POPC   D2A37998  13.476  20.671  16.447 -0.2288 -0.1186 -0.0272
 3145POPC   C3A37999  13.243  20.915  16.767  0.0154  0.0317  0.1576
 3145POPC   C4A38000  12.994  21.316  16.806 -0.0909 -0.0050 -0.0470
 3145POPC   C1B38001  13.716  20.259  16.040  0.1697 -0.0171  0.1298
 3145POPC   C2B38002  13.741  20.146  16.448 -0.0461  0.0446 -0.1229
 3145POPC   C3B38003  13.622  20.166  16.885 -0.1206 -0.0560  0.2111
 3145POPC   C4B38004  13.515  20.056  17.283  0.1864  0.2597 -0.1278
 3146POPC   NC338005  11.280  18.537  14.593  0.0226  0.0048  0.2180
 3146POPC   PO438006  11.296  18.706  14.953  0.0326 -0.0643 -0.0178
 3146POPC   GL138007  11.569  18.740  15.229  0.1249  0.1733 -0.2477
 3146POPC   GL238008  11.474  18.505  15.416  0.0985 -0.0063 -0.0670
 3146POPC   C1A38009  12.025  18.815  15.272  0.4020 -0.2162  0.1059
 3146POPC   D2A38010  12.461  18.608  15.216  0.1105  0.1590 -0.1443
 3146POPC   C3A38011  12.325  18.226  15.391  0.0641  0.1671  0.4143
 3146POPC   C4A38012  11.915  18.339  15.343 -0.1185  0.0156  0.0107
 3146POPC   C1B38013  11.695  18.439  15.791 -0.3077  0.1054  0.2055
 3146POPC   C2B38014  11.992  18.310  16.072 -0.0791  0.3714  0.0483
 3146POPC   C3B38015  12.309  18.327  16.409  0.1971 -0.0178 -0.0798
 3146POPC   C4B38016  12.559  18.248  16.788 -0.2739  0.2999  0.1145
 3147POPC   NC338017   8.123  31.552  15.659 -0.0061 -0.0132  0.1294
 3147POPC   PO438018   7.978  31.913  15.441  0.1568 -0.0592 -0.4217
 3147POPC   GL138019   7.913  31.973  15.857  0.0577  0.2616  0.4976
 3147POPC   GL238020   7.966  32.242  15.841  0.0195 -0.2758 -0.0187
 3147POPC   C1A38021   7.950  31.933  16.296 -0.2567  0.3057 -0.1560
 3147POPC   D2A38022   7.943  31.887  16.751 -0.0654 -0.1143  0.1425
 3147POPC   C3A38023   7.523  31.708  16.956  0.7566  0.1810 -0.0980
 3147POPC   C4A38024   7.286  31.696  17.328  0.3355  0.1898  0.0487
 3147POPC   C1B38025   7.608  32.231  16.107  0.1244  0.0914  0.1257
 3147POPC   C2B38026   7.517  32.240  16.556 -0.2270  0.1825  0.1390
 3147POPC   C3B38027   7.625  32.193  17.003 -0.1240  0.0157  0.3238
 3147POPC   C4B38028   7.924  31.879  17.235  0.3490 -0.0432  0.0407
 3148POPC   NC338029  27.783  21.580  14.658  0.0225 -0.0684  0.3412
 3148POPC   PO438030  27.888  21.424  15.004 -0.2401  0.3979  0.1954
 3148POPC   GL138031  27.831  21.485  15.387  0.0281  0.4264 -0.0594
 3148POPC   GL238032  27.545  21.348  15.486  0.2489  0.1661  0.2061
 3148POPC   C1A38033  27.789  21.557  15.862 -0.0007 -0.2081  0.5689
 3148POPC   D2A38034  27.684  21.256  16.155  0.2093  0.0979  0.0843
 3148POPC   C3A38035  27.938  21.256  16.546  0.2553  0.0327 -0.0830
 3148POPC   C4A38036  28.154  21.418  16.930  0.2490  0.1347  0.2546
 3148POPC   C1B38037  27.289  21.409  15.846  0.0758  0.3387  0.1964
 3148POPC   C2B38038  27.326  21.557  16.245 -0.0871  0.1479 -0.2199
 3148POPC   C3B38039  27.422  21.412  16.659 -0.0060  0.0851 -0.0646
 3148POPC   C4B38040  27.695  21.173  16.971  0.1545 -0.3302 -0.0510
 3149POPC   NC338041  12.000   6.672  14.779  0.1675 -0.1499  0.1989
 3149POPC   PO438042  11.773   6.393  14.801  0.0239  0.0811  0.1722
 3149POPC   GL138043  11.681   6.184  15.133 -0.1277  0.2442 -0.3081
 3149POPC   GL238044  11.600   6.204  15.395  0.0974  0.0767  0.1410
 3149POPC   C1A38045  11.911   5.807  15.319 -0.2459 -0.0516  0.2789
 3149POPC   D2A38046  11.950   5.382  15.450  0.2080  0.1528  0.0417
 3149POPC   C3A38047  12.023   5.596  15.837 -0.2523 -0.0355 -0.1435
 3149POPC   C4A38048  11.963   5.544  16.333  0.0810  0.3058  0.1250
 3149POPC   C1B38049  11.726   5.971  15.800  0.2573 -0.2814 -0.4306
 3149POPC   C2B38050  11.489   5.730  16.175  0.0421  0.0371  0.2683
 3149POPC   C3B38051  11.423   5.424  16.492  0.2490  0.2100 -0.1342
 3149POPC   C4B38052  11.690   5.443  16.817  0.2053 -0.0241  0.0694
 3150POPC   NC338053  31.206  22.246  15.660 -0.1459  0.1873  0.0876
 3150POPC   PO438054  30.943  22.524  15.451 -0.1564  0.2134  0.0057
 3150POPC   GL138055  30.989  22.705  15.787 -0.0268  0.1429  0.1521
 3150POPC   GL238056  30.952  22.532  15.986  0.1012 -0.2987  0.1772
 3150POPC   C1A38057  31.134  23.002  16.113  0.3947 -0.1623 -0.2415
 3150POPC   D2A38058  31.433  23.157  16.448 -0.0837 -0.0063 -0.3602
 3150POPC   C3A38059  31.240  23.562  16.548 -0.1188  0.1971 -0.1527
 3150POPC   C4A38060  31.058  24.000  16.503 -0.3221 -0.0663  0.0125
 3150POPC   C1B38061  31.075  22.632  16.495 -0.2019  0.0233 -0.3529
 3150POPC   C2B38062  31.104  22.686  16.929 -0.2443 -0.0033  0.3159
 3150POPC   C3B38063  31.175  22.795  17.321  0.1665 -0.1575  0.0328
 3150POPC   C4B38064  30.990  22.970  17.666  0.1351 -0.0155  0.3168
 3151POPC   NC338065  29.766  22.739  15.247 -0.0090  0.2370 -0.4366
 3151POPC   PO438066  29.648  22.397  15.448 -0.0793 -0.0468  0.0758
 3151POPC   GL138067  29.896  22.601  15.741 -0.4406 -0.0471 -0.2545
 3151POPC   GL238068  29.865  22.392  15.952 -0.1044  0.0176 -0.1058
 3151POPC   C1A38069  29.807  22.897  16.089 -0.2373 -0.0135 -0.0426
 3151POPC   D2A38070  29.753  23.007  16.497 -0.0977  0.0896  0.3782
 3151POPC   C3A38071  29.639  23.335  16.819 -0.0135  0.3125 -0.1814
 3151POPC   C4A38072  29.491  23.652  17.083  0.0221  0.0696 -0.0305
 3151POPC   C1B38073  29.978  22.480  16.393  0.0211  0.4536  0.2225
 3151POPC   C2B38074  30.240  22.625  16.712  0.2319  0.1658  0.0994
 3151POPC   C3B38075  30.423  22.929  16.913 -0.3216  0.1753  0.1564
 3151POPC   C4B38076  30.844  23.083  17.060  0.4673 -0.2416  0.1785
 3152POPC   NC338077  17.998  20.624  14.822  0.0132 -0.2146  0.0625
 3152POPC   PO438078  18.082  20.347  15.102  0.0850 -0.0327 -0.0191
 3152POPC   GL138079  18.335  20.464  15.411 -0.0682  0.0387 -0.3900
 3152POPC   GL238080  18.138  20.546  15.579 -0.1254  0.0676 -0.2767
 3152POPC   C1A38081  18.601  20.279  15.776  0.0093  0.1613  0.3895
 3152POPC   D2A38082  18.824  20.204  16.192  0.0322  0.1187 -0.0119
 3152POPC   C3A38083  18.582  19.866  16.472 -0.0514  0.2307  0.0600
 3152POPC   C4A38084  18.721  19.844  16.869 -0.2422 -0.0658 -0.0876
 3152POPC   C1B38085  18.292  20.561  16.027  0.0731 -0.0267 -0.0006
 3152POPC   C2B38086  18.412  20.510  16.426 -0.3219  0.1224 -0.1912
 3152POPC   C3B38087  18.582  20.284  16.777  0.0809  0.0920  0.0149
 3152POPC   C4B38088  18.698  20.212  17.205 -0.1436  0.0039  0.3437
 3153POPC   NC338089  27.235  22.436  14.728 -0.0247 -0.1061 -0.2048
 3153POPC   PO438090  27.278  22.180  15.011  0.0452 -0.2061  0.1696
 3153POPC   GL138091  27.252  22.138  15.349 -0.0859  0.4649  0.2335
 3153POPC   GL238092  27.361  22.395  15.463  0.1330 -0.2692  0.1541
 3153POPC   C1A38093  27.348  21.973  15.774  0.1170 -0.0182  0.4401
 3153POPC   D2A38094  27.218  22.062  16.231 -0.3024 -0.2998 -0.3944
 3153POPC   C3A38095  27.509  22.071  16.628  0.3430 -0.1330 -0.0077
 3153POPC   C4A38096  27.917  22.237  16.787 -0.0357 -0.2555 -0.0849
 3153POPC   C1B38097  27.258  22.529  15.870  0.1298  0.0975  0.1282
 3153POPC   C2B38098  27.410  22.590  16.334  0.0794 -0.0360  0.0718
 3153POPC   C3B38099  27.402  22.636  16.811  0.0547  0.4211  0.2027
 3153POPC   C4B38100  27.666  22.480  17.194 -0.3222 -0.0979  0.0253
 3154POPC   NC338101  16.732  11.761  15.162  0.0343  0.0867  0.2252
 3154POPC   PO438102  16.739  11.378  15.007  0.0393  0.0331 -0.0114
 3154POPC   GL138103  16.501  11.381  15.274  0.1906 -0.0803 -0.0792
 3154POPC   GL238104  16.258  11.299  15.343  0.3988  0.0985 -0.0065
 3154POPC   C1A38105  16.471  11.716  15.617  0.1363 -0.0455 -0.3273
 3154POPC   D2A38106  16.368  11.927  15.976  0.0841 -0.0499  0.0550
 3154POPC   C3A38107  16.610  11.900  16.383  0.1483  0.1495 -0.0946
 3154POPC   C4A38108  16.946  12.105  16.644 -0.2821 -0.0382  0.2418
 3154POPC   C1B38109  16.171  11.395  15.816  0.1579  0.0018  0.2217
 3154POPC   C2B38110  15.848  11.664  16.062 -0.0637 -0.1178  0.0034
 3154POPC   C3B38111  15.612  11.549  16.468 -0.3219  0.2391  0.2332
 3154POPC   C4B38112  15.596  11.258  16.823 -0.1988 -0.0585  0.2544
 3155POPC   NC338113  30.928  30.053  14.660 -0.0628 -0.2808 -0.2199
 3155POPC   PO438114  30.751  30.008  14.989 -0.1301 -0.3229 -0.4602
 3155POPC   GL138115  30.614  29.777  15.315  0.0284  0.0289  0.0121
 3155POPC   GL238116  30.519  30.000  15.524 -0.0199 -0.1227 -0.0340
 3155POPC   C1A38117  30.874  29.567  15.623  0.1386  0.0068 -0.2512
 3155POPC   D2A38118  30.948  29.263  15.978 -0.0824 -0.1917 -0.1019
 3155POPC   C3A38119  31.052  29.331  16.443 -0.2505  0.3410 -0.0264
 3155POPC   C4A38120  31.106  29.437  16.861 -0.3059 -0.4544 -0.1705
 3155POPC   C1B38121  30.704  30.167  15.907 -0.0254  0.0194 -0.5190
 3155POPC   C2B38122  30.715  30.147  16.353 -0.0265 -0.0259  0.0235
 3155POPC   C3B38123  30.774  30.237  16.761  0.0663 -0.1530  0.0761
 3155POPC   C4B38124  31.056  30.317  17.150 -0.0993  0.0117 -0.1309
 3156POPC   NC338125  21.718  24.562  15.657 -0.0743 -0.0002  0.0708
 3156POPC   PO438126  21.816  24.779  15.341  0.2143  0.0426 -0.0406
 3156POPC   GL138127  21.836  25.020  15.568  0.0343  0.0547 -0.1060
 3156POPC   GL238128  21.842  25.259  15.508 -0.1039 -0.1110 -0.1168
 3156POPC   C1A38129  21.596  25.011  16.005  0.1450 -0.2862  0.1533
 3156POPC   D2A38130  21.544  24.898  16.445 -0.3598 -0.0023 -0.1436
 3156POPC   C3A38131  21.447  24.664  16.826 -0.2863  0.1363  0.0933
 3156POPC   C4A38132  21.174  24.759  17.178 -0.0206  0.2277  0.0990
 3156POPC   C1B38133  21.715  25.538  15.856  0.0444  0.0987 -0.0502
 3156POPC   C2B38134  21.727  25.718  16.236 -0.2791 -0.0504  0.1351
 3156POPC   C3B38135  21.671  26.029  16.617  0.4347 -0.1040  0.0470
 3156POPC   C4B38136  21.677  26.417  16.731 -0.3030 -0.0092 -0.2154
 3157POPC   NC338137  16.957  30.994  15.520 -0.1523 -0.1904 -0.2560
 3157POPC   PO438138  16.775  30.656  15.500  0.0026 -0.2777  0.1471
 3157POPC   GL138139  16.826  30.740  15.878  0.3218 -0.1279 -0.3461
 3157POPC   GL238140  16.917  30.515  16.096 -0.1925  0.1131  0.0114
 3157POPC   C1A38141  16.676  30.872  16.318  0.1792 -0.3313  0.0965
 3157POPC   D2A38142  16.753  31.122  16.679 -0.2942  0.4783  0.0783
 3157POPC   C3A38143  16.463  31.384  16.891  0.1746 -0.0151  0.0383
 3157POPC   C4A38144  16.022  31.440  17.001 -0.4796 -0.1087 -0.5001
 3157POPC   C1B38145  16.680  30.211  16.279 -0.0424  0.2545  0.0229
 3157POPC   C2B38146  16.404  29.846  16.509 -0.4018 -0.0653 -0.0203
 3157POPC   C3B38147  16.209  29.440  16.449 -0.1801  0.2967 -0.0575
 3157POPC   C4B38148  16.053  28.997  16.492 -0.0494 -0.0305  0.2016
 3158POPC   NC338149   4.928  20.639  15.541 -0.0825  0.0441  0.2521
 3158POPC   PO438150   4.606  20.475  15.457  0.3144 -0.0710 -0.0492
 3158POPC   GL138151   4.546  20.276  15.853 -0.0945  0.0508  0.0088
 3158POPC   GL238152   4.624  19.993  15.937  0.0310 -0.1481  0.1234
 3158POPC   C1A38153   4.628  20.427  16.284  0.0635  0.5325  0.1400
 3158POPC   D2A38154   4.343  20.474  16.622  0.4138 -0.0843  0.1005
 3158POPC   C3A38155   4.114  20.190  16.962 -0.1478 -0.6501 -0.2507
 3158POPC   C4A38156   4.256  19.804  17.212 -0.2106  0.0184  0.2335
 3158POPC   C1B38157   4.928  19.819  16.254 -0.1136 -0.5209  0.0663
 3158POPC   C2B38158   5.081  19.859  16.663 -0.1797 -0.1589 -0.0826
 3158POPC   C3B38159   5.184  20.139  17.005  0.0669  0.2525 -0.0342
 3158POPC   C4B38160   5.260  20.450  17.358  0.0262 -0.4034 -0.0472
 3159POPC   NC338161   6.595  24.019  14.909 -0.0969  0.0137  0.3768
 3159POPC   PO438162   6.506  24.310  15.157 -0.2082  0.4429  0.0611
 3159POPC   GL138163   6.314  24.281  15.528 -0.2224 -0.2400 -0.1032
 3159POPC   GL238164   6.061  24.243  15.441 -0.0501  0.1895 -0.2648
 3159POPC   C1A38165   6.570  24.024  15.863  0.2328  0.1145 -0.1006
 3159POPC   D2A38166   6.823  24.070  16.250  0.2391 -0.0100 -0.0838
 3159POPC   C3A38167   6.682  24.257  16.647 -0.0213 -0.0984  0.0964
 3159POPC   C4A38168   6.656  24.248  17.136  0.0051  0.3144  0.0679
 3159POPC   C1B38169   6.094  24.168  15.908  0.0103 -0.2520 -0.3032
 3159POPC   C2B38170   6.312  24.014  16.353  0.2051 -0.0712  0.2665
 3159POPC   C3B38171   6.176  24.090  16.752  0.2663 -0.0580 -0.0616
 3159POPC   C4B38172   5.932  24.286  17.120 -0.2834 -0.0495 -0.0589
 3160POPC   NC338173   3.068  19.204  14.856  0.1451  0.0230  0.2200
 3160POPC   PO438174   3.199  19.541  15.025  0.0314  0.0005 -0.0079
 3160POPC   GL138175   3.114  19.300  15.412  0.2557  0.1750 -0.2271
 3160POPC   GL238176   3.111  19.022  15.338 -0.0171 -0.0335  0.0005
 3160POPC   C1A38177   3.278  19.175  15.847 -0.0596  0.2303 -0.3131
 3160POPC   D2A38178   3.537  18.950  16.145 -0.1844  0.1737  0.1904
 3160POPC   C3A38179   3.671  19.036  16.598  0.1548 -0.1148 -0.0681
 3160POPC   C4A38180   3.743  18.888  16.998  0.0930 -0.0214 -0.0072
 3160POPC   C1B38181   2.852  18.657  15.263  0.0294  0.0829  0.1083
 3160POPC   C2B38182   2.536  18.305  15.062 -0.1867  0.0254  0.3391
 3160POPC   C3B38183   2.745  17.952  14.850  0.2785 -0.2773 -0.2408
 3160POPC   C4B38184   3.179  17.883  14.878 -0.2170  0.0653 -0.2029
 3161POPC   NC338185  20.324  16.042  14.624  0.1546 -0.1887 -0.2204
 3161POPC   PO438186  20.551  15.779  14.431  0.0196  0.0270  0.0588
 3161POPC   GL138187  20.498  15.619  14.711  0.1334  0.2919 -0.4356
 3161POPC   GL238188  20.607  15.613  14.971  0.2476 -0.0805 -0.1844
 3161POPC   C1A38189  20.188  15.335  14.955 -0.1499  0.5555  0.0631
 3161POPC   D2A38190  19.881  15.046  15.159 -0.1855  0.2175  0.1050
 3161POPC   C3A38191  19.994  15.012  15.597  0.0222 -0.1108 -0.1956
 3161POPC   C4A38192  19.677  15.158  15.994  0.0407  0.0285  0.2050
 3161POPC   C1B38193  20.501  15.737  15.437  0.1016  0.3548 -0.3209
 3161POPC   C2B38194  20.488  15.513  15.787 -0.1622 -0.1584 -0.0028
 3161POPC   C3B38195  20.356  15.573  16.264  0.1495 -0.0504  0.0209
 3161POPC   C4B38196  20.417  15.657  16.728  0.1373  0.2092  0.2989
 3162POPC   NC338197   7.149   7.324  15.405  0.1400 -0.2434  0.0963
 3162POPC   PO438198   6.753   7.319  15.246 -0.1672  0.1727  0.0124
 3162POPC   GL138199   6.533   7.287  15.593  0.1546 -0.1089 -0.2063
 3162POPC   GL238200   6.638   7.539  15.715 -0.0207  0.2795  0.0713
 3162POPC   C1A38201   6.183   7.466  15.804 -0.1694 -0.5641  0.2128
 3162POPC   D2A38202   5.866   7.767  16.042  0.1074 -0.3290  0.1820
 3162POPC   C3A38203   6.037   7.923  16.414 -0.2709  0.1728 -0.2906
 3162POPC   C4A38204   6.078   8.055  16.863 -0.0825 -0.2335  0.3498
 3162POPC   C1B38205   6.786   7.674  16.161 -0.0721 -0.0505  0.1035
 3162POPC   C2B38206   6.626   7.684  16.569 -0.0670  0.1453  0.0751
 3162POPC   C3B38207   6.524   7.731  17.036  0.0924  0.0958  0.0754
 3162POPC   C4B38208   6.431   8.087  17.346 -0.0462 -0.1529 -0.0423
 3163POPC   NC338209  21.852  15.103  15.217  0.3450 -0.0499 -0.1447
 3163POPC   PO438210  21.630  14.840  15.009 -0.4353  0.1038 -0.0651
 3163POPC   GL138211  21.520  14.742  15.356 -0.1038  0.0115 -0.1962
 3163POPC   GL238212  21.762  14.580  15.412 -0.0211 -0.0327 -0.2713
 3163POPC   C1A38213  21.193  14.558  15.641  0.2732 -0.0417  0.5087
 3163POPC   D2A38214  21.041  14.425  16.035  0.0929 -0.3153  0.1823
 3163POPC   C3A38215  21.354  14.526  16.320  0.3560  0.1840 -0.4012
 3163POPC   C4A38216  21.598  14.471  16.693 -0.1705 -0.0535  0.2619
 3163POPC   C1B38217  21.621  14.502  15.844 -0.3328  0.1386 -0.0560
 3163POPC   C2B38218  21.885  14.531  16.278 -0.1644 -0.0376  0.0646
 3163POPC   C3B38219  22.205  14.545  16.648 -0.0042 -0.1542  0.0211
 3163POPC   C4B38220  22.390  14.302  16.991 -0.0254 -0.0287  0.0012
 3164POPC   NC338221  16.938  14.192  15.145  0.0187 -0.4646  0.1234
 3164POPC   PO438222  16.726  13.905  15.324  0.0864  0.1913  0.2896
 3164POPC   GL138223  16.703  13.975  15.627  0.2892  0.3288  0.1327
 3164POPC   GL238224  16.922  14.082  15.743  0.0790  0.3977  0.0722
 3164POPC   C1A38225  16.575  13.838  16.056 -0.0772  0.3865 -0.0240
 3164POPC   D2A38226  16.581  13.660  16.465 -0.0235 -0.0819  0.0090
 3164POPC   C3A38227  16.413  13.902  16.820  0.0843  0.1246 -0.1610
 3164POPC   C4A38228  16.226  14.344  16.948  0.1623  0.1995  0.3073
 3164POPC   C1B38229  16.959  14.043  16.250  0.1494 -0.0637  0.1666
 3164POPC   C2B38230  16.911  14.105  16.698  0.2729  0.0037  0.1269
 3164POPC   C3B38231  16.699  14.221  17.119  0.0943  0.0932  0.0365
 3164POPC   C4B38232  16.680  14.244  17.590 -0.2069  0.1628 -0.1371
 3165POPC   NC338233  30.475  31.177  15.398  0.4157 -0.2362 -0.1236
 3165POPC   PO438234  30.292  31.440  15.179 -0.2508  0.1231 -0.2491
 3165POPC   GL138235  29.991  31.529  15.481 -0.1447  0.2494 -0.2113
 3165POPC   GL238236  30.086  31.409  15.683  0.2156 -0.0626  0.2876
 3165POPC   C1A38237  29.900  31.865  15.803 -0.0236 -0.2143  0.0410
 3165POPC   D2A38238  30.056  32.182  16.077 -0.3501 -0.2971 -0.0645
 3165POPC   C3A38239  30.142  32.237  16.542 -0.0269 -0.0491  0.1685
 3165POPC   C4A38240  30.023  32.078  16.930 -0.0703  0.0512  0.1742
 3165POPC   C1B38241  30.078  31.529  16.140 -0.0519  0.2043  0.1186
 3165POPC   C2B38242  29.965  31.425  16.567  0.3304 -0.1683 -0.4584
 3165POPC   C3B38243  29.772  31.158  16.917  0.1872 -0.1038  0.1822
 3165POPC   C4B38244  29.547  30.879  17.153 -0.0432 -0.0023  0.3484
 3166POPC   NC338245  27.007   0.651  14.607  0.1875 -0.0686 -0.0373
 3166POPC   PO438246  27.323   0.429  14.532  0.4117 -0.0542 -0.1798
 3166POPC   GL138247  27.250   0.504  14.999  0.2256 -0.0857 -0.0933
 3166POPC   GL238248  26.960   0.540  15.107  0.2887  0.0579  0.0457
 3166POPC   C1A38249  27.286   0.567  15.448 -0.1522 -0.2351  0.1268
 3166POPC   D2A38250  27.588   0.639  15.717 -0.1054 -0.0472 -0.3081
 3166POPC   C3A38251  27.488   0.602  16.164  0.0407  0.1034  0.0251
 3166POPC   C4A38252  27.676   0.664  16.639  0.0243 -0.0509 -0.0159
 3166POPC   C1B38253  27.111   0.142  15.294  0.0585  0.1234  0.4108
 3166POPC   C2B38254  27.220  -0.292  15.180  0.2840 -0.0609 -0.1115
 3166POPC   C3B38255  27.052  -0.681  15.354 -0.1556  0.1033 -0.1441
 3166POPC   C4B38256  26.759  -1.020  15.477  0.5828  0.1128 -0.3755
 3167POPC   NC338257  26.459  19.638  14.701  0.0499 -0.2279 -0.1685
 3167POPC   PO438258  26.339  19.287  14.559  0.1107  0.0019 -0.0401
 3167POPC   GL138259  26.278  19.323  14.980  0.0769 -0.2062  0.0751
 3167POPC   GL238260  26.254  19.609  15.194  0.1534  0.1697  0.0328
 3167POPC   C1A38261  26.116  19.021  15.283 -0.2295  0.1079 -0.0499
 3167POPC   D2A38262  26.111  18.630  15.463  0.4072  0.0381 -0.1838
 3167POPC   C3A38263  26.137  18.511  15.959  0.0574  0.0326 -0.1111
 3167POPC   C4A38264  25.841  18.501  16.339 -0.1169  0.0928 -0.0397
 3167POPC   C1B38265  26.340  19.731  15.605  0.0874 -0.4859  0.2502
 3167POPC   C2B38266  26.367  19.792  16.091  0.1761  0.1403  0.0830
 3167POPC   C3B38267  26.386  19.707  16.497 -0.0690  0.0754  0.1294
 3167POPC   C4B38268  26.605  19.474  16.835  0.1551  0.1026 -0.0211
 3168POPC   NC338269  17.407   0.821  15.091 -0.4621  0.0387 -0.2294
 3168POPC   PO438270  17.079   0.703  15.136  0.0117  0.3895 -0.3231
 3168POPC   GL138271  16.840   0.824  15.441 -0.1543  0.1204  0.1819
 3168POPC   GL238272  16.754   1.071  15.489  0.1037  0.2514 -0.0561
 3168POPC   C1A38273  16.464   0.793  15.763  0.0659 -0.0555 -0.1711
 3168POPC   D2A38274  16.154   0.878  16.048 -0.3944  0.0559 -0.0574
 3168POPC   C3A38275  16.038   0.462  15.939 -0.1839 -0.0222 -0.2188
 3168POPC   C4A38276  15.884   0.033  15.923  0.2500  0.0282  0.2751
 3168POPC   C1B38277  16.733   1.195  15.917 -0.0835  0.1163  0.0521
 3168POPC   C2B38278  16.559   1.157  16.303 -0.2986 -0.1613  0.1110
 3168POPC   C3B38279  16.267   1.066  16.716  0.1697 -0.3319  0.1292
 3168POPC   C4B38280  16.159   1.321  17.108  0.2319 -0.0661 -0.0665
 3169POPC   NC338281  16.851  27.475  15.412  0.2090  0.0972 -0.1723
 3169POPC   PO438282  16.945  27.083  15.457 -0.1671  0.3418 -0.2315
 3169POPC   GL138283  16.829  26.844  15.810  0.3088  0.0908 -0.0977
 3169POPC   GL238284  16.635  27.076  15.905  0.2221  0.0950 -0.0290
 3169POPC   C1A38285  16.998  26.947  16.231 -0.1341 -0.0497 -0.2073
 3169POPC   D2A38286  17.373  26.775  16.562  0.2149  0.1298  0.2329
 3169POPC   C3A38287  17.156  26.736  16.985 -0.2872  0.2328  0.2264
 3169POPC   C4A38288  17.246  26.358  17.243  0.0931  0.0997  0.2808
 3169POPC   C1B38289  16.533  27.030  16.359  0.0130 -0.2521 -0.0172
 3169POPC   C2B38290  16.298  26.855  16.835  0.1836 -0.1451 -0.1515
 3169POPC   C3B38291  16.290  26.635  17.244  0.2172  0.0880  0.1345
 3169POPC   C4B38292  16.265  26.309  17.563  0.0811  0.0168  0.0595
 3170POPC   NC338293  30.776   7.778  15.173  0.1463 -0.2618 -0.1225
 3170POPC   PO438294  30.620   7.947  14.882 -0.2933 -0.0264 -0.0946
 3170POPC   GL138295  30.369   7.991  15.171  0.2529 -0.2311 -0.1577
 3170POPC   GL238296  30.423   7.964  15.471  0.1773  0.4386 -0.0577
 3170POPC   C1A38297  29.943   7.833  15.290 -0.1020 -0.0392  0.1966
 3170POPC   D2A38298  29.546   7.672  15.345 -0.4315 -0.0084  0.1888
 3170POPC   C3A38299  29.397   7.513  15.818 -0.1078  0.1735  0.0689
 3170POPC   C4A38300  29.387   7.124  16.015 -0.1695 -0.2065  0.1555
 3170POPC   C1B38301  30.228   7.783  15.882 -0.1159 -0.1661  0.1559
 3170POPC   C2B38302  30.182   7.890  16.306  0.0429 -0.2175 -0.2269
 3170POPC   C3B38303  30.014   7.684  16.745 -0.0554  0.3807  0.1262
 3170POPC   C4B38304  30.039   7.448  17.195 -0.1225 -0.3259  0.1421
 3171POPC   NC338305  12.876  30.200  14.984 -0.0373  0.1422 -0.2272
 3171POPC   PO438306  13.013  30.552  15.002 -0.1375  0.0074 -0.3780
 3171POPC   GL138307  13.176  30.581  15.352  0.0482 -0.1778  0.0452
 3171POPC   GL238308  13.107  30.330  15.473  0.1135  0.5757  0.0120
 3171POPC   C1A38309  13.242  30.885  15.691 -0.0785 -0.0095  0.0598
 3171POPC   D2A38310  13.231  31.262  15.926 -0.3842 -0.1574  0.2379
 3171POPC   C3A38311  13.329  31.733  15.973  0.1169 -0.0153 -0.0498
 3171POPC   C4A38312  13.065  32.073  16.075 -0.1833  0.1839 -0.1110
 3171POPC   C1B38313  13.179  30.382  15.954  0.0897  0.0483 -0.0135
 3171POPC   C2B38314  13.392  30.336  16.297  0.1626 -0.2140 -0.1727
 3171POPC   C3B38315  13.671  30.241  16.734  0.0360 -0.0348  0.3450
 3171POPC   C4B38316  13.593  29.833  16.994 -0.1323  0.0025 -0.0818
 3172POPC   NC338317  26.458  29.495  14.717  0.2238 -0.2937 -0.2924
 3172POPC   PO438318  26.094  29.395  14.843  0.0820 -0.0822 -0.1721
 3172POPC   GL138319  26.034  29.258  15.175  0.0961  0.0030  0.0566
 3172POPC   GL238320  25.995  28.925  15.312 -0.0377 -0.2428 -0.1141
 3172POPC   C1A38321  26.193  29.283  15.634 -0.1047  0.0201  0.1316
 3172POPC   D2A38322  26.254  29.284  16.095 -0.2672 -0.4432 -0.1027
 3172POPC   C3A38323  26.293  29.689  16.337 -0.0531  0.2185 -0.1291
 3172POPC   C4A38324  26.543  29.905  16.649  0.0980  0.0044 -0.1230
 3172POPC   C1B38325  25.924  28.887  15.715 -0.3928  0.2020  0.0124
 3172POPC   C2B38326  25.858  28.966  16.171 -0.0053 -0.0368  0.0343
 3172POPC   C3B38327  25.819  29.040  16.629  0.0020 -0.1030  0.0430
 3172POPC   C4B38328  25.741  29.414  16.857 -0.0709 -0.1165 -0.1469
 3173POPC   NC338329  17.711   5.567  15.133  0.0978  0.2134  0.3567
 3173POPC   PO438330  17.977   5.280  15.230  0.2553 -0.0522  0.0151
 3173POPC   GL138331  17.939   5.359  15.531 -0.0110  0.1462  0.2587
 3173POPC   GL238332  18.181   5.366  15.722 -0.3127 -0.3709 -0.1257
 3173POPC   C1A38333  17.766   5.119  15.886  0.1163 -0.2857  0.2659
 3173POPC   D2A38334  17.834   5.087  16.327  0.0295  0.1783 -0.1681
 3173POPC   C3A38335  17.875   5.490  16.613 -0.0184 -0.0448  0.2182
 3173POPC   C4A38336  17.782   5.913  16.517 -0.1108  0.0990 -0.0109
 3173POPC   C1B38337  18.282   5.297  16.183  0.1566 -0.0669 -0.2240
 3173POPC   C2B38338  18.267   5.129  16.596  0.0321 -0.2505 -0.2370
 3173POPC   C3B38339  18.018   5.151  16.973  0.0975  0.0150  0.0286
 3173POPC   C4B38340  17.700   5.489  17.115  0.1149  0.0721 -0.0954
 3174POPC   NC338341  10.598   4.759  15.146  0.3488  0.0885 -0.0921
 3174POPC   PO438342  10.832   5.068  15.168 -0.0606  0.2709  0.1184
 3174POPC   GL138343  11.072   4.989  15.381  0.0772  0.0516  0.0839
 3174POPC   GL238344  11.155   4.754  15.393 -0.0711  0.0337 -0.2368
 3174POPC   C1A38345  11.199   4.979  15.853  0.3888  0.0540  0.0495
 3174POPC   D2A38346  11.525   4.767  16.145 -0.0634 -0.1207 -0.0152
 3174POPC   C3A38347  11.598   4.916  16.657 -0.0545 -0.2533  0.2419
 3174POPC   C4A38348  11.547   5.025  17.094  0.1582  0.1204 -0.1061
 3174POPC   C1B38349  11.401   4.510  15.717  0.0002 -0.1621 -0.0343
 3174POPC   C2B38350  11.656   4.265  16.059 -0.2513  0.2783 -0.1397
 3174POPC   C3B38351  11.695   3.996  16.463 -0.0443 -0.0166 -0.0195
 3174POPC   C4B38352  11.703   4.207  16.851 -0.4453 -0.1316  0.0289
 3175POPC   NC338353  29.207  13.028  15.581  0.0144  0.1620 -0.1627
 3175POPC   PO438354  29.296  12.764  15.274 -0.1479 -0.2643  0.1774
 3175POPC   GL138355  29.339  12.564  15.615 -0.0207  0.1090  0.4091
 3175POPC   GL238356  29.517  12.732  15.848  0.0362  0.3605  0.2365
 3175POPC   C1A38357  29.751  12.333  15.676 -0.2476  0.0389  0.2110
 3175POPC   D2A38358  30.168  12.288  15.832  0.0646  0.0259 -0.2642
 3175POPC   C3A38359  30.230  12.152  16.298 -0.0060 -0.1260 -0.2875
 3175POPC   C4A38360  30.251  11.944  16.701 -0.0831 -0.1223  0.2761
 3175POPC   C1B38361  29.374  12.950  16.253  0.2124  0.2750  0.0785
 3175POPC   C2B38362  29.155  12.920  16.663 -0.0097 -0.2643  0.1718
 3175POPC   C3B38363  29.192  13.128  17.005 -0.0058  0.0325  0.3674
 3175POPC   C4B38364  29.523  13.390  17.221 -0.3128 -0.0011  0.0694
 3176POPC   NC338365   7.097   9.123  14.355  0.0520 -0.2291  0.0352
 3176POPC   PO438366   7.374   9.208  14.565 -0.1471 -0.2395 -0.0375
 3176POPC   GL138367   7.188   9.278  14.866  0.1074 -0.1409  0.1657
 3176POPC   GL238368   7.234   9.525  14.969  0.1899 -0.0815  0.1275
 3176POPC   C1A38369   7.289   9.169  15.309 -0.1295  0.1685 -0.2400
 3176POPC   D2A38370   7.515   9.277  15.720 -0.0893 -0.1219  0.2746
 3176POPC   C3A38371   7.348   9.670  15.968  0.1591 -0.0313  0.3679
 3176POPC   C4A38372   6.993   9.704  16.328  0.0101  0.2280  0.0675
 3176POPC   C1B38373   7.199   9.659  15.444 -0.0441 -0.1021 -0.2093
 3176POPC   C2B38374   6.902   9.702  15.784 -0.0875  0.2367 -0.0040
 3176POPC   C3B38375   6.614   9.911  16.073  0.1987  0.2836 -0.1428
 3176POPC   C4B38376   6.297  10.162  16.265  0.0658 -0.0680  0.2611
 3177POPC   NC338377  12.560  15.028  15.205 -0.1226 -0.0561  0.1464
 3177POPC   PO438378  12.927  15.116  15.278  0.0375 -0.3088  0.0940
 3177POPC   GL138379  12.886  15.460  15.523 -0.1062 -0.0840  0.0792
 3177POPC   GL238380  12.604  15.569  15.432 -0.0738  0.2068  0.0793
 3177POPC   C1A38381  13.053  15.586  15.931  0.3666  0.3439  0.3644
 3177POPC   D2A38382  13.301  15.648  16.284 -0.2855  0.0940 -0.2198
 3177POPC   C3A38383  13.709  15.863  16.328 -0.0731 -0.3423  0.0249
 3177POPC   C4A38384  13.884  16.132  16.694 -0.2941  0.0170 -0.0107
 3177POPC   C1B38385  12.580  15.756  15.792 -0.0273  0.1797  0.0553
 3177POPC   C2B38386  12.321  15.956  16.119  0.1980 -0.1122  0.0890
 3177POPC   C3B38387  12.227  16.261  16.477  0.0133  0.2133  0.1521
 3177POPC   C4B38388  12.253  16.635  16.781  0.0695  0.1844 -0.0072
 3178POPC   NC338389   3.563  21.256  15.567 -0.0223  0.2354 -0.1854
 3178POPC   PO438390   3.893  21.358  15.345  0.2241 -0.1466  0.2571
 3178POPC   GL138391   3.950  21.429  15.709 -0.0622 -0.2729 -0.0023
 3178POPC   GL238392   4.222  21.382  15.859  0.3011 -0.3894  0.2717
 3178POPC   C1A38393   4.033  21.855  15.924 -0.1605 -0.3256  0.1635
 3178POPC   D2A38394   4.087  22.054  16.334  0.1749 -0.2105  0.0487
 3178POPC   C3A38395   3.991  21.787  16.767 -0.0311 -0.2123 -0.0942
 3178POPC   C4A38396   3.880  21.885  17.223 -0.2153 -0.1379 -0.1131
 3178POPC   C1B38397   4.193  21.523  16.304 -0.0745  0.5000 -0.0652
 3178POPC   C2B38398   4.270  21.336  16.732  0.1611  0.0634 -0.1551
 3178POPC   C3B38399   4.508  21.037  17.017 -0.1755 -0.0095 -0.2250
 3178POPC   C4B38400   4.489  20.583  17.125 -0.5900  0.0917 -0.0660
 3179POPC   NC338401  31.493  13.285  15.288  0.2074  0.2827  0.0409
 3179POPC   PO438402  31.268  13.134  15.592 -0.1157 -0.2293 -0.1051
 3179POPC   GL138403  31.311  13.332  15.866 -0.3243  0.1759 -0.0156
 3179POPC   GL238404  31.176  13.283  16.055 -0.1319 -0.1829  0.0889
 3179POPC   C1A38405  31.517  13.643  16.128 -0.0361  0.2406 -0.0359
 3179POPC   D2A38406  31.893  13.704  16.427  0.2204 -0.3226  0.3892
 3179POPC   C3A38407  32.165  13.414  16.619  0.1788  0.0081  0.0620
 3179POPC   C4A38408  32.345  13.406  17.059 -0.1283  0.2077 -0.0045
 3179POPC   C1B38409  31.256  13.433  16.490 -0.1059  0.1885 -0.0237
 3179POPC   C2B38410  31.295  13.380  16.957  0.0093 -0.3707 -0.3745
 3179POPC   C3B38411  31.068  13.335  17.370  0.1632  0.0330 -0.0906
 3179POPC   C4B38412  30.968  13.726  17.516 -0.0280 -0.2060  0.0634
 3180POPC   NC338413  27.604  23.325  15.076  0.2892  0.2045 -0.0114
 3180POPC   PO438414  27.637  22.934  15.028  0.0261  0.2717 -0.0619
 3180POPC   GL138415  27.630  22.999  15.489  0.1446 -0.0359  0.3699
 3180POPC   GL238416  27.805  23.155  15.614  0.2518  0.0434  0.0992
 3180POPC   C1A38417  27.575  22.885  15.946  0.0216 -0.2712  0.1339
 3180POPC   D2A38418  27.590  23.061  16.384  0.0466  0.0941  0.1142
 3180POPC   C3A38419  27.222  23.113  16.725 -0.3005 -0.1230  0.0880
 3180POPC   C4A38420  26.999  23.245  17.086 -0.0911  0.0614 -0.0197
 3180POPC   C1B38421  27.869  23.299  16.069  0.0795  0.2862 -0.1685
 3180POPC   C2B38422  28.025  23.158  16.500  0.0063 -0.1789  0.1227
 3180POPC   C3B38423  27.887  22.861  16.837 -0.1823 -0.0987 -0.1738
 3180POPC   C4B38424  27.967  22.889  17.241 -0.2030  0.2220 -0.1866
 3181POPC   NC338425  12.836  12.962  15.347 -0.2744 -0.1066  0.2088
 3181POPC   PO438426  13.239  13.048  15.425  0.0599  0.2980  0.3287
 3181POPC   GL138427  13.123  13.042  15.762 -0.1052 -0.1517 -0.0952
 3181POPC   GL238428  12.867  12.918  15.913 -0.0697 -0.3362 -0.0492
 3181POPC   C1A38429  13.406  12.822  16.127 -0.2351  0.0812  0.0678
 3181POPC   D2A38430  13.639  12.484  16.396 -0.1823 -0.1649  0.0590
 3181POPC   C3A38431  13.514  12.436  16.828  0.1254 -0.0598 -0.1235
 3181POPC   C4A38432  13.643  12.443  17.282  0.1420 -0.2637  0.3744
 3181POPC   C1B38433  12.789  12.888  16.376 -0.2033 -0.0973 -0.1565
 3181POPC   C2B38434  12.830  12.673  16.768  0.0746 -0.1888 -0.1245
 3181POPC   C3B38435  13.036  12.533  17.154 -0.0381  0.2641 -0.2685
 3181POPC   C4B38436  13.305  12.777  17.506  0.0520 -0.0947 -0.0699
 3182POPC   NC338437   0.051  16.572  15.434  0.0772  0.1833  0.1196
 3182POPC   PO438438   0.331  16.859  15.319 -0.0393 -0.0194 -0.0247
 3182POPC   GL138439   0.461  16.739  15.614 -0.0495 -0.1993  0.0437
 3182POPC   GL238440   0.481  16.429  15.623 -0.2116  0.1587  0.3712
 3182POPC   C1A38441   0.207  16.717  16.023 -0.3076  0.2894  0.2443
 3182POPC   D2A38442   0.233  16.519  16.400 -0.2442  0.2228  0.1529
 3182POPC   C3A38443   0.367  16.455  16.834 -0.1149  0.0432  0.1364
 3182POPC   C4A38444   0.227  16.137  17.179 -0.1534 -0.1925 -0.1948
 3182POPC   C1B38445   0.571  16.338  16.062 -0.0598 -0.2550  0.0562
 3182POPC   C2B38446   0.711  16.452  16.528 -0.0285  0.3041  0.0182
 3182POPC   C3B38447   1.040  16.380  16.802 -0.0711 -0.2508  0.1198
 3182POPC   C4B38448   1.142  15.993  17.091  0.0658 -0.0269  0.5239
 3183POPC   NC338449  22.226  19.033  15.575  0.2812  0.0552  0.0888
 3183POPC   PO438450  21.960  18.757  15.549  0.2169 -0.0978 -0.0141
 3183POPC   GL138451  21.849  18.417  15.765 -0.1472 -0.2619  0.2601
 3183POPC   GL238452  21.622  18.566  15.914  0.1638  0.0363  0.3286
 3183POPC   C1A38453  21.793  18.209  16.163  0.3035 -0.0563  0.1304
 3183POPC   D2A38454  21.810  18.089  16.605  0.3233 -0.1324  0.0753
 3183POPC   C3A38455  21.704  18.020  17.036  0.1107 -0.2438  0.1190
 3183POPC   C4A38456  21.686  17.606  17.240 -0.0536 -0.3289  0.1856
 3183POPC   C1B38457  21.472  18.675  16.368 -0.0949 -0.2368 -0.0131
 3183POPC   C2B38458  21.325  18.571  16.806 -0.0240 -0.1312 -0.0565
 3183POPC   C3B38459  21.319  18.488  17.254  0.3813 -0.1120  0.0168
 3183POPC   C4B38460  21.087  18.410  17.649  0.0183  0.1720  0.0444
 3184POPC   NC338461  22.902   3.545  14.646 -0.1510  0.1946 -0.1342
 3184POPC   PO438462  23.296   3.504  14.804  0.0743  0.5515  0.3505
 3184POPC   GL138463  23.371   3.471  15.258 -0.2766  0.1334 -0.0598
 3184POPC   GL238464  23.106   3.631  15.440 -0.2220  0.2532  0.0850
 3184POPC   C1A38465  23.401   3.384  15.721 -0.2148 -0.0063 -0.0889
 3184POPC   D2A38466  23.528   3.398  16.158  0.1664  0.0461  0.1098
 3184POPC   C3A38467  23.854   3.324  16.519  0.2846 -0.3139 -0.0431
 3184POPC   C4A38468  23.900   3.380  16.985  0.1552 -0.1801  0.1968
 3184POPC   C1B38469  23.069   3.713  15.921 -0.1691  0.1984  0.2657
 3184POPC   C2B38470  23.152   3.651  16.320 -0.3083 -0.0172  0.0835
 3184POPC   C3B38471  23.455   3.569  16.670 -0.1804 -0.1252  0.1804
 3184POPC   C4B38472  23.431   3.409  17.111  0.1488  0.1941  0.2600
 3185POPC   NC338473  15.179   5.387  15.069  0.0350  0.0433 -0.0955
 3185POPC   PO438474  15.502   5.179  15.079  0.1375  0.1648  0.0642
 3185POPC   GL138475  15.614   5.087  15.501  0.1335  0.1745  0.2082
 3185POPC   GL238476  15.433   5.241  15.753  0.0839  0.2835 -0.1094
 3185POPC   C1A38477  15.954   4.970  15.755  0.1265  0.2414  0.3139
 3185POPC   D2A38478  16.314   5.062  16.028 -0.1856 -0.0406  0.2095
 3185POPC   C3A38479  16.195   5.011  16.457  0.0586  0.0283  0.0810
 3185POPC   C4A38480  16.023   5.050  16.893  0.0645 -0.3807  0.2106
 3185POPC   C1B38481  15.585   5.359  16.144 -0.2838  0.2947  0.0594
 3185POPC   C2B38482  15.814   5.356  16.549  0.2512 -0.1366 -0.1809
 3185POPC   C3B38483  16.222   5.505  16.789 -0.1926 -0.0444  0.1132
 3185POPC   C4B38484  16.380   5.809  17.121  0.2757  0.0386  0.1611
 3186POPC   NC338485   5.940  19.285  15.156 -0.0787 -0.1821  0.0937
 3186POPC   PO438486   5.593  19.505  15.244 -0.2263 -0.0941  0.1091
 3186POPC   GL138487   5.727  19.325  15.644  0.0147  0.1155 -0.1123
 3186POPC   GL238488   6.016  19.174  15.690  0.1459  0.0527  0.2383
 3186POPC   C1A38489   5.811  19.451  16.074 -0.0283  0.3633 -0.1533
 3186POPC   D2A38490   5.895  19.675  16.500 -0.0222  0.2711  0.2026
 3186POPC   C3A38491   5.595  19.764  16.765 -0.1267 -0.0254  0.3813
 3186POPC   C4A38492   5.441  19.721  17.182  0.0910 -0.0635  0.0346
 3186POPC   C1B38493   5.990  18.976  16.165  0.2715  0.0120 -0.0405
 3186POPC   C2B38494   5.803  18.761  16.555 -0.3267 -0.1701  0.1568
 3186POPC   C3B38495   5.491  18.467  16.755 -0.0618  0.3312 -0.1140
 3186POPC   C4B38496   5.108  18.338  16.988  0.1833  0.0403 -0.0619
 3187POPC   NC338497   4.230  13.989  15.382 -0.4905 -0.0421  0.0363
 3187POPC   PO438498   4.052  14.366  15.374 -0.0839 -0.0251 -0.0830
 3187POPC   GL138499   4.028  14.398  15.795  0.5768 -0.1995  0.1946
 3187POPC   GL238500   3.976  14.138  15.867  0.1109  0.0334 -0.0434
 3187POPC   C1A38501   4.053  14.622  16.208 -0.4679  0.1134  0.2200
 3187POPC   D2A38502   4.000  14.646  16.602 -0.2092  0.1065 -0.2114
 3187POPC   C3A38503   4.074  14.865  17.021  0.0149  0.0445  0.0794
 3187POPC   C4A38504   4.280  15.198  17.285  0.3456 -0.3112  0.0212
 3187POPC   C1B38505   3.857  14.156  16.298 -0.0232 -0.0500  0.2495
 3187POPC   C2B38506   3.647  14.268  16.698  0.1024  0.1784 -0.0373
 3187POPC   C3B38507   3.240  14.083  16.891 -0.3515 -0.1129 -0.0669
 3187POPC   C4B38508   3.057  14.220  17.306 -0.0017  0.0865 -0.0322
 3188POPC   NC338509  23.257  22.193  14.584 -0.1811 -0.1833 -0.0313
 3188POPC   PO438510  23.068  22.429  14.817  0.1627  0.0055  0.1342
 3188POPC   GL138511  22.977  22.805  15.016 -0.2595 -0.2838 -0.1219
 3188POPC   GL238512  22.879  22.673  15.281 -0.3319  0.0243  0.0027
 3188POPC   C1A38513  23.042  23.147  15.389 -0.0902 -0.0580  0.3707
 3188POPC   D2A38514  23.387  23.457  15.338 -0.1773  0.0049 -0.2210
 3188POPC   C3A38515  23.757  23.219  15.201 -0.0053  0.2980  0.1523
 3188POPC   C4A38516  23.955  22.934  14.910  0.1440  0.0743  0.0821
 3188POPC   C1B38517  22.880  22.761  15.739  0.3990 -0.2861  0.1664
 3188POPC   C2B38518  22.923  22.979  16.158  0.0676 -0.1048  0.0323
 3188POPC   C3B38519  22.832  23.240  16.516 -0.2526  0.1254  0.2436
 3188POPC   C4B38520  22.949  23.563  16.825  0.1412 -0.0270  0.1678
 3189POPC   NC338521  24.735  29.955  15.313 -0.0657 -0.0572 -0.1160
 3189POPC   PO438522  25.008  30.215  15.201 -0.0365  0.1740  0.1454
 3189POPC   GL138523  25.129  30.036  15.494 -0.3336  0.3114  0.3207
 3189POPC   GL238524  25.465  29.995  15.403  0.0709 -0.2673 -0.0506
 3189POPC   C1A38525  25.271  30.129  15.905  0.2972 -0.3057 -0.4387
 3189POPC   D2A38526  25.436  30.299  16.294 -0.0086  0.1838 -0.1081
 3189POPC   C3A38527  25.420  30.608  16.652  0.2494 -0.0593 -0.1164
 3189POPC   C4A38528  25.581  30.687  17.098 -0.1534  0.1966  0.1120
 3189POPC   C1B38529  25.763  30.032  15.789  0.0102  0.0402  0.2527
 3189POPC   C2B38530  25.914  29.983  16.219  0.1188  0.0126 -0.2008
 3189POPC   C3B38531  26.001  29.926  16.689 -0.0383 -0.0579  0.0099
 3189POPC   C4B38532  25.818  30.163  17.032  0.1691 -0.0769 -0.0831
 3190POPC   NC338533   7.414  22.347  15.257 -0.1095  0.0905  0.1525
 3190POPC   PO438534   7.090  22.475  15.431 -0.0404 -0.1166 -0.0537
 3190POPC   GL138535   7.363  22.587  15.689 -0.0742  0.3201  0.1933
 3190POPC   GL238536   7.122  22.788  15.830  0.2719  0.3793 -0.0615
 3190POPC   C1A38537   7.500  22.644  16.143  0.1646 -0.0092  0.1603
 3190POPC   D2A38538   7.536  22.864  16.496 -0.2782 -0.1877  0.1147
 3190POPC   C3A38539   7.605  23.056  16.909 -0.3094 -0.1455  0.0415
 3190POPC   C4A38540   7.735  23.234  17.311  0.1066  0.1029 -0.0276
 3190POPC   C1B38541   7.146  23.098  16.199 -0.0832 -0.1450  0.0743
 3190POPC   C2B38542   7.061  23.190  16.671  0.2424 -0.2251  0.2197
 3190POPC   C3B38543   7.148  23.100  17.159 -0.0092  0.2918  0.2758
 3190POPC   C4B38544   6.902  23.100  17.551  0.0787  0.0909  0.1275
 3191POPC   NC338545  23.851  13.891  15.200  0.0806 -0.0378 -0.1705
 3191POPC   PO438546  23.617  14.207  15.284 -0.0562 -0.1351  0.0643
 3191POPC   GL138547  23.579  14.437  15.633  0.1172 -0.0385 -0.0384
 3191POPC   GL238548  23.442  14.132  15.789  0.0912 -0.3376  0.1800
 3191POPC   C1A38549  23.540  14.804  15.826  0.0027 -0.1917 -0.0427
 3191POPC   D2A38550  23.676  14.887  16.271 -0.0024 -0.0238  0.0412
 3191POPC   C3A38551  23.388  15.156  16.507 -0.3407 -0.1452  0.1346
 3191POPC   C4A38552  22.928  15.076  16.652  0.1745 -0.1153 -0.1625
 3191POPC   C1B38553  23.553  14.376  16.133  0.1102  0.0981  0.0990
 3191POPC   C2B38554  23.526  14.567  16.610 -0.1816  0.1296 -0.0243
 3191POPC   C3B38555  23.359  14.899  16.885 -0.1079 -0.1237  0.1890
 3191POPC   C4B38556  23.169  14.910  17.275  0.2424  0.0889 -0.0313
 3192POPC   NC338557  27.663   2.642  15.398 -0.0118  0.0359  0.0456
 3192POPC   PO438558  27.984   2.880  15.396 -0.0514  0.1253 -0.0691
 3192POPC   GL138559  27.919   2.709  15.793 -0.3771  0.1422 -0.0745
 3192POPC   GL238560  27.813   2.413  15.851  0.1400  0.3323 -0.1028
 3192POPC   C1A38561  27.872   3.021  16.119  0.1337  0.1002  0.0143
 3192POPC   D2A38562  27.705   3.105  16.564  0.0617 -0.0884 -0.2558
 3192POPC   C3A38563  27.903   3.500  16.724 -0.0746 -0.2483  0.0996
 3192POPC   C4A38564  27.809   3.861  16.888 -0.0726  0.0725  0.3253
 3192POPC   C1B38565  27.962   2.486  16.320  0.6101 -0.3038  0.1377
 3192POPC   C2B38566  27.851   2.301  16.700  0.1337  0.0744  0.2704
 3192POPC   C3B38567  27.774   1.962  16.959 -0.0107  0.1419 -0.1552
 3192POPC   C4B38568  27.409   1.822  17.166  0.1203  0.0497  0.0185
 3193POPC   NC338569  19.852  23.760  15.094 -0.0685 -0.0511  0.1098
 3193POPC   PO438570  19.799  23.470  15.318  0.2474  0.1965  0.2577
 3193POPC   GL138571  19.634  23.685  15.544  0.3077  0.4686  0.0146
 3193POPC   GL238572  19.682  23.565  15.803 -0.0260  0.1814  0.0650
 3193POPC   C1A38573  19.812  23.986  15.812  0.1913 -0.1746  0.0471
 3193POPC   D2A38574  19.921  24.203  16.229  0.1210 -0.0668  0.1325
 3193POPC   C3A38575  19.976  24.138  16.686 -0.0899  0.0655 -0.0414
 3193POPC   C4A38576  19.914  23.787  16.952 -0.0169  0.0821 -0.0616
 3193POPC   C1B38577  19.622  23.261  16.179 -0.3151 -0.0502  0.2150
 3193POPC   C2B38578  19.700  23.003  16.584  0.0343 -0.0722 -0.1262
 3193POPC   C3B38579  19.755  22.574  16.731 -0.1285 -0.0643 -0.1665
 3193POPC   C4B38580  20.190  22.450  16.787  0.0304  0.0174  0.2593
 3194POPC   NC338581  30.511  18.098  15.733  0.1633  0.2361  0.3203
 3194POPC   PO438582  30.484  18.378  15.424  0.0323 -0.0705 -0.0280
 3194POPC   GL138583  30.134  18.358  15.525  0.3481  0.0838 -0.2130
 3194POPC   GL238584  29.974  18.512  15.287 -0.1376  0.1620  0.0798
 3194POPC   C1A38585  29.794  18.345  15.888 -0.0305 -0.0075 -0.2208
 3194POPC   D2A38586  29.523  18.480  16.270 -0.1719  0.0347 -0.0494
 3194POPC   C3A38587  29.816  18.491  16.724  0.0622 -0.2670  0.0525
 3194POPC   C4A38588  29.918  18.487  17.232 -0.3186  0.3601 -0.2206
 3194POPC   C1B38589  29.767  18.769  15.622 -0.1975  0.1087  0.0027
 3194POPC   C2B38590  29.847  18.942  16.086 -0.2257 -0.1366 -0.3035
 3194POPC   C3B38591  29.639  18.910  16.491 -0.0390  0.4607 -0.0906
 3194POPC   C4B38592  29.190  18.872  16.713  0.0428 -0.4157 -0.0741
 3195POPC   NC338593  19.302  16.845  15.138 -0.2663 -0.1618  0.2210
 3195POPC   PO438594  19.023  16.536  15.093  0.2842  0.0473  0.0202
 3195POPC   GL138595  19.195  16.381  15.455  0.0180 -0.0184 -0.1712
 3195POPC   GL238596  19.175  16.616  15.614 -0.1986 -0.2069  0.0103
 3195POPC   C1A38597  19.071  16.197  15.882  0.0840 -0.0567  0.0396
 3195POPC   D2A38598  19.293  15.985  16.202  0.0740  0.1760  0.2211
 3195POPC   C3A38599  19.047  16.088  16.589 -0.0858  0.3704 -0.0161
 3195POPC   C4A38600  18.742  15.839  16.827  0.0925  0.4054  0.1195
 3195POPC   C1B38601  19.268  16.640  16.088 -0.0372  0.1156 -0.1435
 3195POPC   C2B38602  19.439  16.487  16.472  0.5172  0.0105  0.1020
 3195POPC   C3B38603  19.604  16.130  16.618 -0.0602  0.2507  0.0669
 3195POPC   C4B38604  19.518  15.709  16.784 -0.3473 -0.1872  0.0698
 3196POPC   NC338605  18.523  12.494  15.695  0.0549  0.0555  0.4168
 3196POPC   PO438606  18.428  12.102  15.752 -0.2626 -0.1683  0.4049
 3196POPC   GL138607  18.736  12.209  16.020  0.2248  0.1253 -0.0028
 3196POPC   GL238608  18.907  12.108  15.809 -0.4647 -0.0776  0.2014
 3196POPC   C1A38609  18.690  12.249  16.495 -0.0594  0.0760  0.1807
 3196POPC   D2A38610  18.424  11.979  16.760  0.0475 -0.0177 -0.0822
 3196POPC   C3A38611  18.223  11.886  17.171 -0.3222 -0.3700 -0.2936
 3196POPC   C4A38612  18.013  11.969  17.592  0.2619 -0.1998  0.3882
 3196POPC   C1B38613  19.021  11.964  16.227  0.1081  0.1294  0.1048
 3196POPC   C2B38614  19.293  11.675  16.417  0.5574 -0.4126 -0.1208
 3196POPC   C3B38615  19.590  11.536  16.754 -0.2556 -0.3681  0.0203
 3196POPC   C4B38616  19.794  11.634  17.140 -0.0672 -0.0623  0.2818
 3197POPC   NC338617   4.027   4.588  15.527 -0.0733  0.0900 -0.3104
 3197POPC   PO438618   4.350   4.574  15.318  0.1860  0.1547  0.1689
 3197POPC   GL138619   4.446   4.626  15.705 -0.3478  0.1715 -0.2235
 3197POPC   GL238620   4.412   4.943  15.741  0.2449 -0.0719  0.2025
 3197POPC   C1A38621   4.082   4.589  16.032  0.0458  0.1658 -0.2869
 3197POPC   D2A38622   3.803   4.544  16.421 -0.3151  0.0917  0.1185
 3197POPC   C3A38623   3.944   4.306  16.834 -0.0172 -0.0958 -0.0385
 3197POPC   C4A38624   4.343   4.068  16.975 -0.0181  0.1785  0.0459
 3197POPC   C1B38625   4.459   4.925  16.136 -0.2958  0.1473 -0.0772
 3197POPC   C2B38626   4.226   4.918  16.474 -0.1068 -0.0641 -0.0527
 3197POPC   C3B38627   4.281   5.128  16.849  0.0195  0.0480  0.0131
 3197POPC   C4B38628   4.313   5.210  17.302  0.3120 -0.0237  0.0453
 3198POPC   NC338629  31.637  18.506  15.285 -0.1783 -0.0634  0.0178
 3198POPC   PO438630  31.784  18.182  15.442 -0.0783  0.0505  0.0310
 3198POPC   GL138631  31.883  17.861  15.718  0.1632 -0.0097  0.1718
 3198POPC   GL238632  32.098  18.048  15.849 -0.0872  0.1315 -0.2301
 3198POPC   C1A38633  31.721  17.880  16.149 -0.0125  0.0550  0.0115
 3198POPC   D2A38634  31.507  17.812  16.566  0.3546 -0.1682  0.3093
 3198POPC   C3A38635  31.457  17.934  17.038 -0.1897 -0.0747  0.0425
 3198POPC   C4A38636  31.256  17.792  17.403  0.3214  0.0507  0.1480
 3198POPC   C1B38637  32.202  18.105  16.347  0.1099  0.4591  0.0971
 3198POPC   C2B38638  32.141  17.783  16.629  0.2492  0.1369 -0.0402
 3198POPC   C3B38639  31.963  17.404  16.832  0.4809  0.1631  0.3210
 3198POPC   C4B38640  32.054  17.032  17.117 -0.1769  0.4504  0.1334
 3199POPC   NC338641   4.476   0.849  15.117 -0.1690  0.0409  0.1713
 3199POPC   PO438642   4.758   1.123  15.238 -0.2255 -0.2224  0.1585
 3199POPC   GL138643   5.034   1.277  15.619 -0.3419 -0.0714 -0.2532
 3199POPC   GL238644   4.817   1.308  15.773 -0.2548 -0.1518 -0.1438
 3199POPC   C1A38645   5.213   1.133  16.018 -0.0247 -0.0924  0.1942
 3199POPC   D2A38646   5.163   0.792  16.342 -0.1267 -0.2291 -0.0118
 3199POPC   C3A38647   5.323   0.409  16.520 -0.1173  0.2418 -0.3999
 3199POPC   C4A38648   5.424   0.026  16.783 -0.1811 -0.3094  0.4037
 3199POPC   C1B38649   4.766   1.141  16.239  0.0438  0.4195 -0.0304
 3199POPC   C2B38650   4.718   1.340  16.627  0.3597 -0.3056  0.0302
 3199POPC   C3B38651   4.503   1.480  16.960 -0.2793 -0.1378 -0.2468
 3199POPC   C4B38652   4.233   1.813  17.128 -0.1128  0.3074  0.0333
 3200POPC   NC338653  25.915  21.444  15.289 -0.1555  0.0821 -0.1021
 3200POPC   PO438654  26.203  21.163  15.300 -0.4414 -0.2120 -0.0805
 3200POPC   GL138655  26.184  21.096  15.684 -0.2644 -0.0357  0.1410
 3200POPC   GL238656  26.028  21.241  15.781  0.3500 -0.2412  0.4375
 3200POPC   C1A38657  26.430  21.081  16.080  0.2887 -0.0020  0.1344
 3200POPC   D2A38658  26.752  20.763  16.234 -0.1028  0.0728 -0.0159
 3200POPC   C3A38659  26.640  20.550  16.664 -0.4862 -0.3205 -0.1917
 3200POPC   C4A38660  26.420  20.443  17.081 -0.1838  0.0986 -0.1469
 3200POPC   C1B38661  26.067  21.414  16.284 -0.1987 -0.1484 -0.0575
 3200POPC   C2B38662  26.099  21.516  16.802 -0.3752 -0.0121 -0.0384
 3200POPC   C3B38663  26.001  21.882  17.076 -0.0550 -0.0755 -0.1357
 3200POPC   C4B38664  26.320  22.237  17.086 -0.2073 -0.0091  0.1498
 3201POPC   NC338665  11.896   9.756  15.254  0.0643 -0.3593 -0.0726
 3201POPC   PO438666  11.870   9.340  15.267 -0.2114  0.3333  0.1823
 3201POPC   GL138667  12.208   9.420  15.481 -0.0950  0.0010 -0.1180
 3201POPC   GL238668  12.241   9.664  15.585 -0.1606  0.2021 -0.0316
 3201POPC   C1A38669  12.133   9.262  15.903 -0.1338 -0.2380  0.0542
 3201POPC   D2A38670  12.193   9.276  16.346 -0.0492 -0.5975  0.4006
 3201POPC   C3A38671  12.187   9.628  16.616 -0.1447 -0.2831 -0.0898
 3201POPC   C4A38672  12.024   9.702  17.039  0.2550 -0.0795 -0.4983
 3201POPC   C1B38673  12.301   9.736  16.026 -0.2487 -0.2190 -0.1291
 3201POPC   C2B38674  12.544  10.010  16.357  0.1853  0.0496  0.0375
 3201POPC   C3B38675  12.727  10.209  16.771 -0.1067 -0.0361  0.1899
 3201POPC   C4B38676  12.550  10.583  17.016 -0.1826 -0.0666 -0.0529
 3202POPC   NC338677  19.040   6.917  15.132  0.0817 -0.1273 -0.0027
 3202POPC   PO438678  19.163   7.252  14.948 -0.0130  0.2362  0.3651
 3202POPC   GL138679  19.224   7.290  15.352  0.0544 -0.2250  0.3093
 3202POPC   GL238680  19.488   7.405  15.421  0.3042 -0.2940  0.0519
 3202POPC   C1A38681  19.245   6.980  15.650  0.2545  0.1348  0.0204
 3202POPC   D2A38682  19.334   6.798  16.058 -0.0071  0.0180 -0.0158
 3202POPC   C3A38683  19.357   6.804  16.554 -0.2546  0.3814 -0.1857
 3202POPC   C4A38684  19.349   6.742  17.048  0.3763 -0.0085  0.2023
 3202POPC   C1B38685  19.715   7.191  15.789 -0.4014 -0.1734 -0.2849
 3202POPC   C2B38686  19.841   6.973  16.177 -0.0413 -0.0623  0.2356
 3202POPC   C3B38687  19.861   6.768  16.588  0.0992 -0.1107 -0.0007
 3202POPC   C4B38688  20.204   6.806  16.921  0.2695  0.0286 -0.0598
 3203POPC   NC338689   0.043  22.761  15.020  0.0475  0.1727 -0.1892
 3203POPC   PO438690  -0.277  22.608  15.199 -0.2996 -0.1072 -0.0015
 3203POPC   GL138691  -0.208  22.550  15.548 -0.2251  0.1192  0.1610
 3203POPC   GL238692  -0.292  22.709  15.763  0.0126  0.2111  0.1064
 3203POPC   C1A38693  -0.075  22.246  15.869 -0.0420 -0.1071  0.2335
 3203POPC   D2A38694  -0.049  22.085  16.270  0.0471 -0.0226 -0.0998
 3203POPC   C3A38695   0.134  22.013  16.649  0.0266 -0.0797 -0.2618
 3203POPC   C4A38696   0.438  22.207  16.968 -0.0871 -0.0272 -0.0848
 3203POPC   C1B38697  -0.217  22.610  16.185 -0.2803 -0.5126  0.0431
 3203POPC   C2B38698  -0.184  22.651  16.675  0.1259  0.0515  0.1591
 3203POPC   C3B38699  -0.199  22.423  17.024  0.3266  0.2196 -0.0781
 3203POPC   C4B38700  -0.123  21.916  17.054  0.0879  0.1301 -0.1187
 3204POPC   NC338701  12.178  19.600  14.674 -0.0680  0.1251 -0.0948
 3204POPC   PO438702  12.041  19.601  15.071 -0.2356 -0.1399 -0.0644
 3204POPC   GL138703  12.262  19.879  15.348  0.0464 -0.2225 -0.1389
 3204POPC   GL238704  12.561  19.979  15.233  0.1199 -0.0600 -0.2809
 3204POPC   C1A38705  12.059  20.003  15.750  0.1244  0.3228  0.1607
 3204POPC   D2A38706  11.904  19.741  16.153 -0.2073  0.0563 -0.0074
 3204POPC   C3A38707  11.442  19.745  16.293  0.0012  0.1943  0.0894
 3204POPC   C4A38708  11.004  19.747  16.392  0.2642  0.1862  0.1258
 3204POPC   C1B38709  12.592  19.636  15.549  0.1454  0.1338 -0.1400
 3204POPC   C2B38710  12.596  19.269  15.896 -0.0900  0.2049  0.1152
 3204POPC   C3B38711  12.614  19.254  16.411  0.0230  0.1686  0.1548
 3204POPC   C4B38712  12.681  19.385  16.788  0.1210  0.0767  0.1525
 3205POPC   NC338713  29.668   2.974  15.299  0.0356  0.0460 -0.2995
 3205POPC   PO438714  29.621   2.692  15.597 -0.0199  0.0038  0.1757
 3205POPC   GL138715  29.835   2.598  15.959  0.0831  0.1533 -0.2465
 3205POPC   GL238716  29.909   2.348  15.883 -0.0341  0.1526  0.0405
 3205POPC   C1A38717  30.127   2.817  16.232  0.0230 -0.1689  0.2141
 3205POPC   D2A38718  30.381   3.156  16.393  0.1464  0.1637 -0.0331
 3205POPC   C3A38719  30.271   3.464  16.673 -0.1191  0.1800  0.3799
 3205POPC   C4A38720  30.033   3.722  16.975  0.0799  0.2726 -0.0982
 3205POPC   C1B38721  29.811   2.384  16.359 -0.1553  0.1701 -0.1244
 3205POPC   C2B38722  29.682   2.205  16.806 -0.0769 -0.0024  0.1095
 3205POPC   C3B38723  29.870   2.362  17.217 -0.1214  0.1609 -0.0463
 3205POPC   C4B38724  30.286   2.563  17.267  0.0927  0.0617 -0.0026
 3206POPC   NC338725  31.356   6.971  15.320 -0.1626 -0.2179  0.2159
 3206POPC   PO438726  31.321   6.563  15.330  0.0515 -0.0859 -0.2594
 3206POPC   GL138727  31.076   6.771  15.616  0.2241  0.0187 -0.0989
 3206POPC   GL238728  31.032   6.619  15.754  0.0917 -0.0721  0.0138
 3206POPC   C1A38729  31.340   7.071  15.912 -0.1350  0.1631  0.0942
 3206POPC   D2A38730  31.686   7.362  15.942 -0.2359 -0.1647 -0.0500
 3206POPC   C3A38731  31.656   7.714  16.189 -0.2074 -0.0493  0.0515
 3206POPC   C4A38732  31.818   8.152  16.176  0.1010 -0.3362  0.3479
 3206POPC   C1B38733  30.612   6.766  15.971 -0.1357  0.0948 -0.2061
 3206POPC   C2B38734  30.154   6.829  16.070  0.1463 -0.6618  0.0869
 3206POPC   C3B38735  29.935   7.038  16.394  0.1198 -0.0184  0.0893
 3206POPC   C4B38736  29.866   7.113  16.853 -0.2737 -0.4019  0.0968
 3207POPC   NC338737  10.495  14.618  14.714 -0.0568  0.0008 -0.1691
 3207POPC   PO438738  10.836  14.784  14.928  0.2576 -0.0465  0.2518
 3207POPC   GL138739  10.990  14.700  15.275  0.0288  0.2878  0.2005
 3207POPC   GL238740  11.085  14.930  15.484 -0.1194  0.1299  0.1137
 3207POPC   C1A38741  11.350  14.475  15.327 -0.0356  0.0377 -0.1750
 3207POPC   D2A38742  11.704  14.347  15.605  0.3965 -0.0979  0.2350
 3207POPC   C3A38743  11.684  14.562  15.995  0.0875  0.2245  0.1983
 3207POPC   C4A38744  11.728  14.627  16.460  0.1122  0.0659  0.3144
 3207POPC   C1B38745  10.998  14.701  15.900  0.3557  0.2077  0.4153
 3207POPC   C2B38746  10.835  14.725  16.356 -0.0882 -0.1102 -0.0694
 3207POPC   C3B38747  11.096  14.588  16.706  0.1755 -0.0137 -0.1737
 3207POPC   C4B38748  11.394  14.422  17.012  0.1443  0.0381 -0.0996
 3208POPC   NC338749  12.382  29.558  15.367 -0.1381 -0.0062 -0.1521
 3208POPC   PO438750  12.651  29.792  15.184  0.0425 -0.0854 -0.1462
 3208POPC   GL138751  12.708  29.825  15.583 -0.2622 -0.3567  0.3706
 3208POPC   GL238752  12.455  29.938  15.657  0.0577 -0.1159  0.4494
 3208POPC   C1A38753  12.646  29.768  16.035  0.1460  0.1712  0.0524
 3208POPC   D2A38754  12.670  29.829  16.514 -0.0584 -0.2931  0.0203
 3208POPC   C3A38755  12.621  30.194  16.762 -0.3638 -0.0741 -0.0074
 3208POPC   C4A38756  12.561  30.390  17.168  0.3703  0.0437 -0.2592
 3208POPC   C1B38757  12.708  30.199  15.862 -0.0850 -0.2053  0.0667
 3208POPC   C2B38758  12.751  30.295  16.286  0.2883  0.3107 -0.0448
 3208POPC   C3B38759  13.060  30.380  16.661 -0.3188 -0.1847 -0.3968
 3208POPC   C4B38760  13.348  30.665  16.789  0.2133  0.3709  0.0043
 3209POPC   NC338761  26.884  19.218  14.402  0.0224  0.4122  0.0109
 3209POPC   PO438762  26.930  19.341  14.771  0.0922  0.0090  0.0211
 3209POPC   GL138763  26.666  19.463  15.054 -0.0884 -0.2192 -0.1965
 3209POPC   GL238764  26.926  19.479  15.255 -0.2841 -0.0198  0.0066
 3209POPC   C1A38765  26.592  19.290  15.510  0.1107  0.0097  0.1372
 3209POPC   D2A38766  26.478  19.332  15.973  0.0928  0.1287  0.2268
 3209POPC   C3A38767  26.616  19.216  16.412  0.1182  0.3897  0.3280
 3209POPC   C4A38768  26.633  18.978  16.823  0.1217 -0.0701 -0.0951
 3209POPC   C1B38769  26.948  19.652  15.679  0.0247  0.2645 -0.3824
 3209POPC   C2B38770  26.882  19.587  16.193 -0.1934 -0.1478  0.4482
 3209POPC   C3B38771  27.045  19.585  16.636  0.1456 -0.3048  0.2375
 3209POPC   C4B38772  27.112  19.221  16.943  0.0588  0.1851 -0.2125
 3210POPC   NC338773  11.372  10.988  15.106 -0.1428 -0.0089  0.1397
 3210POPC   PO438774  11.251  11.132  15.466  0.2715  0.0434 -0.0289
 3210POPC   GL138775  11.417  11.079  15.840  0.1315  0.0225 -0.1456
 3210POPC   GL238776  11.434  10.790  15.819  0.3087 -0.1655  0.2416
 3210POPC   C1A38777  11.639  11.139  16.234 -0.0467 -0.0175 -0.0816
 3210POPC   D2A38778  11.597  11.563  16.434 -0.0609 -0.1168  0.1317
 3210POPC   C3A38779  11.465  11.572  16.903 -0.3784 -0.3664  0.0107
 3210POPC   C4A38780  11.141  11.677  17.214 -0.2386 -0.0237  0.0713
 3210POPC   C1B38781  11.308  10.720  16.274 -0.0652 -0.1436  0.2583
 3210POPC   C2B38782  11.119  10.692  16.718 -0.1359  0.0378  0.0357
 3210POPC   C3B38783  10.973  10.482  17.033  0.2330  0.1264  0.0888
 3210POPC   C4B38784  10.791  10.467  17.463  0.0800  0.0292 -0.1242
 3211POPC   NC338785  25.729  12.327  14.483  0.0209  0.2804 -0.0377
 3211POPC   PO438786  25.867  12.223  14.847  0.0697  0.1879 -0.2576
 3211POPC   GL138787  26.050  12.349  15.206  0.1529  0.2299 -0.1136
 3211POPC   GL238788  25.789  12.579  15.353 -0.0865  0.3336 -0.0875
 3211POPC   C1A38789  26.184  12.423  15.659  0.2886 -0.0910  0.0368
 3211POPC   D2A38790  25.984  12.428  16.062 -0.0272  0.2015  0.1771
 3211POPC   C3A38791  25.598  12.155  16.236 -0.0121 -0.0274 -0.2253
 3211POPC   C4A38792  25.495  11.797  16.400 -0.0487 -0.1333  0.0473
 3211POPC   C1B38793  25.843  12.861  15.729 -0.0904  0.1196  0.0449
 3211POPC   C2B38794  25.875  12.891  16.216 -0.1418 -0.2889  0.1893
 3211POPC   C3B38795  26.003  12.934  16.647 -0.1324 -0.1882  0.1360
 3211POPC   C4B38796  26.028  12.769  17.077 -0.0993 -0.1889  0.2298
 3212POPC   NC338797  24.960  22.056  14.736 -0.1682 -0.0182  0.0163
 3212POPC   PO438798  25.138  22.155  15.089 -0.0570  0.2988 -0.1862
 3212POPC   GL138799  24.944  22.072  15.414 -0.0681  0.0879  0.2395
 3212POPC   GL238800  25.068  21.887  15.630 -0.0673  0.0410 -0.1308
 3212POPC   C1A38801  24.641  22.198  15.702 -0.1423 -0.0346  0.0736
 3212POPC   D2A38802  24.350  22.319  15.997 -0.0617  0.2523  0.1376
 3212POPC   C3A38803  24.347  22.251  16.454 -0.0376 -0.0050  0.2578
 3212POPC   C4A38804  24.424  22.151  16.878 -0.2851 -0.1632 -0.1128
 3212POPC   C1B38805  24.840  21.881  16.028  0.1772 -0.2180 -0.0322
 3212POPC   C2B38806  24.827  21.979  16.472 -0.2681  0.2606 -0.4045
 3212POPC   C3B38807  24.602  21.729  16.781  0.1107  0.0236  0.1935
 3212POPC   C4B38808  24.374  21.598  17.132  0.1826 -0.0133 -0.0120
 3213POPC   NC338809  26.194  15.723  15.534  0.0241  0.0130  0.1303
 3213POPC   PO438810  26.119  16.062  15.336  0.0030 -0.0566  0.1363
 3213POPC   GL138811  26.212  16.133  15.749 -0.0186  0.1981  0.0989
 3213POPC   GL238812  26.140  16.437  15.745 -0.1681  0.0125 -0.1053
 3213POPC   C1A38813  26.435  16.252  16.172  0.0903  0.2249  0.2041
 3213POPC   D2A38814  26.471  16.417  16.529  0.1670  0.0466 -0.1778
 3213POPC   C3A38815  26.226  16.252  16.911  0.1909 -0.2623  0.0495
 3213POPC   C4A38816  26.269  16.078  17.269 -0.3608  0.1027 -0.0024
 3213POPC   C1B38817  26.160  16.668  16.186  0.1200  0.1383  0.0463
 3213POPC   C2B38818  26.415  16.893  16.417  0.1257 -0.0940 -0.0911
 3213POPC   C3B38819  26.557  17.251  16.618  0.1080 -0.3478  0.0356
 3213POPC   C4B38820  26.721  17.520  16.997 -0.0961 -0.0109 -0.1422
 3214POPC   NC338821  30.061   3.931  15.281  0.2045 -0.1477 -0.2085
 3214POPC   PO438822  30.243   4.025  15.586  0.2418  0.1709  0.1596
 3214POPC   GL138823  30.067   4.190  15.965  0.2572  0.1856  0.3707
 3214POPC   GL238824  30.299   4.310  15.999 -0.0354 -0.0180 -0.1747
 3214POPC   C1A38825  29.791   4.537  16.037  0.3848 -0.2887  0.1225
 3214POPC   D2A38826  29.437   4.800  16.206  0.1208  0.2193 -0.0816
 3214POPC   C3A38827  29.244   4.787  16.633 -0.0052  0.0190 -0.1757
 3214POPC   C4A38828  29.195   4.814  17.062 -0.0702 -0.0206  0.0013
 3214POPC   C1B38829  30.317   4.486  16.434 -0.2392 -0.3105 -0.0615
 3214POPC   C2B38830  29.886   4.614  16.604  0.0653  0.3851 -0.0868
 3214POPC   C3B38831  29.738   4.822  16.996 -0.1104  0.3083 -0.1645
 3214POPC   C4B38832  29.897   5.100  17.357 -0.0159  0.2805 -0.1583
 3215POPC   NC338833   3.184  10.762  15.039  0.4560  0.0217  0.0307
 3215POPC   PO438834   3.048  11.150  15.053  0.0751 -0.0913  0.1792
 3215POPC   GL138835   3.041  11.240  15.457  0.2606 -0.0308 -0.0674
 3215POPC   GL238836   3.010  10.979  15.618  0.0485 -0.0563 -0.1336
 3215POPC   C1A38837   3.246  11.369  15.839 -0.1129 -0.1434 -0.2804
 3215POPC   D2A38838   3.181  11.563  16.251 -0.2097 -0.2701 -0.2424
 3215POPC   C3A38839   3.182  11.510  16.694 -0.2596  0.0648 -0.2414
 3215POPC   C4A38840   3.080  11.594  17.114 -0.1195 -0.4266  0.1015
 3215POPC   C1B38841   3.113  10.959  16.077  0.1736  0.2552 -0.5014
 3215POPC   C2B38842   3.143  11.022  16.515  0.2594 -0.0906  0.0957
 3215POPC   C3B38843   2.793  11.072  16.829 -0.0650 -0.4039 -0.3636
 3215POPC   C4B38844   2.462  10.885  17.112 -0.1912  0.2107  0.0375
 3216POPC   NC338845  26.016  30.146  14.464  0.1007 -0.2621 -0.2205
 3216POPC   PO438846  26.241  29.937  14.739  0.3812 -0.2721 -0.2946
 3216POPC   GL138847  26.342  29.799  15.079 -0.0928  0.1962 -0.0888
 3216POPC   GL238848  26.153  29.733  15.303  0.1161  0.0206  0.0267
 3216POPC   C1A38849  26.606  29.928  15.413  0.2225  0.0809 -0.0781
 3216POPC   D2A38850  26.717  30.108  15.772  0.2100  0.0931 -0.0320
 3216POPC   C3A38851  27.135  30.188  15.939 -0.2399 -0.0776  0.0280
 3216POPC   C4A38852  27.546  30.435  16.028 -0.1664  0.0009 -0.0070
 3216POPC   C1B38853  26.242  29.886  15.736  0.2459 -0.0057 -0.0037
 3216POPC   C2B38854  26.356  30.114  16.106  0.3248  0.0544 -0.0258
 3216POPC   C3B38855  26.768  30.213  16.310  0.1025 -0.1795  0.2603
 3216POPC   C4B38856  26.805  30.293  16.761  0.1078 -0.3850 -0.2117
 3217POPC   NC338857  25.705   2.326  14.945  0.1162  0.3927 -0.3077
 3217POPC   PO438858  25.355   2.412  15.072  0.3595  0.1796  0.3486
 3217POPC   GL138859  25.333   2.722  15.397 -0.1670  0.0937 -0.1640
 3217POPC   GL238860  25.119   2.631  15.568 -0.4564  0.1031 -0.1053
 3217POPC   C1A38861  25.616   2.868  15.745 -0.1852 -0.0354  0.2740
 3217POPC   D2A38862  25.883   3.162  16.013  0.2243 -0.3720  0.2728
 3217POPC   C3A38863  26.009   3.339  16.487 -0.3143  0.2517  0.2189
 3217POPC   C4A38864  26.114   3.631  16.830  0.0712  0.1917  0.0215
 3217POPC   C1B38865  25.027   2.651  16.045  0.1404  0.3447  0.3821
 3217POPC   C2B38866  24.894   2.486  16.436  0.3347 -0.0744 -0.4763
 3217POPC   C3B38867  24.878   2.653  16.862  0.2171 -0.2790  0.0876
 3217POPC   C4B38868  24.997   2.712  17.289  0.0938  0.0548  0.2384
 3218POPC   NC338869  12.427   5.196  14.661  0.4259 -0.2640 -0.3061
 3218POPC   PO438870  12.376   5.052  15.030  0.1484 -0.0153  0.1437
 3218POPC   GL138871  12.415   5.182  15.436  0.2567  0.1757 -0.0230
 3218POPC   GL238872  12.260   4.968  15.522  0.1317 -0.0346  0.0969
 3218POPC   C1A38873  12.854   5.184  15.682  0.2880 -0.1840  0.1474
 3218POPC   D2A38874  12.886   5.344  16.158  0.1142  0.0855 -0.0544
 3218POPC   C3A38875  13.261   5.641  16.184 -0.0925  0.2419  0.0564
 3218POPC   C4A38876  13.262   6.098  16.040 -0.0871 -0.0841 -0.1477
 3218POPC   C1B38877  12.278   5.155  15.953  0.0427  0.1874 -0.1934
 3218POPC   C2B38878  12.470   5.244  16.363  0.0219  0.2910  0.0302
 3218POPC   C3B38879  12.619   5.579  16.639 -0.1822 -0.0362  0.0426
 3218POPC   C4B38880  12.743   5.956  16.896 -0.0210 -0.2539  0.0020
 3219POPC   NC338881  13.628  16.713  14.215 -0.2445  0.3494  0.0737
 3219POPC   PO438882  13.710  16.441  14.439  0.0137  0.2262 -0.1594
 3219POPC   GL138883  13.510  16.662  14.726 -0.1083 -0.1813 -0.4810
 3219POPC   GL238884  13.491  16.920  14.702 -0.2677  0.3177 -0.2969
 3219POPC   C1A38885  13.318  16.408  15.021  0.0844 -0.1564  0.1748
 3219POPC   D2A38886  13.390  16.118  15.301  0.2572  0.1024 -0.0448
 3219POPC   C3A38887  13.057  15.902  15.560  0.2417 -0.4910 -0.1008
 3219POPC   C4A38888  12.860  16.152  15.920  0.0491  0.2427 -0.2504
 3219POPC   C1B38889  13.333  16.945  15.144  0.0837 -0.1184 -0.0375
 3219POPC   C2B38890  13.126  16.614  15.383  0.0082 -0.1070 -0.2113
 3219POPC   C3B38891  12.851  16.279  15.202  0.1214  0.0300 -0.0853
 3219POPC   C4B38892  13.077  15.908  15.038  0.0594  0.0565  0.0425
 3220POPC   NC338893   1.512  17.228  14.927  0.2212 -0.0455 -0.1572
 3220POPC   PO438894   1.423  17.540  15.108 -0.2992 -0.2901  0.0433
 3220POPC   GL138895   1.636  17.502  15.435  0.2590  0.3240  0.0031
 3220POPC   GL238896   1.760  17.742  15.412  0.4589 -0.2195  0.0869
 3220POPC   C1A38897   1.708  17.513  15.892  0.0357  0.1323 -0.1501
 3220POPC   D2A38898   1.920  17.375  16.256  0.0320  0.1726  0.1788
 3220POPC   C3A38899   2.146  17.194  16.579  0.2459 -0.1232  0.1557
 3220POPC   C4A38900   2.135  17.108  17.069  0.3368 -0.0850  0.1832
 3220POPC   C1B38901   2.117  17.745  15.611 -0.1676  0.1014  0.0542
 3220POPC   C2B38902   2.341  17.759  16.002 -0.3632 -0.1255 -0.1795
 3220POPC   C3B38903   2.693  17.653  16.321 -0.0114 -0.0471 -0.0035
 3220POPC   C4B38904   2.874  17.612  16.697  0.0831  0.0429 -0.0115
 3221POPC   NC338905  26.333  28.121  14.859 -0.2413 -0.1344  0.2408
 3221POPC   PO438906  26.566  28.120  15.147 -0.1965  0.1660 -0.1463
 3221POPC   GL138907  26.397  28.209  15.480  0.4771  0.0293  0.1095
 3221POPC   GL238908  26.347  28.568  15.470  0.3176  0.1825 -0.1374
 3221POPC   C1A38909  26.559  28.102  15.906  0.0299  0.0940  0.2996
 3221POPC   D2A38910  26.896  28.069  16.244  0.5021  0.3717  0.3191
 3221POPC   C3A38911  26.741  27.985  16.700  0.0320 -0.0247  0.1719
 3221POPC   C4A38912  26.855  28.118  17.090  0.4107 -0.2737 -0.1505
 3221POPC   C1B38913  26.712  28.494  15.672  0.1230 -0.1372 -0.3950
 3221POPC   C2B38914  26.764  28.559  16.157  0.1241  0.2687 -0.1748
 3221POPC   C3B38915  26.864  28.544  16.629 -0.0630  0.1242 -0.1522
 3221POPC   C4B38916  26.897  28.674  17.063  0.0400 -0.1829 -0.5395
 3222POPC   NC338917  23.707  26.228  15.284 -0.1030  0.0755 -0.0654
 3222POPC   PO438918  23.845  25.933  15.056  0.1051 -0.0852 -0.1517
 3222POPC   GL138919  23.879  25.702  15.360  0.0856 -0.0994 -0.3160
 3222POPC   GL238920  23.607  25.541  15.459  0.2965  0.0050  0.0720
 3222POPC   C1A38921  23.937  25.699  15.810 -0.1256 -0.1042 -0.0582
 3222POPC   D2A38922  23.968  25.679  16.331 -0.0052 -0.0464 -0.1692
 3222POPC   C3A38923  23.739  25.262  16.518 -0.0624 -0.3216  0.0077
 3222POPC   C4A38924  23.911  24.884  16.735 -0.0282 -0.0046  0.0179
 3222POPC   C1B38925  23.319  25.161  15.557  0.2715 -0.0273  0.0200
 3222POPC   C2B38926  23.272  24.893  15.912 -0.3695 -0.2341  0.1574
 3222POPC   C3B38927  23.502  24.799  16.307 -0.1047  0.1169 -0.4669
 3222POPC   C4B38928  23.445  24.836  16.766  0.0728  0.1730 -0.1069
 3223POPC   NC338929   6.930  23.173  15.062  0.1274 -0.2005  0.2813
 3223POPC   PO438930   6.573  23.322  15.181 -0.2257 -0.1420 -0.0027
 3223POPC   GL138931   6.588  23.201  15.551 -0.3155  0.2517 -0.3119
 3223POPC   GL238932   6.516  23.462  15.655  0.0257  0.1124 -0.0311
 3223POPC   C1A38933   6.586  22.986  15.983 -0.1407 -0.0537  0.0873
 3223POPC   D2A38934   6.692  22.880  16.404  0.0338  0.0518  0.2500
 3223POPC   C3A38935   6.534  23.140  16.748 -0.2018  0.1945  0.0541
 3223POPC   C4A38936   6.515  23.165  17.220  0.2008  0.1520  0.1678
 3223POPC   C1B38937   6.399  23.577  16.051  0.1211  0.0944 -0.2427
 3223POPC   C2B38938   6.558  23.583  16.487 -0.0853  0.0565  0.0092
 3223POPC   C3B38939   6.461  23.612  16.909  0.3309 -0.0124 -0.2746
 3223POPC   C4B38940   6.333  23.788  17.306 -0.3602  0.2594  0.3224
 3224POPC   NC338941  17.690   2.730  15.549  0.1179  0.4773 -0.0543
 3224POPC   PO438942  17.657   3.013  15.284  0.4152  0.1435 -0.1253
 3224POPC   GL138943  17.483   3.128  15.641  0.0298  0.2465  0.3223
 3224POPC   GL238944  17.652   3.188  15.777  0.3459  0.0638 -0.2626
 3224POPC   C1A38945  17.103   3.273  15.784 -0.3276 -0.0995 -0.2685
 3224POPC   D2A38946  16.942   3.696  15.923 -0.2246  0.2835  0.0476
 3224POPC   C3A38947  16.999   3.749  16.378 -0.5578  0.2290  0.1220
 3224POPC   C4A38948  16.922   3.792  16.828  0.1038  0.1021 -0.0266
 3224POPC   C1B38949  17.360   2.968  16.047  0.1074  0.1273  0.2117
 3224POPC   C2B38950  17.327   3.006  16.490  0.1186  0.2781  0.0095
 3224POPC   C3B38951  17.514   3.100  16.894  0.2402  0.0509 -0.3999
 3224POPC   C4B38952  17.520   3.201  17.337 -0.0516  0.1822 -0.2021
 3225POPC   NC338953  21.937   3.458  14.751  0.0846 -0.1088  0.0341
 3225POPC   PO438954  22.123   3.472  15.074 -0.0146  0.0525  0.0175
 3225POPC   GL138955  22.247   3.538  15.375  0.3534 -0.0274 -0.4108
 3225POPC   GL238956  22.488   3.592  15.504  0.0065  0.0563  0.3813
 3225POPC   C1A38957  22.164   3.459  15.818  0.5869  0.1190 -0.0701
 3225POPC   D2A38958  22.024   3.415  16.247  0.0977  0.2679 -0.2101
 3225POPC   C3A38959  21.740   3.397  16.651 -0.2922 -0.0078 -0.2141
 3225POPC   C4A38960  21.739   3.126  16.989  0.0594 -0.0429 -0.1910
 3225POPC   C1B38961  22.690   3.367  15.836  0.0158 -0.1200 -0.2606
 3225POPC   C2B38962  22.652   3.474  16.286  0.1574 -0.4559  0.0895
 3225POPC   C3B38963  22.511   3.247  16.636 -0.1150 -0.1008 -0.0609
 3225POPC   C4B38964  22.573   2.845  16.876 -0.1448  0.0232  0.0372
 3226POPC   NC338965  21.735   6.984  14.994 -0.1145 -0.0566  0.0699
 3226POPC   PO438966  21.828   7.255  15.289 -0.1057  0.4509 -0.1809
 3226POPC   GL138967  21.989   7.261  15.699  0.0204  0.1971 -0.1901
 3226POPC   GL238968  21.705   7.183  15.775 -0.1719 -0.1686 -0.0553
 3226POPC   C1A38969  22.195   6.906  15.988 -0.1328 -0.1336  0.2373
 3226POPC   D2A38970  22.325   6.816  16.413  0.2559  0.3225 -0.0604
 3226POPC   C3A38971  22.243   6.460  16.652  0.0978  0.0895  0.1534
 3226POPC   C4A38972  22.159   6.126  16.917 -0.1079  0.1094  0.0702
 3226POPC   C1B38973  21.676   7.147  16.226  0.0088  0.0417  0.1230
 3226POPC   C2B38974  21.521   7.407  16.533 -0.2003 -0.1598  0.0616
 3226POPC   C3B38975  21.505   7.703  16.960  0.0326  0.3382  0.1322
 3226POPC   C4B38976  21.495   8.028  17.289 -0.0417 -0.0130 -0.1266
 3227POPC   NC338977  30.835  17.310  15.167  0.2328  0.0958 -0.0168
 3227POPC   PO438978  31.218  17.330  15.065  0.2665  0.1440 -0.3554
 3227POPC   GL138979  31.174  17.575  15.457 -0.1200  0.2518 -0.2671
 3227POPC   GL238980  31.008  17.362  15.621  0.1498  0.3508 -0.0600
 3227POPC   C1A38981  31.411  17.565  15.864 -0.1831 -0.1858  0.0906
 3227POPC   D2A38982  31.267  17.409  16.313  0.2412 -0.2232  0.2437
 3227POPC   C3A38983  31.518  17.145  16.563  0.1574  0.0598 -0.2838
 3227POPC   C4A38984  31.703  16.766  16.789 -0.3367  0.0774  0.0987
 3227POPC   C1B38985  31.081  17.067  15.913 -0.1777 -0.0049  0.0390
 3227POPC   C2B38986  31.094  16.926  16.390  0.2050 -0.0598 -0.1098
 3227POPC   C3B38987  31.143  16.965  16.872 -0.1262  0.1190  0.0491
 3227POPC   C4B38988  31.295  16.995  17.295 -0.0982  0.0094 -0.0664
 3228POPC   NC338989   3.978   7.868  14.804  0.1326 -0.1266 -0.1016
 3228POPC   PO438990   4.258   8.127  14.720 -0.0937 -0.1525  0.1286
 3228POPC   GL138991   4.240   8.190  15.125 -0.1011  0.1789  0.2651
 3228POPC   GL238992   4.109   8.062  15.370  0.0061 -0.0736 -0.2264
 3228POPC   C1A38993   4.444   8.570  15.315 -0.2030  0.1137 -0.0834
 3228POPC   D2A38994   4.743   8.844  15.516  0.4393 -0.0703 -0.2397
 3228POPC   C3A38995   4.711   8.779  15.955 -0.0073  0.0266  0.2407
 3228POPC   C4A38996   4.743   8.909  16.387  0.0987 -0.3034  0.1798
 3228POPC   C1B38997   4.383   8.104  15.755  0.2342  0.1773 -0.2409
 3228POPC   C2B38998   4.566   8.147  16.177  0.1755 -0.1720  0.2635
 3228POPC   C3B38999   4.742   7.974  16.558 -0.1735 -0.0612 -0.0444
 3228POPC   C4B39000   5.000   7.951  16.935 -0.0286 -0.3905  0.1862
 3229POPC   NC339001   3.804   5.062  14.940 -0.0865 -0.0869 -0.1178
 3229POPC   PO439002   3.672   4.949  15.286 -0.2260  0.0356  0.3036
 3229POPC   GL139003   3.674   5.259  15.595  0.1391 -0.0649 -0.1997
 3229POPC   GL239004   3.809   4.966  15.757  0.3074 -0.3844 -0.0806
 3229POPC   C1A39005   3.429   5.288  16.031  0.2656  0.1821 -0.1128
 3229POPC   D2A39006   3.236   5.260  16.443  0.1956 -0.0984 -0.1071
 3229POPC   C3A39007   3.183   5.200  16.877 -0.0694  0.1025  0.0026
 3229POPC   C4A39008   3.431   5.112  17.265  0.0304 -0.3249 -0.2177
 3229POPC   C1B39009   3.833   5.084  16.182  0.0040 -0.2349  0.2522
 3229POPC   C2B39010   3.768   5.144  16.652  0.4420  0.1109 -0.0555
 3229POPC   C3B39011   3.890   5.252  17.096  0.1490  0.1566 -0.0066
 3229POPC   C4B39012   3.734   5.515  17.416  0.3507  0.1556  0.0858
 3230POPC   NC339013   6.090  29.396  15.220 -0.0664 -0.1201 -0.1779
 3230POPC   PO439014   6.029  29.763  15.051  0.1033  0.1484 -0.0284
 3230POPC   GL139015   5.623  29.747  15.184  0.4998  0.3824  0.4671
 3230POPC   GL239016   5.650  29.871  15.428 -0.0901  0.0848  0.1104
 3230POPC   C1A39017   5.217  29.781  14.979 -0.0291 -0.3577 -0.5012
 3230POPC   D2A39018   4.807  29.651  15.081  0.2164 -0.0737  0.1158
 3230POPC   C3A39019   4.714  29.782  15.520 -0.0559  0.1064  0.0488
 3230POPC   C4A39020   4.443  29.963  15.820 -0.1004 -0.1121 -0.1804
 3230POPC   C1B39021   5.481  29.938  15.877  0.1145  0.0818  0.1779
 3230POPC   C2B39022   5.268  29.729  16.194 -0.0365  0.1730 -0.1801
 3230POPC   C3B39023   5.033  29.741  16.574  0.1258  0.3520  0.0582
 3230POPC   C4B39024   4.591  29.827  16.707 -0.0954 -0.3642 -0.2931
 3231POPC   NC339025  10.716  29.931  15.115 -0.1385 -0.0082  0.1369
 3231POPC   PO439026  10.696  30.288  15.281 -0.3085 -0.0625 -0.0973
 3231POPC   GL139027  10.715  30.314  15.698 -0.0556  0.3360 -0.0588
 3231POPC   GL239028  10.488  30.412  15.815  0.0486 -0.0936 -0.2322
 3231POPC   C1A39029  11.135  30.312  15.922  0.0204  0.0717  0.0896
 3231POPC   D2A39030  11.200  30.104  16.366  0.0674  0.1829  0.1040
 3231POPC   C3A39031  11.074  30.176  16.817  0.0172 -0.0126  0.0688
 3231POPC   C4A39032  11.198  30.314  17.181  0.2445  0.1813  0.1450
 3231POPC   C1B39033  10.486  30.501  16.278  0.3752  0.3035  0.1370
 3231POPC   C2B39034  10.712  30.516  16.642  0.4267  0.1992 -0.3336
 3231POPC   C3B39035  10.725  30.366  17.055 -0.1269  0.3410  0.0903
 3231POPC   C4B39036  10.843  30.481  17.507  0.0713  0.3163 -0.0738
 3232POPC   NC339037   5.260  17.097  15.469  0.1645  0.0661 -0.1377
 3232POPC   PO439038   5.525  16.865  15.285 -0.0655 -0.0142 -0.3016
 3232POPC   GL139039   5.311  16.685  15.612 -0.1811  0.0383  0.3572
 3232POPC   GL239040   5.443  16.639  15.821  0.2299 -0.1032  0.1348
 3232POPC   C1A39041   4.932  16.809  15.840  0.0470  0.1911  0.2486
 3232POPC   D2A39042   4.643  17.079  15.704  0.0755 -0.3028  0.4971
 3232POPC   C3A39043   4.329  17.353  15.863 -0.0799  0.0597  0.0741
 3232POPC   C4A39044   4.137  17.654  16.154 -0.3519 -0.1448 -0.0351
 3232POPC   C1B39045   5.205  16.779  16.213  0.2105  0.1817 -0.1341
 3232POPC   C2B39046   5.190  16.928  16.674 -0.1288  0.2270 -0.3751
 3232POPC   C3B39047   4.940  16.940  17.079 -0.2639  0.0580 -0.1519
 3232POPC   C4B39048   4.742  16.983  17.519 -0.0588  0.0311 -0.4447
 3233POPC   NC339049  25.804  30.800  14.983 -0.2026  0.1782  0.3432
 3233POPC   PO439050  25.988  31.065  15.187 -0.2318 -0.0962  0.0075
 3233POPC   GL139051  26.264  31.179  15.375  0.3462  0.2508 -0.2151
 3233POPC   GL239052  26.531  31.273  15.430  0.0426  0.0909  0.0549
 3233POPC   C1A39053  26.366  30.934  15.776  0.0136  0.0665  0.4104
 3233POPC   D2A39054  26.263  30.646  16.113  0.1913 -0.0268 -0.0869
 3233POPC   C3A39055  26.452  30.591  16.558 -0.2772 -0.1789  0.2350
 3233POPC   C4A39056  26.282  30.327  16.894 -0.1237  0.1660  0.1965
 3233POPC   C1B39057  26.795  31.151  15.819  0.2126  0.0192  0.1981
 3233POPC   C2B39058  26.778  31.040  16.267 -0.0195 -0.0017  0.1836
 3233POPC   C3B39059  26.881  30.841  16.646  0.4123  0.2905  0.2209
 3233POPC   C4B39060  26.641  30.710  17.012  0.0550 -0.0004  0.0482
 3234POPC   NC339061   5.700  31.233  15.421  0.1157 -0.1145 -0.1933
 3234POPC   PO439062   5.522  31.085  15.104 -0.2727  0.0744 -0.1276
 3234POPC   GL139063   5.369  30.945  15.442 -0.3931 -0.1898 -0.0438
 3234POPC   GL239064   5.270  30.687  15.357  0.0136 -0.3129 -0.0174
 3234POPC   C1A39065   5.403  31.123  15.880  0.3127 -0.0160  0.4788
 3234POPC   D2A39066   5.440  31.354  16.291  0.0686 -0.1376 -0.2678
 3234POPC   C3A39067   5.425  30.996  16.623 -0.1606 -0.0556  0.6598
 3234POPC   C4A39068   5.622  30.771  16.972  0.1450  0.0151 -0.4052
 3234POPC   C1B39069   5.109  30.678  15.778 -0.2300  0.0819  0.4377
 3234POPC   C2B39070   4.991  30.705  16.184  0.1058 -0.1160  0.0152
 3234POPC   C3B39071   4.922  30.832  16.643  0.0758 -0.1654  0.1390
 3234POPC   C4B39072   5.043  31.053  17.071 -0.2784 -0.0505  0.0585
 3235POPC   NC339073  16.052   5.457  15.672  0.0116 -0.1880  0.1305
 3235POPC   PO439074  15.991   5.733  15.400  0.0926 -0.2528 -0.2747
 3235POPC   GL139075  15.793   5.923  15.692 -0.2422  0.0635 -0.1378
 3235POPC   GL239076  15.716   5.773  15.862 -0.1300  0.1215 -0.1455
 3235POPC   C1A39077  15.998   6.178  16.059  0.2782  0.1667  0.0435
 3235POPC   D2A39078  16.185   6.396  16.441 -0.1208 -0.1731 -0.0512
 3235POPC   C3A39079  16.223   5.885  16.418  0.0207  0.1374 -0.2670
 3235POPC   C4A39080  16.085   5.513  16.172 -0.4607 -0.3734  0.0926
 3235POPC   C1B39081  15.675   5.824  16.303 -0.3355  0.1074  0.1493
 3235POPC   C2B39082  15.806   5.898  16.734 -0.0680  0.1138  0.1299
 3235POPC   C3B39083  15.786   5.973  17.136 -0.0328 -0.1606  0.0873
 3235POPC   C4B39084  15.983   5.947  17.490 -0.0228  0.1814  0.3181
 3236POPC   NC339085   8.219   4.304  15.407  0.2013  0.0975 -0.0656
 3236POPC   PO439086   8.069   4.626  15.299 -0.0448 -0.1393  0.2213
 3236POPC   GL139087   7.868   4.548  15.644  0.0174  0.0993  0.1949
 3236POPC   GL239088   7.804   4.715  15.825 -0.2221  0.3329  0.0770
 3236POPC   C1A39089   7.878   4.350  16.103  0.1614  0.1495 -0.1569
 3236POPC   D2A39090   7.868   4.496  16.539 -0.4356  0.0475 -0.1623
 3236POPC   C3A39091   7.826   4.945  16.540 -0.2354  0.0555 -0.3086
 3236POPC   C4A39092   7.678   5.272  16.725  0.0040 -0.1862  0.0179
 3236POPC   C1B39093   7.484   4.766  16.152  0.0191  0.0071  0.1979
 3236POPC   C2B39094   7.185   4.887  16.449 -0.0756 -0.2066  0.0140
 3236POPC   C3B39095   7.176   5.219  16.744  0.2468 -0.0529 -0.1673
 3236POPC   C4B39096   7.350   5.480  17.044 -0.2503  0.0011 -0.0057
 3237POPC   NC339097  13.364   1.805  14.867  0.1293  0.0025 -0.0988
 3237POPC   PO439098  13.017   1.756  15.048 -0.1048  0.2823 -0.1966
 3237POPC   GL139099  13.177   1.647  15.408  0.1918  0.1462 -0.2473
 3237POPC   GL239100  13.449   1.577  15.271 -0.1426 -0.1989 -0.1577
 3237POPC   C1A39101  13.136   1.623  15.838  0.2143  0.0830 -0.1398
 3237POPC   D2A39102  13.216   1.501  16.282  0.0907  0.0605  0.2077
 3237POPC   C3A39103  12.853   1.570  16.562  0.1819  0.0725 -0.2801
 3237POPC   C4A39104  12.586   1.718  16.897  0.1967  0.0188  0.0738
 3237POPC   C1B39105  13.616   1.214  15.522 -0.1250  0.1087 -0.2845
 3237POPC   C2B39106  13.666   0.947  15.893  0.0207 -0.0607  0.0088
 3237POPC   C3B39107  13.693   0.513  16.008  0.0417  0.3828 -0.0298
 3237POPC   C4B39108  14.077   0.291  16.045  0.1623 -0.0937 -0.2170
 3238POPC   NC339109  30.616  12.596  15.708 -0.0180  0.1090  0.0511
 3238POPC   PO439110  30.329  12.651  15.492  0.1568 -0.0949 -0.3123
 3238POPC   GL139111  30.322  12.836  15.897 -0.2197 -0.1658  0.3025
 3238POPC   GL239112  30.445  13.064  15.793 -0.2229  0.0895 -0.0712
 3238POPC   C1A39113  30.298  13.154  16.256 -0.4367  0.1638  0.0048
 3238POPC   D2A39114  30.221  13.572  16.296 -0.1457  0.0870  0.1465
 3238POPC   C3A39115  30.033  13.793  16.612  0.0417  0.1950  0.1976
 3238POPC   C4A39116  30.190  13.837  17.033 -0.3501  0.1707 -0.0828
 3238POPC   C1B39117  30.759  12.956  16.161  0.2130 -0.0317  0.0606
 3238POPC   C2B39118  30.940  13.073  16.534  0.4196 -0.0538  0.1862
 3238POPC   C3B39119  30.825  13.129  16.973 -0.2963  0.3275  0.4031
 3238POPC   C4B39120  30.680  13.054  17.419 -0.0038 -0.1991 -0.1302
 3239POPC   NC339121   7.837  13.846  15.178 -0.0322 -0.0472 -0.1485
 3239POPC   PO439122   7.479  14.041  15.166 -0.0517  0.2309 -0.1835
 3239POPC   GL139123   7.368  13.862  15.452 -0.0519 -0.0101  0.0311
 3239POPC   GL239124   7.216  14.053  15.645 -0.0658 -0.4711 -0.1120
 3239POPC   C1A39125   7.562  13.714  15.862  0.1382  0.1656  0.0949
 3239POPC   D2A39126   7.480  13.418  16.180 -0.1798 -0.1629  0.0370
 3239POPC   C3A39127   7.689  13.353  16.605 -0.2152  0.1146  0.0967
 3239POPC   C4A39128   7.955  13.284  16.977 -0.4237 -0.0107  0.0091
 3239POPC   C1B39129   7.125  13.842  16.056 -0.0097  0.0396  0.0079
 3239POPC   C2B39130   7.026  13.595  16.471 -0.1556 -0.0479  0.1326
 3239POPC   C3B39131   6.993  13.300  16.827 -0.2039 -0.2430 -0.3659
 3239POPC   C4B39132   6.985  13.328  17.319 -0.1060 -0.0072  0.0759
 3240POPC   NC339133  28.955  26.431  14.797  0.1991 -0.1890  0.2193
 3240POPC   PO439134  28.748  26.514  15.094 -0.0196 -0.0691 -0.0724
 3240POPC   GL139135  28.664  26.623  15.421  0.3106  0.0499  0.0677
 3240POPC   GL239136  28.372  26.614  15.461 -0.0528 -0.2091 -0.2014
 3240POPC   C1A39137  28.925  26.618  15.766 -0.2835  0.1025  0.0204
 3240POPC   D2A39138  28.715  26.218  15.941  0.0843 -0.0992 -0.0751
 3240POPC   C3A39139  28.917  26.030  16.334 -0.0356 -0.1210  0.2692
 3240POPC   C4A39140  29.098  26.038  16.769 -0.2569 -0.1074 -0.1029
 3240POPC   C1B39141  28.444  26.666  15.947  0.2010  0.3062 -0.1363
 3240POPC   C2B39142  28.642  26.502  16.349  0.0590 -0.0009 -0.0611
 3240POPC   C3B39143  28.734  26.371  16.835  0.3164 -0.1054 -0.0611
 3240POPC   C4B39144  28.419  26.201  17.143  0.1430 -0.2562  0.2112
 3241POPC   NC339145  11.791  30.296  15.315 -0.3172 -0.1346 -0.2925
 3241POPC   PO439146  12.120  30.056  15.293  0.0784 -0.2804 -0.0026
 3241POPC   GL139147  12.145  30.232  15.615  0.2036  0.0403 -0.2378
 3241POPC   GL239148  12.174  30.552  15.571 -0.3154 -0.0901 -0.1580
 3241POPC   C1A39149  12.241  30.182  16.055 -0.2286  0.3332  0.0591
 3241POPC   D2A39150  12.189  30.048  16.456  0.3851  0.0225 -0.1669
 3241POPC   C3A39151  12.009  30.262  16.843 -0.0031 -0.0504  0.0370
 3241POPC   C4A39152  12.070  30.657  17.044  0.1012 -0.0577 -0.1782
 3241POPC   C1B39153  12.377  30.733  16.004  0.2261  0.1755 -0.0032
 3241POPC   C2B39154  12.457  30.757  16.449 -0.2684  0.0699  0.4091
 3241POPC   C3B39155  12.329  31.029  16.772 -0.0320  0.1699 -0.3742
 3241POPC   C4B39156  11.967  31.356  16.724 -0.0148  0.2604  0.0757
 3242POPC   NC339157   0.681  17.175  15.324 -0.2086 -0.1091 -0.0568
 3242POPC   PO439158   0.863  17.509  15.286  0.0313  0.0560  0.2630
 3242POPC   GL139159   0.933  17.461  15.694 -0.1238 -0.1008  0.1322
 3242POPC   GL239160   1.238  17.492  15.692 -0.3303 -0.0029  0.2497
 3242POPC   C1A39161   1.067  17.056  15.952  0.0540 -0.0257  0.1997
 3242POPC   D2A39162   1.169  16.645  16.234  0.2026 -0.0238  0.0532
 3242POPC   C3A39163   1.467  16.605  16.588 -0.1332 -0.3211  0.1172
 3242POPC   C4A39164   1.795  16.688  16.851  0.0256 -0.1669 -0.1202
 3242POPC   C1B39165   1.255  17.684  16.105 -0.0259  0.2555 -0.3178
 3242POPC   C2B39166   1.546  17.812  16.448 -0.3583 -0.1027  0.0131
 3242POPC   C3B39167   1.843  17.584  16.716 -0.0819 -0.1437  0.0889
 3242POPC   C4B39168   2.136  17.581  17.100  0.2247  0.0351  0.3544
 3243POPC   NC339169   5.243   0.908  15.392 -0.1334  0.2878  0.2965
 3243POPC   PO439170   5.573   1.063  15.364 -0.0676 -0.2330 -0.0766
 3243POPC   GL139171   5.559   0.922  15.769  0.4042  0.0041  0.2337
 3243POPC   GL239172   5.883   0.868  15.765  0.1698 -0.1884  0.2645
 3243POPC   C1A39173   5.623   0.878  16.214 -0.0175  0.2620  0.0512
 3243POPC   D2A39174   5.677   0.841  16.667  0.2511 -0.4598  0.2601
 3243POPC   C3A39175   6.108   0.845  16.810  0.0570 -0.0123  0.1399
 3243POPC   C4A39176   6.369   0.656  17.137  0.1149 -0.0207  0.3058
 3243POPC   C1B39177   6.126   0.849  16.115  0.0841  0.1549  0.0678
 3243POPC   C2B39178   6.330   0.570  16.449 -0.2432  0.0530 -0.0754
 3243POPC   C3B39179   6.377   0.218  16.769  0.0392 -0.0676  0.2645
 3243POPC   C4B39180   6.670   0.238  17.133 -0.0417 -0.1232 -0.1125
 3244POPC   NC339181   0.203  17.029  14.802  0.1555 -0.1093  0.1335
 3244POPC   PO439182  -0.093  16.951  15.046 -0.2673  0.4097 -0.0621
 3244POPC   GL139183  -0.280  16.935  15.348 -0.0961 -0.4825 -0.0369
 3244POPC   GL239184  -0.096  17.070  15.592  0.1178  0.0648  0.2579
 3244POPC   C1A39185  -0.373  16.678  15.742  0.1744  0.1139  0.1705
 3244POPC   D2A39186  -0.350  16.353  16.051  0.2801 -0.1295  0.3679
 3244POPC   C3A39187   0.049  16.130  16.155 -0.1555  0.1773 -0.0219
 3244POPC   C4A39188   0.367  16.021  16.505  0.0191 -0.0674 -0.1506
 3244POPC   C1B39189  -0.162  17.115  16.079  0.2725  0.1505 -0.1305
 3244POPC   C2B39190  -0.198  16.764  16.274 -0.0850 -0.0318  0.1965
 3244POPC   C3B39191  -0.254  16.441  16.523 -0.0776 -0.1473 -0.0033
 3244POPC   C4B39192  -0.068  16.109  16.715  0.0874 -0.0800  0.3884
 3245POPC   NC339193  21.355  29.953  15.661  0.1824 -0.0617 -0.2034
 3245POPC   PO439194  21.333  29.680  15.413 -0.2036  0.1576  0.0146
 3245POPC   GL139195  21.322  29.456  15.722  0.3227 -0.1437 -0.2977
 3245POPC   GL239196  21.527  29.435  15.883 -0.0712  0.0402  0.3364
 3245POPC   C1A39197  21.146  29.180  16.092 -0.1479 -0.0202 -0.0367
 3245POPC   D2A39198  20.914  29.054  16.467 -0.1171  0.3059  0.1527
 3245POPC   C3A39199  20.942  28.728  16.767  0.2464  0.2602  0.2575
 3245POPC   C4A39200  21.247  28.391  16.895 -0.0166  0.1103 -0.0404
 3245POPC   C1B39201  21.308  29.672  16.156 -0.0723 -0.0614  0.1731
 3245POPC   C2B39202  21.191  29.939  16.520 -0.0515  0.1103  0.0321
 3245POPC   C3B39203  21.195  30.264  16.867 -0.0296 -0.1251 -0.2922
 3245POPC   C4B39204  21.040  30.566  17.203  0.1205 -0.1223 -0.1116
 3246POPC   NC339205   5.467   1.451  15.713  0.3161 -0.0350 -0.1792
 3246POPC   PO439206   5.339   1.750  15.483 -0.1996  0.1602  0.4471
 3246POPC   GL139207   5.028   1.825  15.762 -0.4764  0.0343  0.1797
 3246POPC   GL239208   5.105   2.014  15.927 -0.0937 -0.1249  0.1014
 3246POPC   C1A39209   5.107   1.603  16.187  0.2295 -0.2676  0.0440
 3246POPC   D2A39210   5.122   1.704  16.657 -0.1869 -0.2796  0.4174
 3246POPC   C3A39211   5.074   1.404  16.967 -0.0126  0.1570  0.1400
 3246POPC   C4A39212   4.841   1.070  17.198 -0.2747  0.1862  0.2130
 3246POPC   C1B39213   4.901   2.116  16.285 -0.3282 -0.0477 -0.0763
 3246POPC   C2B39214   4.615   1.934  16.599 -0.0920 -0.0364 -0.0668
 3246POPC   C3B39215   4.757   1.861  17.053 -0.0150  0.3599 -0.3109
 3246POPC   C4B39216   4.628   1.785  17.502 -0.2472  0.0866  0.0555
 3247POPC   NC339217   3.493  26.622  14.826 -0.1577  0.3138 -0.2538
 3247POPC   PO439218   3.821  26.714  15.050 -0.1304 -0.3612  0.0901
 3247POPC   GL139219   3.733  26.975  15.290  0.0750  0.0174 -0.1105
 3247POPC   GL239220   4.050  27.069  15.394  0.0253  0.1737 -0.0473
 3247POPC   C1A39221   3.712  26.955  15.778  0.1832  0.4005 -0.1909
 3247POPC   D2A39222   4.019  27.000  16.137 -0.0409 -0.1079  0.0342
 3247POPC   C3A39223   4.177  27.116  16.586 -0.0597 -0.1048  0.1017
 3247POPC   C4A39224   3.884  27.353  16.900 -0.0644  0.1859  0.0290
 3247POPC   C1B39225   4.018  27.333  15.699  0.2061 -0.0367  0.0080
 3247POPC   C2B39226   3.835  27.447  16.110 -0.0559  0.0642 -0.1646
 3247POPC   C3B39227   3.669  27.241  16.477 -0.0051 -0.5448 -0.2271
 3247POPC   C4B39228   3.741  26.802  16.483 -0.1518  0.0208 -0.2368
 3248POPC   NC339229  19.897  31.290  14.706  0.0428 -0.1909 -0.3774
 3248POPC   PO439230  19.508  31.380  14.818 -0.1187  0.3015 -0.1165
 3248POPC   GL139231  19.783  31.450  15.168  0.1885  0.1738  0.1012
 3248POPC   GL239232  19.654  31.242  15.345  0.3045  0.2408 -0.1057
 3248POPC   C1A39233  20.112  31.782  15.380 -0.0370 -0.1902  0.2442
 3248POPC   D2A39234  20.418  31.585  15.671 -0.0880 -0.1685 -0.0325
 3248POPC   C3A39235  20.566  31.659  16.056 -0.0867  0.1028  0.3279
 3248POPC   C4A39236  20.676  31.846  16.464  0.0137 -0.3172 -0.1510
 3248POPC   C1B39237  19.999  31.303  15.640  0.0554  0.0249 -0.1021
 3248POPC   C2B39238  20.156  31.224  16.026  0.2099  0.2283  0.0879
 3248POPC   C3B39239  20.215  31.446  16.389  0.3508  0.0272  0.0176
 3248POPC   C4B39240  20.277  31.684  16.773  0.0923 -0.0113  0.1631
 3249POPC   NC339241  26.919  16.226  14.976  0.1649 -0.0168 -0.0182
 3249POPC   PO439242  26.612  16.181  15.166  0.1721 -0.0231 -0.3087
 3249POPC   GL139243  26.851  16.076  15.491  0.2432  0.0458  0.5253
 3249POPC   GL239244  26.934  15.804  15.415 -0.0589 -0.0992 -0.0999
 3249POPC   C1A39245  26.626  15.918  15.821 -0.2394  0.1424  0.5218
 3249POPC   D2A39246  26.475  15.748  16.220  0.4306 -0.0073  0.1705
 3249POPC   C3A39247  26.720  15.945  16.571  0.0844  0.1712 -0.0008
 3249POPC   C4A39248  26.682  16.063  17.024  0.2395 -0.3071  0.2293
 3249POPC   C1B39249  27.102  15.629  15.839  0.5413  0.0815  0.1776
 3249POPC   C2B39250  27.178  15.432  16.266  0.1984  0.3078  0.1164
 3249POPC   C3B39251  27.273  15.329  16.723 -0.0120  0.1464  0.0027
 3249POPC   C4B39252  27.689  15.221  16.958  0.0630 -0.1162 -0.0502
 3250POPC   NC339253  12.605  26.763  14.937 -0.0179  0.2398 -0.2488
 3250POPC   PO439254  12.448  26.878  15.271  0.1686 -0.1432 -0.0650
 3250POPC   GL139255  12.599  26.959  15.596  0.1633  0.2852  0.3458
 3250POPC   GL239256  12.398  27.149  15.693  0.3029 -0.2327 -0.0705
 3250POPC   C1A39257  12.793  26.961  16.001  0.1462 -0.1291  0.0643
 3250POPC   D2A39258  12.673  26.903  16.468 -0.2149  0.3206  0.2406
 3250POPC   C3A39259  12.662  26.718  16.910 -0.2876 -0.2009  0.0596
 3250POPC   C4A39260  12.712  26.841  17.363 -0.3757  0.0319 -0.1930
 3250POPC   C1B39261  12.283  27.196  16.134  0.0960  0.2787  0.0993
 3250POPC   C2B39262  12.238  27.240  16.550  0.0465 -0.1320 -0.1006
 3250POPC   C3B39263  12.320  27.077  16.969  0.5085  0.0958 -0.1749
 3250POPC   C4B39264  11.956  26.925  17.255  0.4059 -0.0042 -0.0787
 3251POPC   NC339265  14.108   3.766  15.311 -0.0177 -0.1694 -0.3700
 3251POPC   PO439266  14.352   3.497  15.221  0.0581  0.0520 -0.1123
 3251POPC   GL139267  14.093   3.334  15.570  0.2464  0.2252  0.1614
 3251POPC   GL239268  14.149   2.990  15.473  0.0272 -0.0324 -0.1348
 3251POPC   C1A39269  14.082   3.274  16.000  0.0896 -0.0251  0.2329
 3251POPC   D2A39270  14.095   3.297  16.497  0.4011  0.1599  0.1710
 3251POPC   C3A39271  14.335   3.404  16.918  0.1198  0.1754 -0.1383
 3251POPC   C4A39272  14.725   3.633  17.098  0.0153  0.0137  0.1775
 3251POPC   C1B39273  14.096   2.692  15.799 -0.0968  0.2204  0.0223
 3251POPC   C2B39274  14.084   2.481  16.207  0.0871  0.2467 -0.0126
 3251POPC   C3B39275  14.180   2.589  16.617  0.1140 -0.1901  0.2672
 3251POPC   C4B39276  14.153   2.335  17.030 -0.0055  0.4221 -0.2969
 3252POPC   NC339277   7.175  23.877  15.223 -0.1238  0.0971  0.1128
 3252POPC   PO439278   7.435  24.018  14.956  0.1021 -0.2351  0.3721
 3252POPC   GL139279   7.471  24.193  15.343 -0.0662 -0.1738 -0.0206
 3252POPC   GL239280   7.382  24.467  15.373  0.0873 -0.3063 -0.0236
 3252POPC   C1A39281   7.488  24.147  15.779 -0.1995  0.2891 -0.0497
 3252POPC   D2A39282   7.361  24.097  16.249 -0.0780  0.0923  0.0766
 3252POPC   C3A39283   7.640  23.856  16.586 -0.1387  0.0658  0.2746
 3252POPC   C4A39284   7.664  24.115  16.967 -0.2152  0.1247  0.1437
 3252POPC   C1B39285   7.274  24.732  15.764 -0.1329 -0.3509  0.1872
 3252POPC   C2B39286   7.455  24.730  16.251 -0.0130  0.1652  0.3819
 3252POPC   C3B39287   7.634  24.864  16.680 -0.3387  0.0107  0.0690
 3252POPC   C4B39288   7.518  25.095  17.094  0.0845  0.3231 -0.0858
 3253POPC   NC339289  11.271   8.022  15.719  0.0575  0.1278 -0.0930
 3253POPC   PO439290  11.172   8.379  15.696 -0.1329  0.1015 -0.3099
 3253POPC   GL139291  10.975   8.300  16.043 -0.0611 -0.3152 -0.3607
 3253POPC   GL239292  11.228   8.163  16.246  0.0411  0.3663  0.0239
 3253POPC   C1A39293  10.671   8.485  16.340 -0.2211 -0.0931 -0.0476
 3253POPC   D2A39294  10.692   8.505  16.805  0.1241  0.0261 -0.0387
 3253POPC   C3A39295  10.463   8.692  17.156 -0.0964  0.2673  0.0116
 3253POPC   C4A39296  10.464   8.910  17.610  0.1456  0.0294  0.2964
 3253POPC   C1B39297  11.063   8.360  16.585 -0.1431  0.0047  0.1187
 3253POPC   C2B39298  11.226   8.616  16.989  0.3531 -0.1619  0.3199
 3253POPC   C3B39299  11.516   8.470  17.349 -0.2327 -0.0495  0.1111
 3253POPC   C4B39300  11.651   8.115  17.602 -0.1751  0.1255 -0.1132
 3254POPC   NC339301  27.567   6.757  15.656  0.1594 -0.1506  0.2985
 3254POPC   PO439302  27.203   6.839  15.568  0.2547  0.2712 -0.1074
 3254POPC   GL139303  27.130   6.865  15.910 -0.0921 -0.2883 -0.1935
 3254POPC   GL239304  27.171   7.181  15.926 -0.0553 -0.1582 -0.0289
 3254POPC   C1A39305  27.340   6.832  16.341  0.1204 -0.0834  0.2025
 3254POPC   D2A39306  27.299   7.124  16.734 -0.0095 -0.2289 -0.1564
 3254POPC   C3A39307  27.642   7.376  16.933 -0.0107 -0.3781  0.1469
 3254POPC   C4A39308  27.826   7.831  16.975  0.2713 -0.0597  0.1018
 3254POPC   C1B39309  27.210   7.453  16.274  0.0728 -0.2816 -0.0273
 3254POPC   C2B39310  27.251   7.632  16.666 -0.2846  0.1897 -0.1061
 3254POPC   C3B39311  27.354   7.954  16.982  0.1443 -0.1464  0.0207
 3254POPC   C4B39312  27.239   8.402  17.131 -0.2494  0.0782  0.0430
 3255POPC   NC339313  11.596  21.044  15.575 -0.0474  0.3732 -0.2411
 3255POPC   PO439314  11.239  20.951  15.507  0.0312 -0.1570  0.1342
 3255POPC   GL139315  11.107  21.008  15.921  0.2861  0.1233  0.1451
 3255POPC   GL239316  11.365  21.063  15.990 -0.2092 -0.3053 -0.1081
 3255POPC   C1A39317  10.747  21.042  16.201  0.0752 -0.1032  0.1896
 3255POPC   D2A39318  10.643  21.332  16.542  0.2420  0.0150 -0.0266
 3255POPC   C3A39319  10.783  21.095  16.903  0.1552  0.0073  0.2878
 3255POPC   C4A39320  11.066  21.035  17.311  0.0094 -0.1947  0.1708
 3255POPC   C1B39321  11.162  20.863  16.403 -0.2387  0.0047 -0.0569
 3255POPC   C2B39322  11.212  20.802  16.850  0.2017 -0.0359  0.1328
 3255POPC   C3B39323  11.287  20.481  17.044  0.0606 -0.0312 -0.0393
 3255POPC   C4B39324  11.574  20.143  17.142 -0.0577 -0.3646  0.2026
 3256POPC   NC339325  18.887   0.278  14.742  0.4487 -0.0922 -0.0608
 3256POPC   PO439326  19.098   0.288  15.072  0.0268  0.1330 -0.0185
 3256POPC   GL139327  19.243   0.207  15.465  0.0437 -0.2018 -0.2144
 3256POPC   GL239328  19.471   0.332  15.433 -0.0691  0.0465  0.3031
 3256POPC   C1A39329  19.309   0.327  15.893 -0.2586 -0.1442 -0.4329
 3256POPC   D2A39330  19.197   0.407  16.314  0.0942 -0.2809 -0.2059
 3256POPC   C3A39331  19.478   0.440  16.688 -0.1599  0.2730  0.2350
 3256POPC   C4A39332  19.885   0.393  16.787 -0.0467  0.2239  0.4915
 3256POPC   C1B39333  19.667   0.716  15.695 -0.0609 -0.3218  0.0342
 3256POPC   C2B39334  19.965   0.792  16.068 -0.0673 -0.2317 -0.5240
 3256POPC   C3B39335  20.110   0.719  16.524  0.0772 -0.2187  0.0309
 3256POPC   C4B39336  20.530   0.553  16.655  0.0704 -0.3891 -0.0786
 3257POPC   NC339337  31.562   8.175  15.358 -0.0528  0.3838 -0.0988
 3257POPC   PO439338  31.382   7.823  15.231  0.0337  0.1620  0.2710
 3257POPC   GL139339  31.094   7.856  15.559 -0.3778 -0.1207 -0.0726
 3257POPC   GL239340  30.888   8.106  15.541 -0.2366 -0.0328  0.1373
 3257POPC   C1A39341  31.130   7.620  15.960 -0.1219  0.2092  0.0001
 3257POPC   D2A39342  31.269   7.327  16.311 -0.0920  0.0824  0.0064
 3257POPC   C3A39343  31.466   7.526  16.646  0.2911 -0.0141 -0.1295
 3257POPC   C4A39344  31.531   7.822  17.020  0.0839  0.2048 -0.0060
 3257POPC   C1B39345  30.577   8.279  15.824  0.0742  0.0975 -0.0492
 3257POPC   C2B39346  30.478   8.273  16.283 -0.2747  0.0011  0.1518
 3257POPC   C3B39347  30.561   8.248  16.733  0.1874 -0.0206  0.0415
 3257POPC   C4B39348  30.747   8.117  17.112 -0.0727 -0.3896 -0.0883
 3258POPC   NC339349   7.866   5.948  15.322  0.0899  0.1111  0.1032
 3258POPC   PO439350   8.107   5.640  15.186  0.4961 -0.2353 -0.1358
 3258POPC   GL139351   8.131   5.546  15.602 -0.2595  0.2420  0.0282
 3258POPC   GL239352   8.258   5.751  15.853  0.0521 -0.0403 -0.5117
 3258POPC   C1A39353   7.776   5.817  15.835 -0.1482 -0.3248  0.0719
 3258POPC   D2A39354   7.623   6.237  15.740 -0.0165 -0.1480  0.0087
 3258POPC   C3A39355   7.732   6.561  16.077  0.2404 -0.1272 -0.1605
 3258POPC   C4A39356   7.750   6.735  16.481  0.1052  0.4532 -0.0177
 3258POPC   C1B39357   8.379   5.419  16.200 -0.0439  0.1480  0.0077
 3258POPC   C2B39358   8.168   5.372  16.648  0.1973  0.2362 -0.0670
 3258POPC   C3B39359   8.037   5.097  17.057 -0.1326 -0.2159  0.2958
 3258POPC   C4B39360   7.813   4.685  17.009  0.1313  0.0578  0.0300
 3259POPC   NC339361  17.085   9.455  15.205  0.1315  0.1351 -0.0512
 3259POPC   PO439362  17.224   9.144  14.998  0.1731  0.1134  0.2185
 3259POPC   GL139363  17.347   9.138  15.422 -0.2394  0.1695  0.1696
 3259POPC   GL239364  17.241   8.784  15.444 -0.2072  0.0244 -0.2534
 3259POPC   C1A39365  17.432   8.973  15.910  0.0871  0.2113 -0.1661
 3259POPC   D2A39366  17.549   9.029  16.385 -0.0889  0.1269  0.1561
 3259POPC   C3A39367  17.441   9.235  16.779 -0.0179  0.3113 -0.1209
 3259POPC   C4A39368  17.712   9.468  17.066  0.0317 -0.0305 -0.1353
 3259POPC   C1B39369  17.092   8.574  15.852 -0.1240  0.0595  0.0482
 3259POPC   C2B39370  17.125   8.627  16.331 -0.0472  0.0286 -0.2206
 3259POPC   C3B39371  17.275   8.766  16.752 -0.1572 -0.0619 -0.2183
 3259POPC   C4B39372  17.621   8.679  16.969 -0.2643  0.1102  0.1353
 3260POPC   NC339373   2.476  20.172  15.180 -0.2192  0.0188  0.0747
 3260POPC   PO439374   2.356  19.906  15.445  0.4588 -0.2500  0.0314
 3260POPC   GL139375   2.283  19.769  15.830  0.0987  0.1043  0.0198
 3260POPC   GL239376   2.290  19.501  15.718 -0.0446  0.1831  0.2577
 3260POPC   C1A39377   2.229  19.789  16.296 -0.0435 -0.1304 -0.1117
 3260POPC   D2A39378   2.480  20.069  16.577 -0.2514 -0.0009  0.1043
 3260POPC   C3A39379   2.783  20.280  16.356 -0.1773 -0.0801 -0.1730
 3260POPC   C4A39380   2.969  20.418  15.949 -0.0911  0.1057 -0.0723
 3260POPC   C1B39381   2.395  19.327  16.143 -0.0843 -0.1545  0.2175
 3260POPC   C2B39382   2.672  19.195  16.517  0.0612  0.1150 -0.1503
 3260POPC   C3B39383   2.932  19.455  16.722 -0.1745 -0.1107  0.4472
 3260POPC   C4B39384   3.426  19.417  16.797 -0.1006  0.2434  0.0357
 3261POPC   NC339385   9.267   6.076  15.155 -0.0209  0.3452  0.3831
 3261POPC   PO439386   9.541   6.344  15.160 -0.0421 -0.0675  0.2081
 3261POPC   GL139387   9.592   6.358  15.486  0.2823 -0.2142  0.6349
 3261POPC   GL239388   9.398   6.310  15.662 -0.1589 -0.2529  0.0101
 3261POPC   C1A39389   9.748   6.655  15.845 -0.1067  0.1272 -0.0444
 3261POPC   D2A39390   9.906   6.726  16.229  0.4619 -0.1422  0.2011
 3261POPC   C3A39391   9.942   6.919  16.666 -0.2551  0.0940  0.2542
 3261POPC   C4A39392  10.243   7.034  17.039  0.3756 -0.1226  0.1336
 3261POPC   C1B39393   9.083   6.345  15.968 -0.3932 -0.1144  0.1500
 3261POPC   C2B39394   8.723   6.431  16.301 -0.1593 -0.2532 -0.0093
 3261POPC   C3B39395   8.577   6.237  16.677  0.0437 -0.2013  0.1083
 3261POPC   C4B39396   8.745   6.018  17.033  0.0446 -0.3056 -0.1660
 3262POPC   NC339397  12.702   6.385  14.851  0.0932  0.2494  0.2778
 3262POPC   PO439398  12.401   6.557  15.002  0.2661  0.1200  0.1762
 3262POPC   GL139399  12.146   6.583  15.339  0.0479 -0.2530 -0.0889
 3262POPC   GL239400  12.062   6.331  15.325  0.0058  0.1148  0.2470
 3262POPC   C1A39401  12.233   6.545  15.823  0.2665  0.1027 -0.2050
 3262POPC   D2A39402  12.293   6.751  16.253  0.3637 -0.1755 -0.1979
 3262POPC   C3A39403  12.344   6.662  16.658 -0.0369  0.0879 -0.1031
 3262POPC   C4A39404  12.609   6.658  17.003  0.0123 -0.0693 -0.0266
 3262POPC   C1B39405  12.214   6.041  15.647 -0.0461  0.0782 -0.1125
 3262POPC   C2B39406  12.243   6.069  16.132  0.0937  0.2517  0.2447
 3262POPC   C3B39407  12.342   6.053  16.562  0.2466  0.0948  0.2268
 3262POPC   C4B39408  12.168   6.202  16.995  0.3741  0.0573  0.1941
 3263POPC   NC339409  25.234  24.423  14.784  0.0790  0.2510  0.2231
 3263POPC   PO439410  25.218  24.080  14.983 -0.2868 -0.3834  0.1164
 3263POPC   GL139411  25.012  23.846  15.103 -0.3797 -0.4002  0.0894
 3263POPC   GL239412  25.061  23.812  15.419 -0.2098  0.0319  0.1306
 3263POPC   C1A39413  24.634  23.583  15.195 -0.0428 -0.1051  0.4135
 3263POPC   D2A39414  24.258  23.297  15.185 -0.1414 -0.1049 -0.0039
 3263POPC   C3A39415  24.197  22.946  15.532 -0.2583  0.0185 -0.2234
 3263POPC   C4A39416  24.017  23.074  15.914 -0.3039 -0.0804 -0.0907
 3263POPC   C1B39417  24.700  23.790  15.735  0.0839 -0.4010 -0.0034
 3263POPC   C2B39418  24.377  23.928  16.092  0.0135  0.1018  0.0469
 3263POPC   C3B39419  23.963  23.984  16.286 -0.1264 -0.0509  0.1118
 3263POPC   C4B39420  23.933  23.865  16.720  0.1608 -0.0900  0.0464
 3264POPC   NC339421  27.137  27.116  15.145  0.0337 -0.1266 -0.1859
 3264POPC   PO439422  27.077  27.525  15.215  0.0949 -0.2828 -0.0376
 3264POPC   GL139423  26.802  27.334  15.501 -0.0894 -0.1565  0.0585
 3264POPC   GL239424  27.059  27.335  15.652 -0.0536  0.0195 -0.1356
 3264POPC   C1A39425  26.641  27.550  15.886 -0.2233 -0.0011  0.1501
 3264POPC   D2A39426  26.504  27.729  16.248 -0.0083 -0.1463 -0.0290
 3264POPC   C3A39427  26.209  27.858  16.597 -0.1879  0.0212  0.0204
 3264POPC   C4A39428  26.035  28.124  16.932 -0.1615 -0.2343  0.2410
 3264POPC   C1B39429  26.973  27.141  16.086 -0.0558  0.1578  0.3757
 3264POPC   C2B39430  26.941  27.128  16.534 -0.4107  0.0653 -0.0236
 3264POPC   C3B39431  26.802  26.937  16.905 -0.1470  0.2911  0.1732
 3264POPC   C4B39432  26.707  26.513  17.194  0.4677 -0.0365 -0.3066
 3265POPC   NC339433  15.036  26.586  15.301 -0.2284  0.2136 -0.1486
 3265POPC   PO439434  14.668  26.829  15.274  0.3907  0.2232 -0.2242
 3265POPC   GL139435  14.619  26.929  15.602 -0.2503  0.0458  0.2723
 3265POPC   GL239436  14.684  27.274  15.631  0.0292  0.0926  0.1943
 3265POPC   C1A39437  14.950  26.911  15.905  0.2781  0.0365 -0.1259
 3265POPC   D2A39438  15.143  27.062  16.309  0.1750 -0.2100  0.2764
 3265POPC   C3A39439  14.906  27.409  16.520  0.1014 -0.3325  0.0576
 3265POPC   C4A39440  14.814  27.662  16.865 -0.0274  0.1615  0.0312
 3265POPC   C1B39441  14.535  27.200  16.058  0.1871 -0.1686  0.3548
 3265POPC   C2B39442  14.524  27.071  16.493  0.0144  0.2187 -0.0166
 3265POPC   C3B39443  14.553  27.229  16.933  0.1643  0.2389 -0.2984
 3265POPC   C4B39444  14.472  27.363  17.359 -0.1504 -0.1238 -0.3336
 3266POPC   NC339445   7.202   4.405  14.842 -0.0201  0.4304 -0.2989
 3266POPC   PO439446   7.312   4.757  14.904  0.0878 -0.3581 -0.2814
 3266POPC   GL139447   7.311   4.709  15.281 -0.0921 -0.0316  0.1227
 3266POPC   GL239448   7.538   4.824  15.382 -0.1502 -0.0041  0.1682
 3266POPC   C1A39449   7.387   4.466  15.676 -0.3479  0.0928  0.0824
 3266POPC   D2A39450   7.249   4.131  15.954  0.2427 -0.0531 -0.2131
 3266POPC   C3A39451   7.388   4.339  16.357 -0.1196 -0.0987  0.2639
 3266POPC   C4A39452   7.461   4.334  16.810 -0.1805  0.0836 -0.3106
 3266POPC   C1B39453   7.391   5.088  15.750  0.1816  0.0038 -0.1774
 3266POPC   C2B39454   7.445   5.254  16.193  0.2424  0.2117  0.1141
 3266POPC   C3B39455   7.375   5.627  16.381  0.2307 -0.3500 -0.0199
 3266POPC   C4B39456   7.178   5.960  16.586  0.1190 -0.2816  0.1302
 3267POPC   NC339457   8.597  23.286  14.885 -0.3844  0.1298 -0.1458
 3267POPC   PO439458   8.661  23.609  15.127  0.0994 -0.0140 -0.1400
 3267POPC   GL139459   8.810  23.757  15.502 -0.0761 -0.1317  0.3868
 3267POPC   GL239460   8.787  23.636  15.747 -0.0329 -0.1889 -0.3511
 3267POPC   C1A39461   8.812  24.161  15.714 -0.0437 -0.0502 -0.1536
 3267POPC   D2A39462   8.713  24.617  15.895 -0.1164 -0.2730 -0.2475
 3267POPC   C3A39463   8.564  24.807  16.291  0.3020  0.0707  0.0484
 3267POPC   C4A39464   8.542  25.157  16.682  0.0179  0.2302  0.2181
 3267POPC   C1B39465   9.067  23.848  16.061  0.1297  0.1081 -0.2286
 3267POPC   C2B39466   9.236  23.845  16.429  0.1927  0.2779 -0.0483
 3267POPC   C3B39467   9.230  23.910  16.894 -0.1094  0.2425  0.1605
 3267POPC   C4B39468   9.518  23.729  17.234 -0.2561 -0.0014  0.0967
 3268POPC   NC339469  25.636  20.660  14.945 -0.0064 -0.0735 -0.1854
 3268POPC   PO439470  25.878  20.928  15.045  0.0291  0.0898  0.1003
 3268POPC   GL139471  25.812  20.946  15.419  0.1072  0.0346  0.1729
 3268POPC   GL239472  25.920  20.715  15.519  0.3101  0.1429 -0.1278
 3268POPC   C1A39473  25.560  21.281  15.626  0.2194 -0.0807 -0.3192
 3268POPC   D2A39474  25.603  21.535  15.962 -0.0726 -0.3425 -0.0081
 3268POPC   C3A39475  25.422  21.281  16.325  0.1388  0.1971 -0.2292
 3268POPC   C4A39476  25.107  21.012  16.466  0.0788 -0.0355  0.0160
 3268POPC   C1B39477  25.788  20.460  15.930  0.0632  0.1254 -0.2226
 3268POPC   C2B39478  25.766  20.398  16.374  0.0178 -0.0797 -0.0297
 3268POPC   C3B39479  25.514  20.160  16.695  0.0465 -0.1686 -0.1843
 3268POPC   C4B39480  25.252  20.119  17.075  0.1417  0.0502  0.2675
 3269POPC   NC339481  22.026  21.029  15.873  0.0613 -0.0590  0.2912
 3269POPC   PO439482  22.045  21.054  15.418 -0.1722 -0.1211  0.2315
 3269POPC   GL139483  22.060  21.427  15.595 -0.0868 -0.1191 -0.3181
 3269POPC   GL239484  21.811  21.574  15.760 -0.0794 -0.1002  0.1678
 3269POPC   C1A39485  22.381  21.633  15.908  0.2255  0.1026 -0.2404
 3269POPC   D2A39486  22.495  21.727  16.357 -0.0748  0.0708 -0.3587
 3269POPC   C3A39487  22.439  21.405  16.679  0.0907 -0.0094 -0.0472
 3269POPC   C4A39488  22.644  21.063  16.920  0.0560 -0.0002 -0.0621
 3269POPC   C1B39489  22.046  21.964  15.751 -0.1006  0.1228 -0.1262
 3269POPC   C2B39490  22.262  22.456  15.694  0.2144  0.0387 -0.4810
 3269POPC   C3B39491  22.476  22.676  16.019 -0.1190  0.1882 -0.1596
 3269POPC   C4B39492  22.477  22.757  16.476 -0.1590 -0.0924 -0.0756
 3270POPC   NC339493   4.317   0.004  15.280  0.0311 -0.3222  0.0912
 3270POPC   PO439494   4.239  -0.207  14.961 -0.2643  0.0000 -0.0177
 3270POPC   GL139495   4.010  -0.317  15.267 -0.4268  0.0598 -0.1615
 3270POPC   GL239496   3.765  -0.205  15.391 -0.0304  0.1975 -0.2460
 3270POPC   C1A39497   3.834  -0.733  15.361 -0.0688  0.0317 -0.1849
 3270POPC   D2A39498   3.984  -1.112  15.576 -0.0176 -0.2080  0.0200
 3270POPC   C3A39499   4.039  -1.383  15.930  0.0328 -0.1210  0.0002
 3270POPC   C4A39500   4.254  -1.755  16.284  0.1503 -0.0700  0.2193
 3270POPC   C1B39501   3.985  -0.370  15.749  0.1928 -0.1837  0.2169
 3270POPC   C2B39502   3.818  -0.485  16.170 -0.0702 -0.3340  0.0744
 3270POPC   C3B39503   3.720  -0.465  16.646  0.3842  0.0226  0.1846
 3270POPC   C4B39504   3.403  -0.617  16.920  0.1898 -0.0410  0.0007
 3271POPC   NC339505  13.608   9.212  15.132 -0.3839 -0.1728 -0.1105
 3271POPC   PO439506  13.346   9.412  14.926  0.1136  0.1473  0.1498
 3271POPC   GL139507  13.217   9.465  15.275 -0.1540  0.0860  0.0517
 3271POPC   GL239508  13.206   9.230  15.502  0.1245 -0.1620  0.2571
 3271POPC   C1A39509  13.191   9.694  15.663  0.2680 -0.1559 -0.0839
 3271POPC   D2A39510  13.384  10.092  15.929 -0.1007  0.2534 -0.1624
 3271POPC   C3A39511  13.618   9.944  16.268  0.1358  0.2572  0.2218
 3271POPC   C4A39512  13.450   9.678  16.636  0.1917  0.0363 -0.0182
 3271POPC   C1B39513  13.324   9.185  15.939  0.2810  0.0141 -0.0024
 3271POPC   C2B39514  13.599   9.266  16.261  0.2084 -0.2863 -0.4190
 3271POPC   C3B39515  13.651   9.166  16.723  0.0668  0.1236 -0.2098
 3271POPC   C4B39516  13.554   9.054  17.142 -0.0296 -0.2913 -0.0756
 3272POPC   NC339517   4.338  30.065  14.591  0.0190 -0.1333 -0.0414
 3272POPC   PO439518   4.381  29.738  14.402  0.3414  0.0250 -0.0995
 3272POPC   GL139519   3.928  29.734  14.678 -0.0319 -0.4211 -0.2391
 3272POPC   GL239520   3.847  29.856  14.954 -0.4171  0.3266  0.3967
 3272POPC   C1A39521   3.664  29.359  14.836 -0.0018 -0.1445  0.0601
 3272POPC   D2A39522   3.387  29.083  15.074  0.3920 -0.2837 -0.1156
 3272POPC   C3A39523   3.472  28.960  15.473 -0.1856 -0.2130 -0.3067
 3272POPC   C4A39524   3.492  28.951  15.938  0.3150 -0.1948 -0.3840
 3272POPC   C1B39525   3.465  29.709  15.156  0.2685 -0.4913 -0.1821
 3272POPC   C2B39526   3.025  29.826  15.343  0.1854  0.2183 -0.1053
 3272POPC   C3B39527   2.764  30.096  15.626  0.0996 -0.2332 -0.1545
 3272POPC   C4B39528   2.400  30.240  15.860 -0.5105  0.0193 -0.1067
 3273POPC   NC339529   3.871  25.708  15.305  0.1139  0.1267 -0.2778
 3273POPC   PO439530   3.506  25.804  15.193 -0.0887  0.2317 -0.1673
 3273POPC   GL139531   3.467  25.580  15.533 -0.1893 -0.1318 -0.2002
 3273POPC   GL239532   3.595  25.409  15.687 -0.0767 -0.0398 -0.1266
 3273POPC   C1A39533   3.265  25.723  15.925 -0.1706 -0.0763  0.1762
 3273POPC   D2A39534   2.987  25.712  16.307  0.5225  0.0354 -0.2078
 3273POPC   C3A39535   3.000  25.953  16.700 -0.1420 -0.1787  0.0234
 3273POPC   C4A39536   3.323  26.180  16.950  0.1789 -0.0846 -0.0813
 3273POPC   C1B39537   3.705  25.455  16.163  0.1010  0.1830  0.0999
 3273POPC   C2B39538   3.938  25.454  16.573 -0.0124 -0.0954 -0.3580
 3273POPC   C3B39539   3.883  25.371  17.010  0.0064  0.0377  0.0209
 3273POPC   C4B39540   3.718  25.405  17.442 -0.0943 -0.0969 -0.1978
 3274POPC   NC339541  24.970  17.924  15.346  0.3348  0.1107  0.2062
 3274POPC   PO439542  24.712  18.241  15.247  0.0148  0.1805  0.1160
 3274POPC   GL139543  24.918  18.342  15.606  0.0435 -0.0830  0.1277
 3274POPC   GL239544  24.767  18.301  15.844 -0.3243 -0.1772  0.0047
 3274POPC   C1A39545  25.213  18.502  15.942 -0.0833 -0.2588 -0.2693
 3274POPC   D2A39546  25.565  18.751  15.935 -0.0103  0.1416  0.4227
 3274POPC   C3A39547  25.620  19.079  16.191 -0.0874 -0.3818  0.1398
 3274POPC   C4A39548  25.668  18.958  16.625 -0.0696 -0.1880  0.0523
 3274POPC   C1B39549  24.584  18.032  16.194 -0.0888 -0.2021 -0.1909
 3274POPC   C2B39550  24.525  18.034  16.651 -0.0604 -0.3283 -0.2061
 3274POPC   C3B39551  24.651  17.904  17.107 -0.0131  0.2440  0.1562
 3274POPC   C4B39552  24.583  17.778  17.576 -0.1423 -0.3345 -0.0499
 3275POPC   NC339553   3.642   8.051  15.390  0.2153  0.4332  0.0979
 3275POPC   PO439554   3.651   7.752  15.152 -0.1444  0.1145 -0.1725
 3275POPC   GL139555   3.565   7.544  15.460 -0.5241 -0.1951  0.2201
 3275POPC   GL239556   3.348   7.637  15.553  0.1816  0.1034 -0.0622
 3275POPC   C1A39557   3.786   7.724  15.783  0.3113  0.0027 -0.2142
 3275POPC   D2A39558   3.547   7.869  16.168 -0.3062 -0.1349  0.3236
 3275POPC   C3A39559   3.570   8.210  16.491  0.1158 -0.0322 -0.0201
 3275POPC   C4A39560   3.837   8.274  16.843  0.1324  0.0093 -0.0477
 3275POPC   C1B39561   3.184   7.989  15.835  0.3162 -0.0270 -0.1408
 3275POPC   C2B39562   3.100   8.134  16.227 -0.2237 -0.2013 -0.2871
 3275POPC   C3B39563   3.070   8.325  16.608  0.0044  0.0889 -0.1462
 3275POPC   C4B39564   2.946   8.318  17.029  0.0431 -0.2394 -0.1080
 3276POPC   NC339565   1.422  23.772  15.252  0.2263 -0.2190 -0.0161
 3276POPC   PO439566   1.417  24.157  15.198  0.0196  0.2535 -0.0571
 3276POPC   GL139567   1.288  24.092  15.612  0.0879 -0.3641  0.1739
 3276POPC   GL239568   0.979  24.301  15.608 -0.3206 -0.1051  0.1064
 3276POPC   C1A39569   1.303  24.212  16.014  0.0092 -0.0893  0.0651
 3276POPC   D2A39570   1.444  24.332  16.457 -0.0868  0.1016 -0.1211
 3276POPC   C3A39571   1.146  24.399  16.828 -0.1197 -0.0832 -0.2044
 3276POPC   C4A39572   0.927  24.679  17.157  0.2353  0.1372 -0.2598
 3276POPC   C1B39573   0.681  24.024  15.849 -0.2522  0.0710 -0.3541
 3276POPC   C2B39574   0.343  24.031  16.142 -0.0446 -0.0077  0.1774
 3276POPC   C3B39575  -0.062  24.262  16.134 -0.0900  0.3093 -0.0859
 3276POPC   C4B39576  -0.472  24.341  16.217 -0.0951  0.3242  0.2082
 3277POPC   NC339577  15.933   6.074  15.052  0.1762 -0.0713 -0.1439
 3277POPC   PO439578  15.700   6.225  15.363 -0.1298 -0.0106  0.3706
 3277POPC   GL139579  15.497   6.315  15.776  0.0008  0.1037  0.2176
 3277POPC   GL239580  15.693   6.475  15.836  0.0061  0.3318 -0.0443
 3277POPC   C1A39581  15.369   6.266  16.183  0.0232 -0.0362 -0.1254
 3277POPC   D2A39582  15.693   6.412  16.450  0.0131  0.1546  0.3414
 3277POPC   C3A39583  15.917   6.401  16.846 -0.0187 -0.3057 -0.1104
 3277POPC   C4A39584  16.396   6.225  16.850 -0.0448  0.1971  0.2211
 3277POPC   C1B39585  15.909   6.783  16.172 -0.0071 -0.4185  0.1295
 3277POPC   C2B39586  16.113   6.933  16.541 -0.0194 -0.0701  0.0064
 3277POPC   C3B39587  16.029   6.908  17.025  0.0547  0.1313  0.0769
 3277POPC   C4B39588  15.999   7.011  17.447  0.0560 -0.2290 -0.2450
 3278POPC   NC339589  18.216   3.430  15.209  0.2103  0.2029  0.1047
 3278POPC   PO439590  17.861   3.493  15.371 -0.1547 -0.0622 -0.3166
 3278POPC   GL139591  18.049   3.467  15.736 -0.6806 -0.1468 -0.0490
 3278POPC   GL239592  18.403   3.532  15.709 -0.0945  0.1795 -0.2046
 3278POPC   C1A39593  17.881   3.443  16.133  0.1241  0.2689 -0.0510
 3278POPC   D2A39594  17.828   3.127  16.439  0.1510 -0.2561 -0.0918
 3278POPC   C3A39595  17.907   3.412  16.786 -0.0794 -0.1401 -0.2023
 3278POPC   C4A39596  17.940   3.530  17.265  0.2476  0.0003  0.3262
 3278POPC   C1B39597  18.466   3.317  16.150 -0.1385 -0.1827  0.1355
 3278POPC   C2B39598  18.407   3.381  16.535  0.2447  0.0218 -0.1963
 3278POPC   C3B39599  18.719   3.420  16.914  0.2354 -0.0097  0.2620
 3278POPC   C4B39600  18.859   3.180  17.236 -0.0112 -0.0091  0.0705
 3279POPC   NC339601  16.655  19.296  15.677  0.2008 -0.0417 -0.0570
 3279POPC   PO439602  16.845  19.243  15.344  0.2275  0.2611 -0.2538
 3279POPC   GL139603  17.016  19.045  15.729 -0.2077 -0.0806  0.0564
 3279POPC   GL239604  16.811  18.839  15.680  0.4547 -0.1216 -0.2019
 3279POPC   C1A39605  16.965  19.006  16.223 -0.2357 -0.2717  0.1635
 3279POPC   D2A39606  17.044  18.829  16.641  0.0493  0.3378 -0.1707
 3279POPC   C3A39607  17.061  19.196  16.878  0.1644 -0.0249  0.1060
 3279POPC   C4A39608  16.921  19.426  17.179 -0.3419  0.2759  0.0650
 3279POPC   C1B39609  16.961  18.503  15.956  0.0618 -0.0879 -0.1716
 3279POPC   C2B39610  17.270  18.490  16.337 -0.0401  0.2568 -0.1038
 3279POPC   C3B39611  17.423  18.142  16.556  0.1558 -0.0196  0.1852
 3279POPC   C4B39612  17.479  17.788  16.765  0.0424  0.3323 -0.2856
 3280POPC   NC339613  30.382  13.249  15.040 -0.1911  0.0278  0.0496
 3280POPC   PO439614  30.525  13.535  15.264 -0.1064  0.1195  0.1669
 3280POPC   GL139615  30.435  13.513  15.653 -0.1033  0.1783 -0.1514
 3280POPC   GL239616  30.395  13.768  15.784 -0.3208  0.0481 -0.1612
 3280POPC   C1A39617  30.663  13.435  16.066  0.0691 -0.0225  0.1354
 3280POPC   D2A39618  30.690  13.525  16.475  0.4835 -0.3977 -0.1317
 3280POPC   C3A39619  30.373  13.407  16.781 -0.0559  0.4268 -0.0737
 3280POPC   C4A39620  29.915  13.378  16.930 -0.2313 -0.1876  0.4735
 3280POPC   C1B39621  30.536  13.931  16.185 -0.1255  0.1929 -0.2749
 3280POPC   C2B39622  30.569  13.997  16.685 -0.0758  0.1079  0.1328
 3280POPC   C3B39623  30.655  14.065  17.116 -0.0900  0.2201  0.1199
 3280POPC   C4B39624  30.678  14.049  17.577  0.2724  0.0872 -0.3476
 3281POPC   NC339625  23.287   3.046  15.111 -0.1970 -0.1028  0.0247
 3281POPC   PO439626  23.027   2.759  15.146 -0.0671 -0.2815  0.4659
 3281POPC   GL139627  22.911   2.420  15.278 -0.0826  0.1736  0.1276
 3281POPC   GL239628  22.810   2.331  15.034  0.0683  0.2382 -0.2334
 3281POPC   C1A39629  22.873   2.307  15.718  0.1630 -0.0684 -0.2483
 3281POPC   D2A39630  22.751   2.028  16.077 -0.1408 -0.0566  0.2326
 3281POPC   C3A39631  22.409   2.091  16.304 -0.3318  0.0663  0.1005
 3281POPC   C4A39632  22.242   1.873  16.610  0.2420  0.2736  0.0252
 3281POPC   C1B39633  22.535   2.212  15.399 -0.0044 -0.1815  0.0073
 3281POPC   C2B39634  22.342   2.043  15.811 -0.1813  0.0381 -0.0682
 3281POPC   C3B39635  22.010   1.897  16.096 -0.0719  0.0036 -0.1032
 3281POPC   C4B39636  21.642   1.684  15.848  0.0422  0.7267 -0.0023
 3282POPC   NC339637  19.488  10.912  15.321  0.1941 -0.0748  0.0667
 3282POPC   PO439638  19.138  10.742  15.132  0.1248  0.1636 -0.0420
 3282POPC   GL139639  19.073  10.612  15.519 -0.2501 -0.1164  0.0228
 3282POPC   GL239640  19.351  10.501  15.599 -0.0892 -0.2199  0.2923
 3282POPC   C1A39641  19.140  10.682  16.014  0.0399  0.1584  0.0143
 3282POPC   D2A39642  19.201  10.534  16.389  0.0602  0.1615 -0.0519
 3282POPC   C3A39643  18.845  10.258  16.576  0.2926  0.3409 -0.1246
 3282POPC   C4A39644  18.475  10.443  16.794 -0.0834  0.1052  0.1699
 3282POPC   C1B39645  19.570  10.478  16.024  0.1257  0.2034  0.4823
 3282POPC   C2B39646  19.652  10.387  16.475 -0.1998 -0.2403  0.1173
 3282POPC   C3B39647  19.545  10.580  16.838 -0.0639  0.1074  0.0983
 3282POPC   C4B39648  19.315  10.931  17.034  0.0689 -0.2262 -0.3722
 3283POPC   NC339649  13.362  24.339  14.989  0.0752 -0.2736 -0.0082
 3283POPC   PO439650  13.126  24.030  15.000  0.0612  0.0123  0.0468
 3283POPC   GL139651  13.263  24.156  15.407 -0.1844 -0.1674 -0.0667
 3283POPC   GL239652  13.001  24.263  15.461  0.0311 -0.6301  0.0273
 3283POPC   C1A39653  13.638  24.096  15.695  0.0615 -0.1981  0.2287
 3283POPC   D2A39654  13.899  24.137  16.064 -0.0428 -0.2317 -0.0907
 3283POPC   C3A39655  13.962  24.066  16.510  0.1213  0.1035 -0.3248
 3283POPC   C4A39656  14.152  24.337  16.847  0.0039  0.2042  0.1768
 3283POPC   C1B39657  13.161  23.991  15.844  0.1496 -0.1674 -0.0957
 3283POPC   C2B39658  13.426  24.028  16.215  0.2391  0.0429 -0.2367
 3283POPC   C3B39659  13.200  24.003  16.604 -0.2008  0.1200 -0.1633
 3283POPC   C4B39660  13.166  23.908  17.058 -0.0116 -0.1260  0.2197
 3284POPC   NC339661  15.118  27.069  15.450 -0.1190 -0.1390 -0.2703
 3284POPC   PO439662  15.455  27.158  15.588 -0.4028  0.0962  0.1256
 3284POPC   GL139663  15.715  26.938  15.859  0.2873  0.1588  0.5424
 3284POPC   GL239664  15.565  26.906  16.027 -0.1934 -0.0018 -0.0683
 3284POPC   C1A39665  15.730  26.468  15.992 -0.3049  0.0263  0.0440
 3284POPC   D2A39666  15.684  26.302  16.441  0.0080  0.2705  0.3908
 3284POPC   C3A39667  15.729  26.514  16.811  0.1524 -0.1332  0.1159
 3284POPC   C4A39668  15.698  26.699  17.285 -0.2644  0.0784  0.0609
 3284POPC   C1B39669  15.546  26.848  16.484  0.2794 -0.2229 -0.1784
 3284POPC   C2B39670  15.502  26.981  16.896 -0.3023  0.1583  0.0442
 3284POPC   C3B39671  15.537  27.255  17.261 -0.0711 -0.2168 -0.2582
 3284POPC   C4B39672  15.787  27.191  17.668 -0.0852 -0.1816  0.0912
 3285POPC   NC339673  22.493  12.925  15.082  0.1437  0.0599 -0.0627
 3285POPC   PO439674  22.854  12.817  15.263 -0.1676 -0.1145 -0.2149
 3285POPC   GL139675  22.824  12.884  15.579  0.3210  0.2089 -0.2385
 3285POPC   GL239676  22.951  12.592  15.683  0.2601 -0.0274  0.0603
 3285POPC   C1A39677  23.092  13.074  15.912 -0.1736 -0.3369 -0.1024
 3285POPC   D2A39678  23.157  13.340  16.295  0.2559 -0.0790 -0.0128
 3285POPC   C3A39679  23.266  13.169  16.740 -0.0157  0.2413  0.0710
 3285POPC   C4A39680  23.158  12.914  17.106 -0.4499  0.2312 -0.0623
 3285POPC   C1B39681  22.929  12.596  16.184  0.2528 -0.1201  0.0479
 3285POPC   C2B39682  23.134  12.569  16.614  0.0741  0.0834  0.3089
 3285POPC   C3B39683  23.131  12.413  17.097  0.0283  0.0112 -0.0140
 3285POPC   C4B39684  23.106  12.458  17.566 -0.1796 -0.0865 -0.1145
 3286POPC   NC339685   0.038   9.083  15.565 -0.1155  0.0167  0.1984
 3286POPC   PO439686   0.344   8.847  15.699  0.0398  0.1259 -0.0746
 3286POPC   GL139687   0.393   8.843  16.024  0.2282 -0.0896  0.0602
 3286POPC   GL239688   0.140   8.956  16.142 -0.1863 -0.0905 -0.0855
 3286POPC   C1A39689   0.479   8.562  16.359  0.0225 -0.0420 -0.2341
 3286POPC   D2A39690   0.205   8.320  16.705  0.5353  0.1488  0.0201
 3286POPC   C3A39691  -0.253   8.149  16.545  0.0797  0.0971 -0.1806
 3286POPC   C4A39692  -0.616   7.937  16.770 -0.1798 -0.2307 -0.3346
 3286POPC   C1B39693   0.134   8.823  16.602 -0.1429 -0.0228  0.0914
 3286POPC   C2B39694   0.106   8.664  17.071 -0.2794 -0.2623  0.0248
 3286POPC   C3B39695   0.255   8.263  17.241 -0.1361 -0.2168  0.0003
 3286POPC   C4B39696   0.557   7.913  17.069 -0.2067 -0.3689 -0.1947
 3287POPC   NC339697  10.082   5.430  15.305 -0.1347 -0.2040  0.1814
 3287POPC   PO439698  10.232   5.084  15.165  0.1265 -0.4135  0.0703
 3287POPC   GL139699  10.078   4.950  15.503 -0.0327 -0.4136  0.2959
 3287POPC   GL239700  10.362   4.895  15.650  0.1489 -0.1330  0.3075
 3287POPC   C1A39701   9.884   5.025  15.901  0.1242 -0.0708 -0.1666
 3287POPC   D2A39702   9.903   5.030  16.422 -0.2980  0.0665  0.0470
 3287POPC   C3A39703  10.226   5.323  16.568 -0.3877 -0.0540 -0.0910
 3287POPC   C4A39704  10.161   5.492  16.999 -0.1609  0.2868 -0.0312
 3287POPC   C1B39705  10.384   4.576  15.958 -0.0908 -0.2211  0.0632
 3287POPC   C2B39706  10.368   4.367  16.331 -0.0679 -0.0203  0.0695
 3287POPC   C3B39707  10.430   4.284  16.745 -0.2109 -0.0525 -0.4573
 3287POPC   C4B39708  10.248   3.909  16.892  0.0777 -0.0608  0.2323
 3288POPC   NC339709  12.988  29.039  15.059  0.0533 -0.0467  0.2832
 3288POPC   PO439710  12.922  29.410  14.945 -0.1019 -0.2241 -0.3561
 3288POPC   GL139711  12.850  29.366  15.331 -0.2172 -0.0056 -0.0819
 3288POPC   GL239712  13.119  29.386  15.431  0.0596 -0.2265  0.2315
 3288POPC   C1A39713  12.634  29.253  15.689  0.2683 -0.0822  0.0307
 3288POPC   D2A39714  12.628  28.931  15.988 -0.3179  0.1080  0.2560
 3288POPC   C3A39715  12.757  29.280  16.282  0.0406 -0.0209 -0.2419
 3288POPC   C4A39716  12.905  29.452  16.711  0.1691 -0.0191  0.0747
 3288POPC   C1B39717  13.022  29.440  15.859  0.2482 -0.2949  0.0187
 3288POPC   C2B39718  13.206  29.384  16.242  0.0241 -0.2366 -0.0477
 3288POPC   C3B39719  13.514  29.343  16.603  0.1543  0.1642  0.0912
 3288POPC   C4B39720  13.636  29.302  16.991  0.0196  0.1496  0.2091
 3289POPC   NC339721  18.547  31.359  14.744 -0.1208 -0.0028  0.3196
 3289POPC   PO439722  18.488  31.151  15.108 -0.0930 -0.0395  0.2544
 3289POPC   GL139723  18.570  31.084  15.558 -0.0897 -0.1952  0.3392
 3289POPC   GL239724  18.759  30.909  15.659  0.0730  0.1765  0.0990
 3289POPC   C1A39725  18.651  31.176  16.032 -0.1783 -0.0188 -0.1022
 3289POPC   D2A39726  18.350  30.999  16.366  0.1010  0.1242 -0.0489
 3289POPC   C3A39727  18.436  30.843  16.805 -0.1638  0.0585 -0.2117
 3289POPC   C4A39728  18.369  30.487  17.060  0.0636 -0.2866 -0.0562
 3289POPC   C1B39729  19.116  30.972  15.985  0.0861  0.3497 -0.0077
 3289POPC   C2B39730  19.261  30.980  16.364  0.0094  0.1581 -0.3011
 3289POPC   C3B39731  19.636  30.930  16.592  0.0679 -0.1361 -0.1051
 3289POPC   C4B39732  19.906  31.276  16.777  0.1745 -0.2055  0.0857
 3290POPC   NC339733   1.887   3.799  15.073  0.1220  0.1159  0.2132
 3290POPC   PO439734   2.074   4.151  15.032  0.2436 -0.3565  0.0862
 3290POPC   GL139735   2.261   4.108  15.396  0.2126 -0.1090  0.2514
 3290POPC   GL239736   2.201   3.748  15.468  0.0016  0.3289  0.4170
 3290POPC   C1A39737   2.235   4.083  15.864  0.2155 -0.1479 -0.0477
 3290POPC   D2A39738   1.981   4.226  16.240  0.0315 -0.1862  0.0078
 3290POPC   C3A39739   1.607   3.926  16.351 -0.0236  0.2001 -0.1319
 3290POPC   C4A39740   1.200   4.073  16.496 -0.1579 -0.1154 -0.0592
 3290POPC   C1B39741   2.163   3.525  15.856  0.1080 -0.1387  0.0404
 3290POPC   C2B39742   2.170   3.558  16.353 -0.3224  0.0834 -0.1833
 3290POPC   C3B39743   2.227   3.818  16.791  0.1650 -0.0313 -0.2185
 3290POPC   C4B39744   2.204   4.016  17.196 -0.1121  0.2717 -0.1838
 3291POPC   NC339745  25.633  12.099  15.296 -0.0226  0.2073  0.1726
 3291POPC   PO439746  25.318  11.998  15.083  0.0823 -0.1744 -0.1139
 3291POPC   GL139747  25.252  11.717  15.377 -0.2617  0.0238  0.2759
 3291POPC   GL239748  25.473  11.539  15.334 -0.2130 -0.2337  0.2498
 3291POPC   C1A39749  25.178  11.352  15.662  0.0539 -0.2481  0.0215
 3291POPC   D2A39750  25.560  11.160  15.881 -0.0213  0.1943 -0.1701
 3291POPC   C3A39751  25.749  11.446  16.096 -0.0936  0.1966  0.0608
 3291POPC   C4A39752  25.846  11.351  16.553 -0.1374 -0.0086  0.0672
 3291POPC   C1B39753  25.893  11.422  15.511 -0.1480 -0.2030 -0.2451
 3291POPC   C2B39754  26.220  11.552  15.789 -0.0207  0.0181 -0.1835
 3291POPC   C3B39755  26.651  11.594  15.657  0.0528 -0.1957 -0.0752
 3291POPC   C4B39756  27.112  11.714  15.543  0.0259 -0.1573 -0.1641
 3292POPC   NC339757   1.236  10.313  15.374  0.1157  0.3680 -0.0435
 3292POPC   PO439758   1.185  10.630  15.176 -0.2837 -0.2585 -0.0066
 3292POPC   GL139759   1.370  10.670  15.644  0.0239  0.2603 -0.0725
 3292POPC   GL239760   1.646  10.854  15.737 -0.1829  0.4759 -0.1172
 3292POPC   C1A39761   1.177  10.953  16.046 -0.2877  0.3600  0.1654
 3292POPC   D2A39762   1.285  11.274  16.328  0.0846 -0.4144  0.4119
 3292POPC   C3A39763   1.286  11.331  16.785 -0.0380 -0.1267  0.0576
 3292POPC   C4A39764   1.208  11.268  17.242  0.0704  0.2502 -0.3101
 3292POPC   C1B39765   1.584  10.695  16.173 -0.1392 -0.0532 -0.3205
 3292POPC   C2B39766   1.393  10.817  16.621 -0.0475 -0.2145  0.2657
 3292POPC   C3B39767   1.500  10.874  17.108  0.1764  0.0814 -0.1606
 3292POPC   C4B39768   1.765  10.905  17.514  0.0127 -0.2438  0.0177
 3293POPC   NC339769  19.878  10.812  14.901 -0.0343  0.0977  0.1395
 3293POPC   PO439770  20.012  11.038  15.182  0.1241 -0.2001 -0.0383
 3293POPC   GL139771  19.935  10.888  15.545  0.2694 -0.0956  0.1163
 3293POPC   GL239772  19.891  10.564  15.493  0.1538 -0.0057  0.0147
 3293POPC   C1A39773  19.610  10.934  15.880  0.0067 -0.2576  0.0260
 3293POPC   D2A39774  19.370  11.170  16.184  0.2825  0.1575 -0.1679
 3293POPC   C3A39775  19.506  11.009  16.602  0.0807 -0.0548 -0.3930
 3293POPC   C4A39776  19.844  11.110  16.980  0.0317 -0.2717  0.0458
 3293POPC   C1B39777  19.998  10.577  15.913  0.0018 -0.1954 -0.0120
 3293POPC   C2B39778  19.850  10.782  16.309 -0.0115  0.0054 -0.2510
 3293POPC   C3B39779  20.070  10.822  16.655 -0.1451 -0.0926 -0.0382
 3293POPC   C4B39780  20.077  10.725  17.133 -0.1035 -0.1227 -0.1127
 3294POPC   NC339781  14.208  29.049  15.446 -0.2152 -0.3948 -0.1433
 3294POPC   PO439782  14.416  29.380  15.433 -0.0292  0.2691  0.0603
 3294POPC   GL139783  14.468  29.795  15.263 -0.1800  0.3759  0.1511
 3294POPC   GL239784  14.658  29.843  15.461  0.1875 -0.2185 -0.0755
 3294POPC   C1A39785  14.311  30.198  15.377 -0.0312 -0.0867  0.1520
 3294POPC   D2A39786  14.060  30.362  15.756 -0.0172 -0.2980 -0.2709
 3294POPC   C3A39787  13.660  30.596  15.903  0.0952 -0.0562 -0.1507
 3294POPC   C4A39788  13.446  30.872  16.178 -0.0432  0.1529 -0.0600
 3294POPC   C1B39789  14.592  29.817  15.916 -0.0817 -0.1068 -0.0239
 3294POPC   C2B39790  14.740  29.725  16.323  0.0051  0.1054 -0.2339
 3294POPC   C3B39791  14.776  30.081  16.607  0.0648 -0.1940  0.2465
 3294POPC   C4B39792  14.705  30.425  16.912  0.1038 -0.1775  0.1007
 3295POPC   NC339793   2.733   3.432  15.330 -0.2721  0.0397 -0.0151
 3295POPC   PO439794   2.730   3.768  15.459 -0.3827 -0.0214  0.4044
 3295POPC   GL139795   2.843   3.522  15.817  0.0246 -0.1848 -0.1277
 3295POPC   GL239796   2.644   3.574  15.997  0.1760 -0.1637 -0.0223
 3295POPC   C1A39797   3.136   3.745  16.113  0.1279  0.0736 -0.2040
 3295POPC   D2A39798   3.048   3.896  16.559 -0.1272  0.3298 -0.0616
 3295POPC   C3A39799   2.969   3.621  16.968 -0.2588 -0.1827  0.2725
 3295POPC   C4A39800   2.922   3.177  17.177 -0.1160  0.3337  0.1323
 3295POPC   C1B39801   2.675   3.470  16.462  0.2292  0.1456  0.1160
 3295POPC   C2B39802   2.518   3.438  16.872 -0.3395 -0.0631 -0.0331
 3295POPC   C3B39803   2.302   3.484  17.243  0.3763  0.1528 -0.1596
 3295POPC   C4B39804   1.923   3.580  17.379 -0.2122  0.1235 -0.2798
 3296POPC   NC339805  24.692  13.403  15.306  0.1508 -0.2310 -0.0840
 3296POPC   PO439806  24.754  13.033  15.189 -0.1367  0.0493 -0.0094
 3296POPC   GL139807  24.898  13.003  15.563 -0.3144  0.1535 -0.3938
 3296POPC   GL239808  24.847  12.741  15.634 -0.0487  0.0903 -0.0631
 3296POPC   C1A39809  25.095  13.155  15.981  0.1149 -0.2244 -0.1373
 3296POPC   D2A39810  25.132  13.542  16.233 -0.0474  0.0592  0.2006
 3296POPC   C3A39811  25.547  13.718  16.396 -0.1534  0.1147  0.1024
 3296POPC   C4A39812  25.890  13.836  16.679  0.2378  0.2283  0.1058
 3296POPC   C1B39813  25.042  12.476  15.961  0.3208  0.0903  0.1459
 3296POPC   C2B39814  25.087  12.469  16.456 -0.1766 -0.1429 -0.0226
 3296POPC   C3B39815  25.063  12.695  16.897  0.2356  0.4399 -0.1683
 3296POPC   C4B39816  25.176  12.622  17.343  0.2144 -0.0514  0.0220
 3297POPC   NC339817  19.367  19.124  15.689  0.2522 -0.0564 -0.0862
 3297POPC   PO439818  19.458  18.763  15.635  0.0664 -0.0154  0.0477
 3297POPC   GL139819  19.288  18.845  16.125  0.3325  0.2510 -0.3759
 3297POPC   GL239820  19.362  18.590  16.248  0.5730  0.1341 -0.0153
 3297POPC   C1A39821  19.001  18.940  16.460  0.2444 -0.1858  0.1232
 3297POPC   D2A39822  19.047  18.856  16.912 -0.0119  0.2272 -0.0437
 3297POPC   C3A39823  18.673  18.667  17.147  0.2058 -0.0400  0.3039
 3297POPC   C4A39824  18.355  18.534  17.486 -0.3871  0.1905 -0.1901
 3297POPC   C1B39825  19.484  18.579  16.690  0.1713 -0.0549  0.0498
 3297POPC   C2B39826  19.673  18.777  17.094  0.0261 -0.2565  0.0941
 3297POPC   C3B39827  19.700  18.739  17.532 -0.0706  0.0074 -0.0103
 3297POPC   C4B39828  19.605  19.063  17.856  0.0799 -0.0601  0.0685
 3298POPC   NC339829  10.789  17.329  15.149  0.0526 -0.1310  0.0140
 3298POPC   PO439830  10.902  17.699  15.078 -0.2288  0.1305 -0.1377
 3298POPC   GL139831  11.236  17.629  15.316  0.0021 -0.2645 -0.1338
 3298POPC   GL239832  11.161  17.408  15.483 -0.1040 -0.1226  0.0291
 3298POPC   C1A39833  11.611  17.380  15.194  0.0649 -0.0084  0.1622
 3298POPC   D2A39834  12.016  17.153  15.028  0.3852 -0.1271  0.3056
 3298POPC   C3A39835  12.402  17.105  15.290  0.1437 -0.1232 -0.1025
 3298POPC   C4A39836  12.734  17.139  15.585 -0.0848  0.0673  0.2684
 3298POPC   C1B39837  11.551  17.475  15.699 -0.0565  0.0078  0.0534
 3298POPC   C2B39838  11.924  17.497  15.972 -0.0459  0.1634 -0.2389
 3298POPC   C3B39839  11.981  17.489  16.437 -0.2726  0.0865 -0.1270
 3298POPC   C4B39840  12.303  17.493  16.783 -0.0063 -0.0373 -0.0410
 3299POPC   NC339841   5.337  13.615  14.784 -0.3042 -0.1710  0.2827
 3299POPC   PO439842   5.338  13.294  15.030  0.0846 -0.0298 -0.2421
 3299POPC   GL139843   5.529  13.279  15.335  0.3446  0.3676 -0.2102
 3299POPC   GL239844   5.464  13.006  15.460 -0.3042  0.0564 -0.1592
 3299POPC   C1A39845   5.326  13.446  15.751  0.2520  0.1484 -0.0244
 3299POPC   D2A39846   5.233  13.291  16.179  0.1575 -0.0275  0.0776
 3299POPC   C3A39847   5.539  13.341  16.500 -0.0863 -0.0639  0.0928
 3299POPC   C4A39848   5.497  13.414  16.902 -0.4063 -0.2094 -0.1267
 3299POPC   C1B39849   5.179  12.786  15.790 -0.2106  0.3313  0.2107
 3299POPC   C2B39850   5.300  12.833  16.171 -0.1748  0.0225  0.1741
 3299POPC   C3B39851   5.407  12.824  16.572  0.0350 -0.1043  0.2586
 3299POPC   C4B39852   5.809  13.014  16.777 -0.0543 -0.0558  0.1680
 3300POPC   NC339853   1.049   4.983  15.867  0.0361  0.1495  0.0613
 3300POPC   PO439854   0.841   5.206  15.603 -0.2550 -0.3802  0.0473
 3300POPC   GL139855   0.769   5.357  15.938  0.0990 -0.0109  0.0297
 3300POPC   GL239856   0.969   5.514  16.014  0.4305 -0.2329  0.0191
 3300POPC   C1A39857   0.359   5.453  16.133  0.2752  0.0947  0.0880
 3300POPC   D2A39858   0.094   5.311  16.497  0.0242  0.1043 -0.0791
 3300POPC   C3A39859  -0.237   5.486  16.782  0.0628  0.0186 -0.0955
 3300POPC   C4A39860  -0.508   5.364  17.181  0.0112  0.1003 -0.0027
 3300POPC   C1B39861   0.963   5.246  16.400 -0.1024 -0.4153 -0.2269
 3300POPC   C2B39862   0.849   4.957  16.771  0.0511 -0.6494  0.3217
 3300POPC   C3B39863   0.943   5.014  17.211  0.1788 -0.2938 -0.4306
 3300POPC   C4B39864   1.060   5.357  17.581  0.4172  0.4411  0.2169
 3301POPC   NC339865   1.318  24.660  15.490  0.0024  0.2100  0.0844
 3301POPC   PO439866   1.159  24.621  15.163  0.0738  0.1816 -0.2720
 3301POPC   GL139867   0.696  24.717  15.225  0.2635  0.0710  0.0671
 3301POPC   GL239868   0.778  24.779  15.447  0.0214 -0.1126 -0.4120
 3301POPC   C1A39869   0.247  24.726  15.265  0.1018 -0.0603  0.1227
 3301POPC   D2A39870   0.004  24.513  15.558 -0.0052  0.1377  0.2429
 3301POPC   C3A39871   0.035  24.053  15.588  0.0878  0.2284  0.2056
 3301POPC   C4A39872   0.084  23.592  15.367 -0.0922 -0.1057  0.0918
 3301POPC   C1B39873   0.533  24.646  15.879 -0.0975 -0.0935  0.1899
 3301POPC   C2B39874   0.393  24.501  16.254  0.2439 -0.0193  0.0304
 3301POPC   C3B39875   0.157  24.358  16.634 -0.0028  0.1153  0.2439
 3301POPC   C4B39876  -0.254  24.188  16.613  0.0440  0.0629 -0.3137
 3302POPC   NC339877  22.407   8.335  15.493 -0.0972  0.0947  0.2569
 3302POPC   PO439878  22.274   7.974  15.530 -0.0546  0.0839  0.1422
 3302POPC   GL139879  22.363   7.682  15.695  0.0625 -0.2985 -0.1453
 3302POPC   GL239880  22.589   7.649  15.801  0.1907  0.1705 -0.1557
 3302POPC   C1A39881  22.226   7.446  16.061  0.2403 -0.3892 -0.3406
 3302POPC   D2A39882  22.444   7.368  16.399 -0.0409 -0.1180  0.2438
 3302POPC   C3A39883  22.471   7.142  16.766 -0.0800 -0.1474 -0.0734
 3302POPC   C4A39884  22.612   6.752  16.983  0.0395  0.3297 -0.1280
 3302POPC   C1B39885  22.830   7.699  16.223  0.1309  0.0764 -0.1680
 3302POPC   C2B39886  23.298   7.570  16.300 -0.1614 -0.0814 -0.0993
 3302POPC   C3B39887  23.481   7.553  16.719 -0.0709  0.2109  0.3093
 3302POPC   C4B39888  23.787   7.535  17.018  0.0043 -0.1675  0.0468
 3303POPC   NC339889  19.070  29.709  14.866  0.2252  0.2607  0.0851
 3303POPC   PO439890  18.880  29.942  15.105 -0.0617  0.1887 -0.4876
 3303POPC   GL139891  18.725  30.027  15.547  0.2001  0.0266  0.0635
 3303POPC   GL239892  18.823  30.279  15.646 -0.0992  0.1310 -0.0602
 3303POPC   C1A39893  18.713  29.995  16.012  0.1562 -0.3544  0.0598
 3303POPC   D2A39894  19.025  30.206  16.312 -0.2429  0.2251  0.2496
 3303POPC   C3A39895  19.166  30.108  16.795 -0.3482  0.1646  0.1580
 3303POPC   C4A39896  19.283  30.051  17.255 -0.1813  0.0906  0.2035
 3303POPC   C1B39897  18.796  30.581  16.026 -0.0749 -0.0714  0.0254
 3303POPC   C2B39898  18.826  30.744  16.463 -0.0410  0.2012  0.2325
 3303POPC   C3B39899  18.846  30.578  16.903 -0.2006 -0.1821 -0.1225
 3303POPC   C4B39900  18.759  30.747  17.353  0.0690 -0.0218  0.0427
 3304POPC   NC339901  17.813  14.947  14.589  0.1875  0.1252 -0.1870
 3304POPC   PO439902  18.102  14.823  14.792  0.3082 -0.2518 -0.0258
 3304POPC   GL139903  18.376  14.767  15.154  0.0708 -0.0517  0.2567
 3304POPC   GL239904  18.455  15.003  15.231 -0.3086  0.2089 -0.0781
 3304POPC   C1A39905  18.826  14.563  15.275  0.0927  0.0516  0.2371
 3304POPC   D2A39906  19.257  14.674  15.078 -0.1961  0.0555  0.0321
 3304POPC   C3A39907  19.361  15.099  14.965  0.1673  0.1266 -0.0894
 3304POPC   C4A39908  19.688  15.337  14.705  0.2526 -0.0706  0.4516
 3304POPC   C1B39909  18.533  14.730  15.635 -0.1571  0.0898  0.2115
 3304POPC   C2B39910  18.809  14.764  16.055 -0.2322  0.1151 -0.0730
 3304POPC   C3B39911  19.061  14.951  16.452  0.1305  0.0567  0.4124
 3304POPC   C4B39912  19.441  15.216  16.572  0.0218  0.0668 -0.1718
 3305POPC   NC339913  15.163  13.549  15.227 -0.1658 -0.0308 -0.0610
 3305POPC   PO439914  14.890  13.808  15.323  0.0181  0.5449 -0.0700
 3305POPC   GL139915  14.902  13.907  15.691 -0.3098 -0.4026  0.0621
 3305POPC   GL239916  15.160  13.806  15.860  0.1044  0.0784 -0.0210
 3305POPC   C1A39917  14.558  14.138  15.807 -0.0818  0.0095  0.0316
 3305POPC   D2A39918  14.293  14.368  16.060 -0.3050  0.0676  0.2242
 3305POPC   C3A39919  14.289  14.542  16.470  0.0454 -0.2244  0.0300
 3305POPC   C4A39920  14.337  14.737  16.851  0.1341  0.0809 -0.2246
 3305POPC   C1B39921  15.468  13.664  16.219 -0.3276 -0.1855 -0.2953
 3305POPC   C2B39922  15.562  13.753  16.667  0.0537 -0.1999  0.2490
 3305POPC   C3B39923  15.687  13.426  16.973 -0.1024  0.0514 -0.0129
 3305POPC   C4B39924  15.774  13.393  17.457  0.3358  0.0149  0.2263
 3306POPC   NC339925  27.035  13.389  15.119  0.1427 -0.1748  0.3071
 3306POPC   PO439926  27.131  13.748  14.979 -0.1307  0.0855 -0.1815
 3306POPC   GL139927  27.157  13.887  15.343 -0.2324  0.1714  0.0455
 3306POPC   GL239928  27.373  13.894  15.493  0.0161  0.5098  0.0637
 3306POPC   C1A39929  27.078  14.187  15.705  0.0151 -0.0911  0.1337
 3306POPC   D2A39930  26.955  14.486  15.935 -0.0258 -0.1343 -0.2287
 3306POPC   C3A39931  26.939  14.475  16.368  0.1405  0.1206 -0.1271
 3306POPC   C4A39932  26.891  14.343  16.806  0.1684 -0.0702 -0.2388
 3306POPC   C1B39933  27.421  13.807  15.934 -0.2389  0.0907  0.4061
 3306POPC   C2B39934  27.377  13.631  16.404 -0.1101  0.0305  0.1570
 3306POPC   C3B39935  27.316  13.559  16.844 -0.3537  0.1493  0.0473
 3306POPC   C4B39936  27.127  13.585  17.239  0.1558 -0.1744 -0.1559
 3307POPS   CNO39937  16.892   3.337  15.181 -0.0155  0.1568 -0.1154
 3307POPS   PO439938  16.540   3.304  15.154  0.1166  0.2266  0.1134
 3307POPS   GL139939  16.597   2.943  15.339  0.3154  0.2731 -0.2983
 3307POPS   GL239940  16.548   3.057  15.610  0.2665 -0.0072 -0.3071
 3307POPS   C1A39941  16.781   2.662  15.690 -0.0360  0.0107 -0.2942
 3307POPS   D2A39942  16.835   2.900  16.032 -0.1873 -0.1228  0.1886
 3307POPS   C3A39943  16.841   2.671  16.455  0.1098  0.1277  0.0817
 3307POPS   C4A39944  16.655   2.492  16.829 -0.1739 -0.0195 -0.0166
 3307POPS   C1B39945  16.614   3.320  15.998  0.1815 -0.2646 -0.1539
 3307POPS   C2B39946  16.911   3.246  16.363 -0.1215 -0.1105  0.0991
 3307POPS   C3B39947  17.005   3.212  16.825 -0.0623  0.3320  0.0169
 3307POPS   C4B39948  16.709   3.107  17.155 -0.3102  0.0379  0.0583
 3308POPS   CNO39949  18.531  11.270  15.032 -0.1840  0.0829 -0.4128
 3308POPS   PO439950  18.795  11.498  15.179  0.0845 -0.1157  0.1615
 3308POPS   GL139951  18.762  11.462  15.717  0.0287  0.0615 -0.0250
 3308POPS   GL239952  18.665  11.648  16.017  0.2240 -0.2084 -0.2382
 3308POPS   C1A39953  19.182  11.579  15.918  0.1133 -0.3327 -0.1641
 3308POPS   D2A39954  19.579  11.719  16.018  0.4008  0.2980  0.2214
 3308POPS   C3A39955  19.845  11.725  16.356 -0.2049  0.0974 -0.4363
 3308POPS   C4A39956  20.003  11.916  16.731 -0.1224 -0.1809 -0.0119
 3308POPS   C1B39957  18.661  11.668  16.435 -0.0053 -0.0140 -0.1446
 3308POPS   C2B39958  18.928  11.793  16.743 -0.1178  0.2270  0.1438
 3308POPS   C3B39959  19.251  11.746  17.036  0.2509  0.3574  0.1230
 3308POPS   C4B39960  19.427  11.383  17.249 -0.2457  0.1457  0.1786
 3309POPS   CNO39961   6.533   9.109  14.921 -0.1750 -0.1982 -0.0817
 3309POPS   PO439962   6.869   8.946  14.840  0.2186  0.3156 -0.0067
 3309POPS   GL139963   6.885   9.005  15.257  0.1631  0.0114  0.1201
 3309POPS   GL239964   6.813   9.280  15.362 -0.1711 -0.1190  0.3334
 3309POPS   C1A39965   6.528   8.898  15.489  0.1263 -0.2853  0.1096
 3309POPS   D2A39966   6.177   8.710  15.718  0.1848 -0.1581 -0.0709
 3309POPS   C3A39967   5.922   8.728  16.111  0.0881 -0.0735 -0.0966
 3309POPS   C4A39968   5.709   9.027  16.363 -0.1917 -0.2140  0.1914
 3309POPS   C1B39969   7.030   9.216  15.767  0.2063 -0.3180  0.0535
 3309POPS   C2B39970   7.208   9.224  16.186  0.0189  0.1674 -0.2676
 3309POPS   C3B39971   7.483   9.468  16.394 -0.0647  0.0207 -0.0109
 3309POPS   C4B39972   7.834   9.690  16.628 -0.1178  0.1771 -0.0917
 3310POPS   CNO39973   5.393  15.617  14.946 -0.1093  0.1404  0.1716
 3310POPS   PO439974   5.391  15.693  15.317  0.0917  0.2366  0.3128
 3310POPS   GL139975   5.264  15.635  15.683 -0.0693  0.1384  0.1289
 3310POPS   GL239976   5.369  15.842  15.888  0.0325 -0.1401  0.0975
 3310POPS   C1A39977   4.864  15.734  15.903 -0.3611  0.2372 -0.0762
 3310POPS   D2A39978   4.546  15.927  16.128 -0.0381 -0.3898 -0.0646
 3310POPS   C3A39979   4.509  16.274  16.502  0.0736  0.1733 -0.1509
 3310POPS   C4A39980   4.514  16.173  16.954 -0.0525 -0.1853  0.0163
 3310POPS   C1B39981   5.190  15.705  16.314  0.1088 -0.0872  0.0551
 3310POPS   C2B39982   5.287  15.884  16.757 -0.1025 -0.1058 -0.0718
 3310POPS   C3B39983   5.440  16.230  17.089  0.0119 -0.2024  0.0201
 3310POPS   C4B39984   5.739  16.532  17.277  0.0687  0.0754 -0.2042
 3311POPS   CNO39985  23.027   4.403  14.416  0.0649  0.1083 -0.1485
 3311POPS   PO439986  23.055   4.478  14.817 -0.0706 -0.0356  0.1038
 3311POPS   GL139987  23.071   4.310  15.183  0.0253  0.2977  0.1045
 3311POPS   GL239988  23.279   4.089  15.239 -0.3784 -0.3921  0.0988
 3311POPS   C1A39989  22.798   4.048  15.461  0.0182 -0.0703 -0.3127
 3311POPS   D2A39990  22.627   3.919  15.903  0.0951 -0.0513  0.0408
 3311POPS   C3A39991  22.754   3.957  16.397  0.0872  0.0315 -0.2895
 3311POPS   C4A39992  22.693   3.997  16.799 -0.0477 -0.1837  0.0694
 3311POPS   C1B39993  23.267   4.116  15.710 -0.0132 -0.0183  0.0194
 3311POPS   C2B39994  23.175   4.147  16.203  0.1412  0.0474 -0.1037
 3311POPS   C3B39995  23.227   4.104  16.612 -0.0361 -0.0402 -0.0368
 3311POPS   C4B39996  23.244   4.230  17.035 -0.0800 -0.3294  0.0038
 3312POPS   CNO39997  30.983  28.046  15.042  0.0492 -0.1789 -0.0303
 3312POPS   PO439998  30.916  28.169  15.393 -0.3598  0.1142  0.1022
 3312POPS   GL139999  30.987  28.285  15.787  0.0311 -0.3747 -0.0166
 3312POPS   GL240000  31.116  28.156  15.966  0.2965 -0.3362 -0.2164
 3312POPS   C1A40001  30.602  28.363  16.036 -0.2275  0.0908 -0.1793
 3312POPS   D2A40002  30.357  28.268  16.426 -0.0845  0.2085  0.0282
 3312POPS   C3A40003  30.415  28.245  16.889 -0.0213 -0.1319 -0.1743
 3312POPS   C4A40004  30.635  28.454  17.244  0.1261  0.0845 -0.2998
 3312POPS   C1B40005  30.858  28.024  16.305  0.0164  0.3807  0.3403
 3312POPS   C2B40006  30.740  27.945  16.694 -0.0590  0.2329  0.2466
 3312POPS   C3B40007  30.748  27.892  17.139  0.2634 -0.2170  0.0052
 3312POPS   C4B40008  30.976  27.656  17.484 -0.0216  0.0824  0.4128
 3313POPS   CNO40009  22.866   2.600  14.623  0.1846  0.3355 -0.0649
 3313POPS   PO440010  22.566   2.802  14.675  0.4619  0.3213 -0.0774
 3313POPS   GL140011  22.425   2.738  15.091  0.2236  0.0887  0.0887
 3313POPS   GL240012  22.550   2.732  15.344 -0.0930 -0.0989  0.2876
 3313POPS   C1A40013  22.042   2.478  15.250  0.1176 -0.2917  0.1442
 3313POPS   D2A40014  21.714   2.627  15.523  0.1938  0.0798 -0.0112
 3313POPS   C3A40015  21.428   2.628  15.885 -0.2264  0.1088 -0.0602
 3313POPS   C4A40016  21.450   2.454  16.327 -0.2664 -0.1078  0.0025
 3313POPS   C1B40017  22.255   2.626  15.687  0.3676  0.0771 -0.3893
 3313POPS   C2B40018  22.027   2.481  16.077  0.2045 -0.0049 -0.0955
 3313POPS   C3B40019  21.877   2.445  16.553  0.0096 -0.0733 -0.2634
 3313POPS   C4B40020  21.593   2.505  16.910 -0.0869 -0.1606 -0.1516
 3314POPS   CNO40021   3.150  10.283  14.762  0.1584 -0.1544 -0.3101
 3314POPS   PO440022   2.984  10.278  15.090 -0.0948 -0.0431 -0.1960
 3314POPS   GL140023   3.329  10.356  15.306  0.0458 -0.2902  0.1564
 3314POPS   GL240024   3.196  10.518  15.490  0.2314  0.0329  0.0776
 3314POPS   C1A40025   3.393  10.077  15.647  0.1496  0.2392  0.0380
 3314POPS   D2A40026   3.085  10.023  16.014 -0.1522 -0.3176 -0.3023
 3314POPS   C3A40027   3.218  10.134  16.446 -0.0605  0.0343 -0.0190
 3314POPS   C4A40028   3.463  10.355  16.812 -0.0825  0.3704 -0.1394
 3314POPS   C1B40029   3.203  10.479  15.926 -0.0900 -0.1457 -0.1668
 3314POPS   C2B40030   3.479  10.535  16.347 -0.0123  0.3217  0.2689
 3314POPS   C3B40031   3.526  10.805  16.710  0.1283 -0.1790  0.2991
 3314POPS   C4B40032   3.344  11.115  16.959  0.0899 -0.0369 -0.1919
 3315POPS   CNO40033  16.662   8.498  14.900  0.0794  0.2904  0.2719
 3315POPS   PO440034  16.686   8.691  15.264 -0.0511  0.0345 -0.0904
 3315POPS   GL140035  16.765   8.714  15.590  0.1930 -0.0401 -0.3506
 3315POPS   GL240036  16.604   8.546  15.763  0.2606 -0.0143  0.1304
 3315POPS   C1A40037  16.898   9.101  15.831 -0.0022  0.2135 -0.2428
 3315POPS   D2A40038  17.125   9.213  16.211  0.4709  0.0318 -0.1203
 3315POPS   C3A40039  16.960   9.450  16.557  0.3409  0.4225 -0.0124
 3315POPS   C4A40040  17.023   9.833  16.734  0.2059 -0.3034 -0.3685
 3315POPS   C1B40041  16.728   8.787  16.155  0.1049  0.3848 -0.2375
 3315POPS   C2B40042  16.757   8.920  16.623  0.3268 -0.0023 -0.0189
 3315POPS   C3B40043  16.895   9.176  17.023 -0.2121 -0.1617  0.3014
 3315POPS   C4B40044  17.208   9.517  17.079 -0.1276  0.0035  0.2490
 3316POPS   CNO40045   8.588  22.841  15.120 -0.1326 -0.0054 -0.1219
 3316POPS   PO440046   8.821  22.832  15.401  0.0297 -0.0333 -0.1424
 3316POPS   GL140047   9.022  22.903  15.711 -0.0368 -0.0927 -0.0468
 3316POPS   GL240048   9.336  22.872  15.649 -0.1452 -0.2771 -0.0586
 3316POPS   C1A40049   9.173  22.825  16.160 -0.2289 -0.1437  0.1978
 3316POPS   D2A40050   9.251  22.920  16.595 -0.1584  0.2625 -0.0371
 3316POPS   C3A40051   8.902  23.034  16.905  0.0454 -0.5780  0.0815
 3316POPS   C4A40052   8.567  22.992  17.187  0.1882 -0.2702 -0.0411
 3316POPS   C1B40053   9.547  23.114  16.017  0.3947  0.0154  0.1809
 3316POPS   C2B40054   9.493  23.340  16.441 -0.0289  0.3022  0.2872
 3316POPS   C3B40055   9.334  23.379  16.852 -0.2957 -0.0473 -0.0984
 3316POPS   C4B40056   9.177  23.168  17.297  0.3247 -0.0093  0.1843
 3317POPS   CNO40057  18.230  28.098  14.854  0.1504  0.0202 -0.3014
 3317POPS   PO440058  18.462  28.153  15.148 -0.2673  0.0011  0.0414
 3317POPS   GL140059  18.456  28.076  15.578 -0.0164 -0.2247 -0.1828
 3317POPS   GL240060  18.348  28.317  15.686 -0.0622 -0.1518  0.0395
 3317POPS   C1A40061  18.201  27.923  15.978  0.0518 -0.1053 -0.0383
 3317POPS   D2A40062  18.071  28.064  16.396 -0.0373  0.0122 -0.3227
 3317POPS   C3A40063  18.134  27.756  16.701 -0.1312  0.0642 -0.1790
 3317POPS   C4A40064  18.089  27.347  16.950  0.2709 -0.3590 -0.0045
 3317POPS   C1B40065  18.200  28.429  16.124  0.0458  0.1809 -0.0576
 3317POPS   C2B40066  17.795  28.610  16.354 -0.0946  0.0069  0.1325
 3317POPS   C3B40067  17.495  28.646  16.703  0.2254  0.0656  0.0946
 3317POPS   C4B40068  17.247  28.782  17.132  0.0802 -0.1344  0.1532
 3318POPS   CNO40069   2.575  11.208  15.219 -0.0621 -0.2992  0.2094
 3318POPS   PO440070   2.415  11.538  15.203 -0.1746  0.1141 -0.0452
 3318POPS   GL140071   2.305  11.557  15.523 -0.0866 -0.0006 -0.0350
 3318POPS   GL240072   2.108  11.278  15.590 -0.2029 -0.0386  0.0363
 3318POPS   C1A40073   2.425  11.737  15.923 -0.2081  0.0325 -0.2961
 3318POPS   D2A40074   2.786  11.864  16.108 -0.0218  0.1019  0.1029
 3318POPS   C3A40075   2.793  11.999  16.536  0.0484 -0.1280  0.1478
 3318POPS   C4A40076   2.727  11.921  16.994  0.2320  0.0448  0.1344
 3318POPS   C1B40077   2.204  11.332  16.033 -0.2092 -0.0391 -0.0110
 3318POPS   C2B40078   2.299  11.297  16.473 -0.2693  0.2459 -0.1332
 3318POPS   C3B40079   2.392  11.333  16.927  0.3911  0.3198 -0.3415
 3318POPS   C4B40080   2.156  11.671  17.172  0.0362 -0.1344  0.2219
 3319POPS   CNO40081  14.029   5.387  15.036  0.2907  0.1425  0.1926
 3319POPS   PO440082  13.670   5.350  15.078 -0.1840 -0.0046 -0.1716
 3319POPS   GL140083  13.646   5.467  15.423 -0.2647  0.1643 -0.4317
 3319POPS   GL240084  13.862   5.435  15.591  0.0300  0.2101 -0.1137
 3319POPS   C1A40085  13.405   5.343  15.807  0.0180 -0.0587  0.4247
 3319POPS   D2A40086  13.359   5.165  16.249 -0.1183 -0.0367 -0.0254
 3319POPS   C3A40087  13.217   5.405  16.592  0.1367  0.0112  0.0276
 3319POPS   C4A40088  12.991   5.528  16.981 -0.1442  0.2553  0.2390
 3319POPS   C1B40089  13.831   5.339  16.062 -0.3558  0.0458  0.3054
 3319POPS   C2B40090  13.745   5.480  16.419 -0.1094  0.2059  0.1862
 3319POPS   C3B40091  13.805   5.543  16.869 -0.1246 -0.0516  0.0638
 3319POPS   C4B40092  13.820   5.316  17.288 -0.0869 -0.0333  0.3009
 3320POPS   CNO40093  28.929  12.569  14.894  0.0437 -0.3364  0.0305
 3320POPS   PO440094  28.791  12.756  15.185  0.2360  0.0167  0.2594
 3320POPS   GL140095  28.894  12.694  15.544 -0.3050 -0.2655 -0.0384
 3320POPS   GL240096  28.730  12.932  15.669  0.0844 -0.1449 -0.0948
 3320POPS   C1A40097  29.042  12.593  15.969 -0.0030 -0.4227  0.1774
 3320POPS   D2A40098  28.755  12.611  16.350 -0.2280  0.0695  0.1194
 3320POPS   C3A40099  28.877  12.359  16.728  0.4170  0.2595  0.0702
 3320POPS   C4A40100  28.765  12.328  17.182  0.2634  0.0246 -0.1843
 3320POPS   C1B40101  28.814  13.023  16.081  0.1820  0.1320 -0.1361
 3320POPS   C2B40102  28.802  13.381  16.326 -0.1686  0.0460 -0.0488
 3320POPS   C3B40103  28.893  13.496  16.815  0.2556  0.1158  0.1936
 3320POPS   C4B40104  28.986  13.531  17.301 -0.1301  0.1978 -0.0464
 3321POPS   CNO40105  30.194   3.081  15.320 -0.0362  0.1558  0.0789
 3321POPS   PO440106  29.926   3.364  15.381 -0.2575 -0.1038 -0.1293
 3321POPS   GL140107  29.886   3.161  15.743 -0.0476  0.2393 -0.0581
 3321POPS   GL240108  30.166   3.195  15.865 -0.0261  0.2583  0.0577
 3321POPS   C1A40109  29.718   3.131  16.196  0.1823 -0.0177 -0.1300
 3321POPS   D2A40110  29.825   3.276  16.629  0.1580  0.1464 -0.0651
 3321POPS   C3A40111  30.134   2.928  16.748 -0.0465 -0.1018  0.0789
 3321POPS   C4A40112  30.181   2.459  16.652 -0.1883  0.1304  0.0979
 3321POPS   C1B40113  30.142   3.592  16.106 -0.1843  0.4957  0.0896
 3321POPS   C2B40114  29.973   3.884  16.422 -0.0262  0.2147 -0.0929
 3321POPS   C3B40115  29.900   4.166  16.798 -0.0782 -0.1981  0.2623
 3321POPS   C4B40116  29.671   4.331  17.162 -0.0567  0.1206  0.4062
 3322POPS   CNO40117  11.414   2.803  15.306 -0.4428  0.0986  0.2166
 3322POPS   PO440118  11.243   2.435  15.239  0.0317  0.0827  0.1265
 3322POPS   GL140119  11.206   2.584  15.619  0.1497  0.1586  0.0960
 3322POPS   GL240120  11.063   2.877  15.580 -0.1389 -0.1694  0.2666
 3322POPS   C1A40121  11.137   2.292  16.036 -0.0060  0.1132  0.0601
 3322POPS   D2A40122  11.301   2.167  16.419 -0.0970 -0.1290  0.1204
 3322POPS   C3A40123  11.026   1.952  16.679 -0.0980 -0.0992 -0.0920
 3322POPS   C4A40124  11.070   1.682  17.082 -0.1822  0.2824 -0.1784
 3322POPS   C1B40125  10.807   2.787  15.980  0.2009  0.0942 -0.1270
 3322POPS   C2B40126  10.936   2.913  16.399  0.0802 -0.3005  0.1859
 3322POPS   C3B40127  11.258   2.842  16.734  0.0097 -0.0802 -0.0219
 3322POPS   C4B40128  11.701   2.790  16.908  0.0648  0.0050  0.4395
 3323POPS   CNO40129  29.031  13.201  15.184 -0.1001 -0.0535  0.0217
 3323POPS   PO440130  28.662  13.216  15.183 -0.1304 -0.2035 -0.4988
 3323POPS   GL140131  28.344  13.176  15.506  0.1108 -0.2283 -0.0654
 3323POPS   GL240132  28.234  13.471  15.529  0.0502 -0.1003 -0.0173
 3323POPS   C1A40133  28.065  12.990  15.856  0.2174 -0.0880 -0.0189
 3323POPS   D2A40134  27.775  12.970  16.239  0.1405  0.2019 -0.0175
 3323POPS   C3A40135  27.328  13.115  16.448 -0.0156  0.0490 -0.1028
 3323POPS   C4A40136  27.028  12.986  16.770  0.3189  0.1569  0.1975
 3323POPS   C1B40137  28.379  13.371  16.000  0.2013 -0.1154  0.0767
 3323POPS   C2B40138  28.418  13.036  16.341  0.0732 -0.0271  0.1499
 3323POPS   C3B40139  28.689  13.087  16.722  0.1841 -0.2807  0.2237
 3323POPS   C4B40140  28.840  12.747  17.007  0.0459 -0.0205 -0.2334
 3324POPS   CNO40141  14.210   8.612  14.924  0.3124  0.0008 -0.0873
 3324POPS   PO440142  13.857   8.729  14.847 -0.0437 -0.1872 -0.0316
 3324POPS   GL140143  14.019   9.027  15.124 -0.1312 -0.1105 -0.1408
 3324POPS   GL240144  14.348   9.024  15.107  0.1777  0.4856  0.1825
 3324POPS   C1A40145  14.083   9.146  15.528 -0.0907 -0.1187 -0.0922
 3324POPS   D2A40146  14.018   9.330  15.988 -0.0207 -0.1253 -0.1884
 3324POPS   C3A40147  13.977   9.605  16.348 -0.3080 -0.0469  0.1345
 3324POPS   C4A40148  13.983   9.872  16.705  0.1438 -0.0960  0.1650
 3324POPS   C1B40149  14.542   9.359  15.322  0.2282  0.0612 -0.0613
 3324POPS   C2B40150  14.636   9.810  15.517 -0.1154 -0.1231  0.0958
 3324POPS   C3B40151  14.391  10.062  15.845 -0.0793  0.4516  0.0854
 3324POPS   C4B40152  14.458  10.427  16.173 -0.0438 -0.1473 -0.2241
 3325POPS   CNO40153   2.991  27.617  14.951 -0.0779  0.1563  0.0878
 3325POPS   PO440154   2.884  27.625  15.296  0.2584  0.0770 -0.0001
 3325POPS   GL140155   2.909  27.710  15.666  0.4853  0.4507 -0.0521
 3325POPS   GL240156   2.863  27.409  15.800  0.4356 -0.2100  0.3848
 3325POPS   C1A40157   2.996  27.857  16.097 -0.0777 -0.2514 -0.0096
 3325POPS   D2A40158   3.239  28.120  16.366 -0.3299 -0.1122 -0.0722
 3325POPS   C3A40159   3.399  28.226  16.762  0.1162 -0.0849  0.1007
 3325POPS   C4A40160   3.495  28.400  17.220  0.2043  0.4239 -0.2239
 3325POPS   C1B40161   2.919  27.346  16.256  0.0948  0.4476  0.1896
 3325POPS   C2B40162   2.985  27.463  16.714  0.0576  0.3514 -0.0701
 3325POPS   C3B40163   3.167  27.383  17.098 -0.1261 -0.0921  0.0244
 3325POPS   C4B40164   3.535  27.612  17.229  0.2346 -0.1266 -0.2351
 3326POPS   CNO40165   9.297  15.961  15.146 -0.1541  0.2070  0.0277
 3326POPS   PO440166   9.259  16.056  15.500  0.0804 -0.0463  0.1103
 3326POPS   GL140167   9.350  15.860  15.806 -0.0099 -0.3155 -0.2054
 3326POPS   GL240168   9.182  15.889  15.989 -0.1078 -0.0822 -0.1103
 3326POPS   C1A40169   9.600  15.627  16.036 -0.1219 -0.0053  0.0189
 3326POPS   D2A40170   9.781  15.521  16.429  0.0878  0.1997  0.1180
 3326POPS   C3A40171   9.744  15.746  16.866 -0.0221  0.3954 -0.1617
 3326POPS   C4A40172   9.760  15.821  17.296 -0.3069  0.0733  0.1652
 3326POPS   C1B40173   9.006  16.119  16.384  0.1997 -0.3144 -0.2502
 3326POPS   C2B40174   8.830  16.136  16.828 -0.4056  0.3814 -0.3558
 3326POPS   C3B40175   8.978  16.193  17.250  0.1253 -0.0971  0.3042
 3326POPS   C4B40176   9.275  16.415  17.593 -0.1057 -0.1131 -0.1681
 3327POPS   CNO40177  24.423  16.081  14.976  0.1334  0.3051 -0.0017
 3327POPS   PO440178  24.526  15.893  15.276 -0.0795  0.0263 -0.3455
 3327POPS   GL140179  24.528  15.823  15.640  0.2741  0.1626 -0.2245
 3327POPS   GL240180  24.672  15.627  15.858  0.0914  0.0133  0.1028
 3327POPS   C1A40181  24.380  16.133  15.972  0.0485  0.0992 -0.1329
 3327POPS   D2A40182  24.767  16.478  16.034 -0.1845  0.1027  0.1712
 3327POPS   C3A40183  25.119  16.309  16.313 -0.2477 -0.1837  0.0946
 3327POPS   C4A40184  25.075  16.161  16.711  0.2195  0.2687  0.2779
 3327POPS   C1B40185  24.564  15.453  16.274 -0.2587  0.2863 -0.2291
 3327POPS   C2B40186  24.401  15.289  16.715 -0.3633  0.0901  0.0093
 3327POPS   C3B40187  24.241  15.433  17.146 -0.1283 -0.2210  0.0304
 3327POPS   C4B40188  24.170  15.626  17.545  0.2274 -0.2184 -0.2970
 3328POPS   CNO40189   0.987  17.170  14.864  0.0358  0.1888 -0.0065
 3328POPS   PO440190   0.684  16.899  14.908 -0.0925  0.0506  0.0726
 3328POPS   GL140191   0.694  16.605  15.212  0.0560 -0.1806  0.1856
 3328POPS   GL240192   0.780  16.299  15.066  0.5155  0.1440 -0.2068
 3328POPS   C1A40193   0.914  16.753  15.578  0.3802 -0.2372 -0.3186
 3328POPS   D2A40194   1.374  16.689  15.770  0.1996  0.2212  0.1362
 3328POPS   C3A40195   1.607  16.949  16.076  0.1516 -0.2729  0.0557
 3328POPS   C4A40196   1.619  17.062  16.520 -0.3499 -0.1686 -0.1910
 3328POPS   C1B40197   1.185  16.393  15.377  0.0742  0.1800  0.0143
 3328POPS   C2B40198   1.600  16.298  15.552 -0.2188  0.3238  0.2863
 3328POPS   C3B40199   1.991  16.197  15.736 -0.1237  0.1793 -0.0207
 3328POPS   C4B40200   2.330  15.910  15.812 -0.0295  0.0269 -0.3038
 3329POPS   CNO40201  16.596  21.237  14.607 -0.1695  0.0809  0.0689
 3329POPS   PO440202  16.647  21.358  14.926 -0.0080  0.1048  0.0832
 3329POPS   GL140203  16.518  21.242  15.319 -0.3238 -0.0226  0.1524
 3329POPS   GL240204  16.804  21.294  15.356 -0.2048  0.1417 -0.1040
 3329POPS   C1A40205  16.357  21.010  15.676  0.2398 -0.2443 -0.0460
 3329POPS   D2A40206  16.257  20.635  15.918  0.0986 -0.1273 -0.0814
 3329POPS   C3A40207  16.143  20.603  16.396  0.1101  0.0949 -0.1069
 3329POPS   C4A40208  16.047  20.403  16.738  0.0524  0.1435 -0.0703
 3329POPS   C1B40209  16.895  21.668  15.561 -0.2679  0.0129 -0.1987
 3329POPS   C2B40210  16.857  22.055  15.837  0.0463  0.1172  0.1360
 3329POPS   C3B40211  16.831  22.488  16.045  0.1592  0.0521  0.2102
 3329POPS   C4B40212  16.774  22.656  16.503 -0.1692  0.0303  0.1913
 3330POPS   CNO40213  22.726  24.369  14.318  0.1048 -0.0170  0.0518
 3330POPS   PO440214  22.817  24.356  14.688  0.0407 -0.0074 -0.1652
 3330POPS   GL140215  22.870  24.367  14.996  0.4565  0.0102 -0.2025
 3330POPS   GL240216  22.615  24.302  15.148  0.2382 -0.0943 -0.0106
 3330POPS   C1A40217  23.149  24.199  15.324  0.2041  0.4880  0.1002
 3330POPS   D2A40218  23.254  23.911  15.652 -0.3260  0.0266 -0.1218
 3330POPS   C3A40219  23.179  23.996  16.070 -0.1951 -0.1366 -0.0691
 3330POPS   C4A40220  23.054  23.673  16.374 -0.1072  0.2148 -0.0873
 3330POPS   C1B40221  22.701  23.973  15.426  0.1127 -0.0418 -0.0893
 3330POPS   C2B40222  22.693  23.915  15.872  0.1152 -0.0626 -0.0285
 3330POPS   C3B40223  22.741  24.079  16.289 -0.1065  0.1804  0.0686
 3330POPS   C4B40224  22.875  24.169  16.720 -0.3702  0.3937 -0.0495
 3331POPS   CNO40225  31.157  19.414  14.972  0.0054  0.3710  0.0747
 3331POPS   PO440226  31.415  19.471  15.284  0.2189  0.0240 -0.0211
 3331POPS   GL140227  31.540  19.249  15.598 -0.0804 -0.2103  0.0012
 3331POPS   GL240228  31.749  19.356  15.719  0.1928 -0.2774 -0.0093
 3331POPS   C1A40229  31.285  19.403  15.942 -0.0044  0.0108 -0.1333
 3331POPS   D2A40230  31.218  19.754  16.169 -0.0113 -0.1571  0.3338
 3331POPS   C3A40231  31.326  19.435  16.430  0.0147 -0.0388  0.1668
 3331POPS   C4A40232  31.264  19.065  16.782  0.0068 -0.0292  0.0242
 3331POPS   C1B40233  31.805  19.439  16.163  0.1400  0.0487 -0.3369
 3331POPS   C2B40234  31.898  19.476  16.615  0.0449  0.2043 -0.0768
 3331POPS   C3B40235  32.026  19.367  17.070 -0.0046 -0.0559 -0.2235
 3331POPS   C4B40236  32.004  19.079  17.431  0.0319 -0.2468  0.1360
 3332POPS   CNO40237   6.708   1.671  14.562  0.1151  0.1670 -0.2076
 3332POPS   PO440238   6.696   1.620  14.915 -0.0686 -0.1610 -0.0166
 3332POPS   GL140239   6.543   1.739  15.233 -0.0623  0.4888 -0.0937
 3332POPS   GL240240   6.341   1.874  15.427 -0.1352 -0.0575 -0.1965
 3332POPS   C1A40241   6.627   1.565  15.673  0.1236  0.1007 -0.0050
 3332POPS   D2A40242   7.011   1.315  15.762 -0.2017  0.0774 -0.0833
 3332POPS   C3A40243   7.046   1.290  16.231  0.2040 -0.1904 -0.0554
 3332POPS   C4A40244   7.044   1.258  16.720 -0.0229  0.2267 -0.3375
 3332POPS   C1B40245   6.327   1.812  15.937 -0.2131 -0.2238 -0.6163
 3332POPS   C2B40246   6.088   1.739  16.374 -0.1630 -0.2555 -0.1702
 3332POPS   C3B40247   6.193   1.557  16.776  0.2600 -0.0132  0.1706
 3332POPS   C4B40248   6.368   1.718  17.190 -0.0979  0.1554 -0.0004
 3333POPS   CNO40249  27.434  18.563  15.005 -0.0914  0.0356 -0.1085
 3333POPS   PO440250  27.108  18.641  15.176 -0.1436 -0.1516 -0.2159
 3333POPS   GL140251  27.247  18.864  15.554  0.0884  0.0237 -0.1000
 3333POPS   GL240252  27.051  19.060  15.542 -0.2772  0.0516  0.0181
 3333POPS   C1A40253  27.356  18.793  15.982  0.0803 -0.1517  0.0796
 3333POPS   D2A40254  27.467  18.738  16.384  0.1259  0.0651 -0.1286
 3333POPS   C3A40255  27.566  19.085  16.748 -0.1057  0.0110  0.1315
 3333POPS   C4A40256  27.978  19.240  16.941 -0.1439 -0.2379  0.1453
 3333POPS   C1B40257  26.917  19.122  16.010  0.0863  0.0477  0.1142
 3333POPS   C2B40258  26.996  18.922  16.460 -0.0536 -0.0440 -0.1821
 3333POPS   C3B40259  27.121  18.761  16.869  0.1299 -0.0366  0.0867
 3333POPS   C4B40260  27.417  18.762  17.237 -0.1514  0.0228 -0.0194
 3334POPS   CNO40261  27.873  17.021  14.636 -0.4004 -0.3299  0.3851
 3334POPS   PO440262  27.912  17.175  14.964 -0.1201  0.0430 -0.2068
 3334POPS   GL140263  27.914  17.181  15.428 -0.1468  0.0681  0.2009
 3334POPS   GL240264  27.852  17.457  15.412 -0.0444  0.0694  0.0653
 3334POPS   C1A40265  27.728  17.029  15.884  0.0085  0.0422 -0.0060
 3334POPS   D2A40266  27.705  17.143  16.307  0.0130 -0.0423  0.2978
 3334POPS   C3A40267  27.994  17.063  16.645 -0.2649 -0.1128  0.0290
 3334POPS   C4A40268  28.276  17.156  17.016  0.0647 -0.1584 -0.1743
 3334POPS   C1B40269  27.602  17.716  15.768 -0.0905 -0.1761  0.1450
 3334POPS   C2B40270  27.637  17.624  16.226 -0.1485  0.0296 -0.0083
 3334POPS   C3B40271  27.611  17.454  16.653  0.0291 -0.0976 -0.0503
 3334POPS   C4B40272  27.642  17.157  17.037 -0.1648  0.0005  0.1302
 3335POPS   CNO40273   3.293  27.276  14.525 -0.1686 -0.0041 -0.0031
 3335POPS   PO440274   3.399  27.144  14.905  0.0367  0.2241  0.2396
 3335POPS   GL140275   3.298  27.125  15.341  0.0109  0.4996  0.2276
 3335POPS   GL240276   3.266  27.355  15.490 -0.1810 -0.2091 -0.0664
 3335POPS   C1A40277   3.199  26.902  15.717  0.0490  0.3834 -0.2389
 3335POPS   D2A40278   2.890  26.741  15.986  0.2446  0.2695 -0.0343
 3335POPS   C3A40279   2.830  26.812  16.424  0.1458  0.0490  0.0038
 3335POPS   C4A40280   2.897  26.972  16.857 -0.2297 -0.0697 -0.2138
 3335POPS   C1B40281   3.355  27.371  15.930  0.2181  0.1944 -0.0969
 3335POPS   C2B40282   3.356  27.598  16.321 -0.1093  0.0450 -0.0431
 3335POPS   C3B40283   3.470  27.733  16.754 -0.0234 -0.1155  0.2310
 3335POPS   C4B40284   3.771  28.015  17.004 -0.0069  0.3958 -0.2544
 3336POPS   CNO40285  28.499  23.034  14.441 -0.1751 -0.0331 -0.2614
 3336POPS   PO440286  28.433  23.123  14.805  0.3655  0.1450 -0.0050
 3336POPS   GL140287  28.568  23.101  15.151  0.1022 -0.1355 -0.1016
 3336POPS   GL240288  28.541  22.856  15.216  0.3546  0.2675  0.0390
 3336POPS   C1A40289  28.714  23.266  15.580  0.0553 -0.0488 -0.3783
 3336POPS   D2A40290  28.909  23.334  16.037  0.0812  0.2592 -0.5450
 3336POPS   C3A40291  28.877  22.930  16.246  0.0007 -0.3202 -0.1636
 3336POPS   C4A40292  28.781  22.618  16.551 -0.0345 -0.0497 -0.1308
 3336POPS   C1B40293  28.472  22.548  15.582  0.0750  0.1664  0.1196
 3336POPS   C2B40294  28.397  22.538  16.060 -0.2238  0.1048  0.1982
 3336POPS   C3B40295  28.185  22.240  16.322  0.0623  0.0846 -0.1528
 3336POPS   C4B40296  28.492  22.277  16.737  0.0806 -0.1454  0.0320
 3337POPS   CNO40297  11.756  30.714  14.682  0.1556  0.1405  0.2318
 3337POPS   PO440298  11.718  31.001  14.875  0.3085 -0.4545 -0.2261
 3337POPS   GL140299  11.870  30.948  15.304  0.1635 -0.1645  0.0184
 3337POPS   GL240300  11.643  30.761  15.347  0.2135  0.1041  0.1325
 3337POPS   C1A40301  12.032  31.286  15.563 -0.1944 -0.2653 -0.1530
 3337POPS   D2A40302  12.234  31.686  15.669 -0.0447  0.1810 -0.2880
 3337POPS   C3A40303  12.693  31.664  15.779 -0.0353  0.1131  0.0477
 3337POPS   C4A40304  12.876  31.622  16.184  0.2556  0.1702 -0.0159
 3337POPS   C1B40305  11.334  30.764  15.690 -0.1872 -0.2098 -0.1440
 3337POPS   C2B40306  11.303  31.018  16.055  0.1979 -0.0043 -0.1583
 3337POPS   C3B40307  11.263  31.334  16.329  0.3191 -0.1468  0.1286
 3337POPS   C4B40308  11.424  31.590  16.647  0.0909  0.2108  0.1333
 3338POPS   CNO40309  23.472  16.475  15.117  0.1782 -0.1746 -0.0012
 3338POPS   PO440310  23.214  16.290  15.326 -0.1199 -0.1095 -0.3910
 3338POPS   GL140311  23.279  16.301  15.731  0.1108 -0.2974  0.0046
 3338POPS   GL240312  23.352  16.570  15.787  0.1899 -0.5002  0.4999
 3338POPS   C1A40313  23.485  15.991  16.051  0.0434 -0.0563  0.0044
 3338POPS   D2A40314  23.325  15.631  16.336  0.0222 -0.0748  0.1896
 3338POPS   C3A40315  23.363  15.536  16.775 -0.0446  0.0812  0.2559
 3338POPS   C4A40316  23.266  15.385  17.167 -0.4917  0.1317  0.0347
 3338POPS   C1B40317  23.408  16.525  16.223 -0.1877 -0.1560 -0.0204
 3338POPS   C2B40318  23.447  16.489  16.688  0.0731 -0.1732  0.2191
 3338POPS   C3B40319  23.433  16.382  17.091 -0.0485  0.0287 -0.0673
 3338POPS   C4B40320  23.467  16.193  17.511 -0.1565  0.0522  0.1168
 3339POPS   CNO40321  17.588   1.246  14.975  0.0966  0.0629  0.0398
 3339POPS   PO440322  17.480   1.556  15.212  0.0255  0.0272  0.1970
 3339POPS   GL140323  17.257   1.569  15.532 -0.2383  0.0219 -0.0842
 3339POPS   GL240324  16.947   1.611  15.544  0.0162  0.0963 -0.1598
 3339POPS   C1A40325  17.219   1.183  15.785  0.2696 -0.1246 -0.0454
 3339POPS   D2A40326  17.234   1.185  16.269  0.1051  0.3412 -0.1628
 3339POPS   C3A40327  17.460   0.878  16.521  0.1907 -0.3864 -0.0201
 3339POPS   C4A40328  17.536   0.630  16.936  0.2376 -0.1221  0.1782
 3339POPS   C1B40329  16.880   1.837  15.922  0.0404  0.0982 -0.1073
 3339POPS   C2B40330  16.642   1.644  16.305 -0.0050  0.0318 -0.0530
 3339POPS   C3B40331  16.273   1.613  16.582 -0.2730 -0.2664  0.1260
 3339POPS   C4B40332  16.004   1.737  16.931  0.1375 -0.1342 -0.0166
 3340POPS   CNO40333   0.328  12.561  14.970  0.0074  0.1240  0.2447
 3340POPS   PO440334   0.263  12.499  15.323  0.0367 -0.0411  0.0406
 3340POPS   GL140335   0.297  12.514  15.750 -0.3587 -0.1464 -0.3208
 3340POPS   GL240336   0.507  12.394  15.890  0.2479 -0.0194  0.0317
 3340POPS   C1A40337  -0.058  12.637  16.079 -0.1977  0.0450 -0.1364
 3340POPS   D2A40338  -0.214  12.460  16.553 -0.0172 -0.1153 -0.0591
 3340POPS   C3A40339  -0.006  12.529  16.986  0.0518  0.1441 -0.0920
 3340POPS   C4A40340   0.266  12.281  17.292  0.1353  0.0414 -0.0938
 3340POPS   C1B40341   0.585  12.479  16.331  0.3451  0.1721 -0.0294
 3340POPS   C2B40342   0.588  12.520  16.838  0.2541  0.3485  0.2186
 3340POPS   C3B40343   0.705  12.513  17.300 -0.0056  0.2299  0.5071
 3340POPS   C4B40344   0.671  12.250  17.667 -0.3789 -0.0312 -0.1434
 3341POPS   CNO40345   1.625  12.465  15.078  0.2402 -0.3732  0.1029
 3341POPS   PO440346   1.413  12.801  15.174  0.0588  0.0055 -0.2112
 3341POPS   GL140347   1.626  12.944  15.524 -0.3694 -0.0357  0.1205
 3341POPS   GL240348   1.613  12.710  15.658 -0.1100  0.0175 -0.0836
 3341POPS   C1A40349   2.063  12.836  15.640  0.2669 -0.1674  0.3382
 3341POPS   D2A40350   2.509  12.748  15.792 -0.0999  0.2103 -0.0225
 3341POPS   C3A40351   2.702  12.936  16.196  0.1316 -0.0350  0.0573
 3341POPS   C4A40352   2.838  13.302  16.417  0.1676 -0.0540  0.0431
 3341POPS   C1B40353   1.714  12.697  16.105 -0.0743  0.0091 -0.3395
 3341POPS   C2B40354   1.683  12.515  16.567 -0.4604  0.0178  0.0620
 3341POPS   C3B40355   1.711  12.354  16.995  0.0297  0.0250 -0.1340
 3341POPS   C4B40356   1.461  12.011  17.237 -0.1667  0.0441 -0.2107
 3342POPS   CNO40357  25.542   1.531  15.275  0.1564  0.1371  0.0978
 3342POPS   PO440358  25.447   1.878  15.108  0.0806 -0.1522 -0.1173
 3342POPS   GL140359  25.264   2.062  15.458  0.1764 -0.1155  0.0688
 3342POPS   GL240360  25.418   2.259  15.517 -0.3339  0.2427 -0.1206
 3342POPS   C1A40361  25.141   2.060  15.914 -0.0672 -0.1630 -0.0029
 3342POPS   D2A40362  25.073   2.001  16.359  0.0415  0.2066  0.0930
 3342POPS   C3A40363  25.463   1.936  16.594  0.0115 -0.2650 -0.3863
 3342POPS   C4A40364  25.425   1.710  17.033  0.0116  0.0964  0.0702
 3342POPS   C1B40365  25.527   2.428  15.935  0.2860 -0.1008  0.1038
 3342POPS   C2B40366  25.446   2.436  16.346  0.0470 -0.1928 -0.2132
 3342POPS   C3B40367  25.434   2.394  16.786  0.1093  0.1723  0.0508
 3342POPS   C4B40368  25.666   2.174  17.176  0.2150  0.1081  0.0547
 3343POPS   CNO40369  13.659   4.839  14.973 -0.0585 -0.1350  0.1716
 3343POPS   PO440370  13.487   4.557  15.158 -0.4216 -0.1385  0.1039
 3343POPS   GL140371  13.568   4.602  15.525 -0.2198 -0.3901 -0.0879
 3343POPS   GL240372  13.417   4.334  15.653 -0.0615 -0.0022 -0.1205
 3343POPS   C1A40373  13.699   4.929  15.840 -0.1102  0.0628 -0.0021
 3343POPS   D2A40374  13.880   4.901  16.235 -0.1380 -0.1125 -0.1357
 3343POPS   C3A40375  13.675   4.997  16.672  0.3263 -0.0764  0.1790
 3343POPS   C4A40376  13.401   5.165  17.025  0.2169  0.1024  0.3012
 3343POPS   C1B40377  13.412   4.162  16.071  0.0910 -0.0606  0.0886
 3343POPS   C2B40378  13.330   4.177  16.495 -0.1786  0.2650 -0.2249
 3343POPS   C3B40379  13.334   3.811  16.847 -0.0245  0.1575  0.0730
 3343POPS   C4B40380  13.565   3.810  17.181 -0.0313 -0.1994 -0.2041
 3344POPS   CNO40381  30.632  30.514  14.954 -0.0151  0.1982  0.0812
 3344POPS   PO440382  30.984  30.420  15.083 -0.1730 -0.0175 -0.1159
 3344POPS   GL140383  31.191  30.450  15.452  0.0122  0.1520 -0.2316
 3344POPS   GL240384  31.103  30.682  15.676  0.0452  0.0346  0.3270
 3344POPS   C1A40385  31.551  30.460  15.748  0.2310 -0.2276  0.0685
 3344POPS   D2A40386  31.594  30.439  16.163  0.4212  0.2056 -0.1554
 3344POPS   C3A40387  31.791  30.504  16.567 -0.0958  0.0814 -0.0065
 3344POPS   C4A40388  31.915  30.586  17.049 -0.2128  0.1302 -0.0986
 3344POPS   C1B40389  30.950  30.683  16.074  0.1387  0.4131 -0.1850
 3344POPS   C2B40390  30.656  30.748  16.385 -0.1095 -0.1353  0.0092
 3344POPS   C3B40391  30.510  30.743  16.882 -0.1419 -0.4037  0.3290
 3344POPS   C4B40392  30.636  30.518  17.256  0.1992  0.0750  0.2539
 3345POPS   CNO40393  20.102  22.818  14.892 -0.1352 -0.2147  0.3964
 3345POPS   PO440394  20.444  22.749  14.999  0.1632 -0.0913  0.0474
 3345POPS   GL140395  20.398  22.686  15.345  0.0850  0.0394 -0.3041
 3345POPS   GL240396  20.375  22.464  15.617  0.1915  0.2024  0.2106
 3345POPS   C1A40397  20.416  23.030  15.683  0.2279  0.3147  0.0040
 3345POPS   D2A40398  20.609  23.141  16.095  0.1124 -0.3522  0.3180
 3345POPS   C3A40399  20.401  23.373  16.371 -0.3946  0.1458  0.2794
 3345POPS   C4A40400  20.077  23.362  16.710  0.0285  0.0787 -0.0968
 3345POPS   C1B40401  20.754  22.689  15.715 -0.0480 -0.0823  0.0371
 3345POPS   C2B40402  21.017  22.964  15.969  0.1424 -0.1170  0.3248
 3345POPS   C3B40403  21.249  23.077  16.349 -0.0661  0.1140 -0.0939
 3345POPS   C4B40404  21.484  22.854  16.619  0.0217 -0.0549  0.2533
 3346POPS   CNO40405  22.234   9.714  15.264 -0.0924 -0.0892 -0.0078
 3346POPS   PO440406  22.603   9.795  15.406  0.0722 -0.0098  0.2881
 3346POPS   GL140407  22.719   9.885  15.794  0.3041 -0.0473 -0.3594
 3346POPS   GL240408  22.858  10.089  16.012 -0.1904  0.0623  0.2411
 3346POPS   C1A40409  22.379   9.803  16.135 -0.0799 -0.0616 -0.2464
 3346POPS   D2A40410  22.264   9.923  16.603 -0.3251 -0.0208 -0.1715
 3346POPS   C3A40411  21.996   9.666  16.930  0.2847 -0.0711 -0.0027
 3346POPS   C4A40412  21.882   9.419  17.379 -0.0838 -0.2807  0.2767
 3346POPS   C1B40413  22.751  10.068  16.506  0.0829 -0.0232  0.0325
 3346POPS   C2B40414  22.553  10.252  16.840 -0.1452  0.1166  0.3574
 3346POPS   C3B40415  22.336  10.507  17.099 -0.0516  0.1688  0.2033
 3346POPS   C4B40416  22.267  10.584  17.488 -0.2569  0.0453  0.1002
 3347POPS   CNO40417   3.135  23.037  15.083  0.0660 -0.0874 -0.2683
 3347POPS   PO440418   2.886  22.816  14.959 -0.0609 -0.0656 -0.3506
 3347POPS   GL140419   2.695  22.836  15.249  0.2210  0.2236  0.3440
 3347POPS   GL240420   2.583  22.595  15.294  0.2528 -0.0868 -0.0007
 3347POPS   C1A40421   2.599  22.882  15.697 -0.0747  0.0693  0.1107
 3347POPS   D2A40422   2.380  22.829  16.114  0.3328 -0.0475 -0.0341
 3347POPS   C3A40423   2.416  22.573  16.538  0.0726 -0.0659 -0.0460
 3347POPS   C4A40424   2.419  22.610  17.040 -0.2567 -0.1177  0.0314
 3347POPS   C1B40425   2.298  22.388  15.634  0.0703  0.0813 -0.2764
 3347POPS   C2B40426   2.132  22.240  16.054 -0.0108  0.2009 -0.2763
 3347POPS   C3B40427   2.060  22.236  16.503 -0.1021  0.0295  0.3698
 3347POPS   C4B40428   1.979  22.151  16.956  0.0953 -0.1200  0.2695
 3348POPS   CNO40429   0.903   1.443  14.755  0.0126 -0.3020  0.0751
 3348POPS   PO440430   1.062   1.159  14.941  0.3054 -0.1439 -0.1903
 3348POPS   GL140431   0.955   0.964  15.313  0.0530 -0.2194  0.2202
 3348POPS   GL240432   0.800   1.249  15.373 -0.0152 -0.1882 -0.3976
 3348POPS   C1A40433   1.072   1.018  15.722 -0.1632 -0.0446  0.2452
 3348POPS   D2A40434   1.191   0.899  16.137  0.3809  0.4262 -0.1049
 3348POPS   C3A40435   1.114   1.050  16.558  0.3308 -0.1880  0.0772
 3348POPS   C4A40436   1.097   1.016  16.966  0.2152 -0.3052 -0.1090
 3348POPS   C1B40437   0.737   1.386  15.817 -0.1394  0.1172 -0.2468
 3348POPS   C2B40438   0.838   1.363  16.242 -0.1457 -0.0199 -0.3100
 3348POPS   C3B40439   1.046   1.528  16.650 -0.1440  0.0379 -0.2719
 3348POPS   C4B40440   1.311   1.436  17.011 -0.2084 -0.3891 -0.1486
 3349POPS   CNO40441  27.157   2.562  15.139  0.0165  0.1014 -0.1401
 3349POPS   PO440442  26.883   2.796  15.206  0.1616 -0.2203  0.1779
 3349POPS   GL140443  26.841   3.006  15.503  0.0017 -0.3290  0.0701
 3349POPS   GL240444  26.655   2.882  15.644  0.1566 -0.0859  0.0575
 3349POPS   C1A40445  26.923   3.115  15.960  0.0112 -0.3509  0.0304
 3349POPS   D2A40446  27.234   3.123  16.319 -0.1936  0.3283  0.0104
 3349POPS   C3A40447  27.182   2.973  16.767 -0.2561 -0.3002 -0.2489
 3349POPS   C4A40448  27.020   2.681  17.084 -0.2188 -0.0508 -0.1850
 3349POPS   C1B40449  26.536   2.673  15.994 -0.0606 -0.0570  0.1192
 3349POPS   C2B40450  26.386   2.472  16.320 -0.2092  0.3047 -0.0042
 3349POPS   C3B40451  26.240   2.327  16.708 -0.0457 -0.1100  0.1002
 3349POPS   C4B40452  26.219   2.053  17.087  0.3554  0.1285  0.0008
 3350POPS   CNO40453  28.053  26.593  15.132  0.1087 -0.0359 -0.0123
 3350POPS   PO440454  28.291  26.329  15.098 -0.0897 -0.0630 -0.0871
 3350POPS   GL140455  28.226  26.030  15.454 -0.0445  0.2284  0.1058
 3350POPS   GL240456  28.013  26.270  15.490  0.1246  0.0085  0.2495
 3350POPS   C1A40457  28.514  25.807  15.773  0.1169  0.2563  0.0698
 3350POPS   D2A40458  28.502  25.514  16.102 -0.1449  0.4020  0.0402
 3350POPS   C3A40459  28.890  25.508  16.404  0.2205  0.1407  0.2782
 3350POPS   C4A40460  29.072  25.417  16.829  0.0080 -0.1834  0.2625
 3350POPS   C1B40461  28.179  26.137  15.923 -0.3510  0.2272 -0.0414
 3350POPS   C2B40462  28.436  26.035  16.291  0.2824  0.1812  0.1525
 3350POPS   C3B40463  28.552  25.896  16.710 -0.0959 -0.1143  0.0075
 3350POPS   C4B40464  28.797  25.742  17.098  0.0424 -0.0121 -0.2412
 3351POPS   CNO40465  24.106  12.341  14.958 -0.0127 -0.4229  0.1477
 3351POPS   PO440466  24.096  12.277  15.347  0.1669 -0.0476  0.1206
 3351POPS   GL140467  24.239  12.189  15.715  0.1086 -0.2040 -0.0363
 3351POPS   GL240468  24.158  12.060  15.856 -0.3188 -0.0615  0.1123
 3351POPS   C1A40469  24.666  12.277  15.660 -0.1810  0.1107 -0.2049
 3351POPS   D2A40470  25.154  12.162  15.626 -0.0288  0.2462 -0.0845
 3351POPS   C3A40471  25.353  11.808  15.826  0.0702 -0.0457  0.0509
 3351POPS   C4A40472  25.250  11.491  16.133 -0.2068  0.1017 -0.0085
 3351POPS   C1B40473  23.857  11.991  16.173 -0.1911 -0.1282 -0.1656
 3351POPS   C2B40474  23.955  11.740  16.556 -0.5518 -0.0150  0.1099
 3351POPS   C3B40475  23.934  11.549  16.937  0.0284  0.1001 -0.2114
 3351POPS   C4B40476  24.307  11.562  17.244  0.1334  0.0768  0.0292
 3352POPS   CNO40477   1.375   8.923  14.972  0.1584 -0.1692  0.2124
 3352POPS   PO440478   1.007   8.871  14.938 -0.6479 -0.3695  0.0352
 3352POPS   GL140479   1.097   8.785  15.344 -0.0124 -0.1848 -0.1242
 3352POPS   GL240480   1.350   8.806  15.467  0.4297  0.1235  0.1583
 3352POPS   C1A40481   0.964   9.193  15.545  0.1375 -0.1927 -0.2812
 3352POPS   D2A40482   0.621   9.216  15.927  0.3050 -0.1340  0.0876
 3352POPS   C3A40483   0.736   8.998  16.297 -0.0549  0.0232  0.3109
 3352POPS   C4A40484   0.665   9.042  16.715 -0.0848  0.3284  0.0748
 3352POPS   C1B40485   1.530   8.496  15.798  0.2510  0.0504  0.1589
 3352POPS   C2B40486   1.848   8.335  16.075  0.0728 -0.2076  0.0505
 3352POPS   C3B40487   1.937   7.985  16.387 -0.0664 -0.0658 -0.0519
 3352POPS   C4B40488   1.896   7.541  16.475  0.1854  0.3277 -0.3114
 3353POPS   CNO40489   1.441  13.390  15.469  0.5931  0.2217  0.0188
 3353POPS   PO440490   1.763  13.455  15.370 -0.0801  0.0406 -0.2780
 3353POPS   GL140491   1.816  13.478  15.753  0.0814 -0.3199 -0.0281
 3353POPS   GL240492   1.695  13.178  15.894 -0.0260  0.1022 -0.0975
 3353POPS   C1A40493   1.809  13.655  16.195  0.1857 -0.1146 -0.1922
 3353POPS   D2A40494   1.945  13.632  16.617 -0.1668  0.1083  0.0509
 3353POPS   C3A40495   2.222  13.698  16.948 -0.2442  0.1316  0.0258
 3353POPS   C4A40496   2.421  13.941  17.297 -0.0365  0.2526  0.0496
 3353POPS   C1B40497   1.752  13.167  16.300  0.1482  0.0183  0.1404
 3353POPS   C2B40498   1.872  12.930  16.730  0.0993  0.1123  0.4108
 3353POPS   C3B40499   2.190  12.631  16.946  0.2491 -0.1319  0.2756
 3353POPS   C4B40500   2.510  12.555  17.337 -0.0591 -0.0006 -0.0504
 3354POPS   CNO40501  15.238  16.797  15.086  0.0174  0.1354  0.1111
 3354POPS   PO440502  15.507  17.031  15.224 -0.0233 -0.0581 -0.2289
 3354POPS   GL140503  15.443  16.768  15.497  0.3974 -0.0532  0.1276
 3354POPS   GL240504  15.713  16.583  15.473  0.1306 -0.6620  0.1094
 3354POPS   C1A40505  15.233  16.892  15.865 -0.3457  0.2099 -0.3262
 3354POPS   D2A40506  14.787  16.707  15.921  0.0273 -0.0549  0.0107
 3354POPS   C3A40507  14.673  16.385  16.216 -0.2753  0.0072 -0.2034
 3354POPS   C4A40508  14.704  16.305  16.659 -0.1464 -0.0146 -0.1239
 3354POPS   C1B40509  15.792  16.391  15.936 -0.1826 -0.1055  0.2272
 3354POPS   C2B40510  15.781  16.480  16.334  0.2440 -0.0114 -0.3023
 3354POPS   C3B40511  15.723  16.526  16.852  0.0450 -0.3961  0.0052
 3354POPS   C4B40512  15.608  16.386  17.290  0.1734 -0.3243  0.1661
 3355POPS   CNO40513  28.455  11.087  14.761 -0.0550  0.0673 -0.2296
 3355POPS   PO440514  28.442  11.379  14.994 -0.0811  0.1299 -0.2144
 3355POPS   GL140515  28.226  11.471  15.390  0.2243  0.0977  0.0323
 3355POPS   GL240516  28.334  11.207  15.482  0.1129 -0.1291  0.1554
 3355POPS   C1A40517  28.071  11.536  15.811  0.3478 -0.1732 -0.1273
 3355POPS   D2A40518  27.751  11.554  16.209  0.0903 -0.5264  0.2866
 3355POPS   C3A40519  27.624  11.750  16.595 -0.0513  0.1873 -0.3669
 3355POPS   C4A40520  27.625  11.841  17.064  0.1066  0.1936  0.1427
 3355POPS   C1B40521  28.246  11.003  15.952  0.1482  0.0061  0.2214
 3355POPS   C2B40522  27.907  11.125  16.209  0.0744  0.0151  0.2147
 3355POPS   C3B40523  27.680  11.098  16.580  0.0702  0.0325  0.4349
 3355POPS   C4B40524  27.245  10.892  16.583 -0.0392  0.0624  0.1608
 3356POPS   CNO40525   5.977   2.276  14.904  0.2220 -0.1216 -0.1253
 3356POPS   PO440526   6.068   2.560  15.133  0.0470  0.0011 -0.0454
 3356POPS   GL140527   5.992   2.654  15.532  0.2340 -0.1663 -0.0497
 3356POPS   GL240528   5.888   2.447  15.626 -0.1283 -0.1301  0.0702
 3356POPS   C1A40529   6.074   2.731  15.979  0.0217  0.0383 -0.1211
 3356POPS   D2A40530   5.871   2.772  16.377 -0.1993  0.0551  0.0306
 3356POPS   C3A40531   6.179   2.641  16.725 -0.0056 -0.0060 -0.3695
 3356POPS   C4A40532   6.200   2.681  17.188  0.0499 -0.1576 -0.0281
 3356POPS   C1B40533   5.933   2.265  16.089 -0.1132  0.1249 -0.0388
 3356POPS   C2B40534   5.844   2.299  16.550  0.2827  0.0566  0.2774
 3356POPS   C3B40535   5.597   2.429  16.941  0.0262 -0.1857 -0.0241
 3356POPS   C4B40536   5.267   2.479  17.290  0.1703  0.2922  0.0537
 3357POPS   CNO40537  22.245  23.182  14.724  0.0924  0.1175  0.2174
 3357POPS   PO440538  22.093  23.032  15.021 -0.0991  0.1575 -0.1219
 3357POPS   GL140539  22.077  23.387  15.286 -0.0078  0.3989 -0.3205
 3357POPS   GL240540  21.908  23.279  15.559  0.1483 -0.0696 -0.4898
 3357POPS   C1A40541  22.362  23.633  15.577 -0.0596  0.1073 -0.0850
 3357POPS   D2A40542  22.209  23.833  15.936 -0.0591  0.1125 -0.2494
 3357POPS   C3A40543  22.365  24.281  15.993  0.0626  0.0053 -0.1948
 3357POPS   C4A40544  22.270  24.684  15.798  0.2406 -0.0164 -0.0904
 3357POPS   C1B40545  22.149  23.360  15.946  0.0471 -0.1491 -0.1595
 3357POPS   C2B40546  22.274  23.211  16.351  0.0293  0.1604 -0.0121
 3357POPS   C3B40547  22.465  23.194  16.807  0.0867 -0.1923  0.0731
 3357POPS   C4B40548  22.571  23.315  17.270  0.0855 -0.2835  0.4698
 3358POPS   CNO40549  22.304  13.926  15.126 -0.0554 -0.0730 -0.1187
 3358POPS   PO440550  22.402  14.271  15.232  0.1075  0.1507 -0.0093
 3358POPS   GL140551  22.462  14.499  15.483  0.2624  0.5035 -0.4713
 3358POPS   GL240552  22.748  14.479  15.560 -0.0738 -0.1194  0.1129
 3358POPS   C1A40553  22.355  14.384  15.947  0.2298 -0.0586 -0.0532
 3358POPS   D2A40554  22.551  14.259  16.371  0.2883  0.0411 -0.2234
 3358POPS   C3A40555  22.420  13.896  16.653 -0.1792  0.2401 -0.0381
 3358POPS   C4A40556  22.397  13.684  17.042 -0.1456  0.0941  0.1558
 3358POPS   C1B40557  23.093  14.556  15.812 -0.1756  0.0007  0.0251
 3358POPS   C2B40558  23.144  14.693  16.294  0.1636 -0.0472 -0.1553
 3358POPS   C3B40559  22.947  14.508  16.742  0.0264  0.1115  0.3792
 3358POPS   C4B40560  22.812  14.591  17.190 -0.1336 -0.0014 -0.2379
 3359POPS   CNO40561   1.682  14.718  14.909 -0.0660  0.0882  0.0354
 3359POPS   PO440562   1.714  15.063  15.013 -0.1892 -0.2427 -0.0420
 3359POPS   GL140563   1.813  15.290  15.445 -0.0240 -0.2050 -0.0309
 3359POPS   GL240564   1.925  15.048  15.516  0.1190  0.1570 -0.1563
 3359POPS   C1A40565   1.677  15.275  15.894  0.1510 -0.0537 -0.0991
 3359POPS   D2A40566   1.749  15.153  16.371  0.0370  0.1617 -0.0985
 3359POPS   C3A40567   2.017  15.227  16.738  0.2186 -0.1283 -0.1264
 3359POPS   C4A40568   2.426  15.427  16.792 -0.1923 -0.0866  0.2545
 3359POPS   C1B40569   2.236  15.120  15.838  0.2139  0.0304  0.3781
 3359POPS   C2B40570   2.317  15.116  16.295  0.0842  0.5231 -0.6488
 3359POPS   C3B40571   2.438  14.947  16.777 -0.2306 -0.0965 -0.0833
 3359POPS   C4B40572   2.763  15.030  17.077 -0.0956  0.1558 -0.0588
 3360POPS   CNO40573  29.034  12.109  14.872  0.2493  0.0843 -0.2300
 3360POPS   PO440574  28.970  11.974  15.207 -0.1116 -0.2183  0.0542
 3360POPS   GL140575  28.909  11.723  15.586 -0.1783 -0.2411 -0.3702
 3360POPS   GL240576  28.732  11.554  15.419 -0.0121  0.0078 -0.0701
 3360POPS   C1A40577  28.544  11.830  15.866  0.0774 -0.0568 -0.0018
 3360POPS   D2A40578  28.334  11.553  16.223 -0.0320 -0.4277  0.3603
 3360POPS   C3A40579  28.061  11.497  16.623 -0.0223 -0.1453 -0.0682
 3360POPS   C4A40580  27.744  11.407  16.935 -0.0106 -0.1800 -0.1548
 3360POPS   C1B40581  28.636  11.360  15.816 -0.2646  0.1838  0.1569
 3360POPS   C2B40582  28.706  11.067  16.178 -0.5233 -0.0392 -0.0360
 3360POPS   C3B40583  28.377  10.992  16.506  0.0069 -0.1213  0.2317
 3360POPS   C4B40584  28.149  11.061  16.866  0.3155 -0.0600 -0.2398
 3361POPS   CNO40585  13.696  12.735  14.738  0.0946 -0.1465 -0.1750
 3361POPS   PO440586  13.635  12.901  15.109  0.0129  0.0374  0.2061
 3361POPS   GL140587  13.732  13.155  15.434 -0.0044  0.3061 -0.0720
 3361POPS   GL240588  13.627  13.326  15.495  0.0165 -0.2343 -0.1589
 3361POPS   C1A40589  14.091  13.239  15.745 -0.2379  0.0029  0.0735
 3361POPS   D2A40590  14.219  13.341  16.165 -0.2955 -0.1001  0.0253
 3361POPS   C3A40591  14.490  13.569  16.488  0.1629  0.0906 -0.2466
 3361POPS   C4A40592  14.649  13.543  16.915 -0.2298  0.0740  0.0349
 3361POPS   C1B40593  13.581  13.346  15.992 -0.1202 -0.0487 -0.0443
 3361POPS   C2B40594  13.570  13.255  16.471  0.1230  0.0815  0.3361
 3361POPS   C3B40595  13.726  12.918  16.786 -0.0691  0.0223 -0.3141
 3361POPS   C4B40596  14.085  12.612  16.880 -0.3056 -0.2852  0.1969
 3362POPS   CNO40597   5.072  25.998  14.973  0.0834  0.3342  0.2378
 3362POPS   PO440598   4.837  26.205  15.210 -0.0297  0.2129  0.0363
 3362POPS   GL140599   5.062  26.215  15.559 -0.1951  0.3416  0.4618
 3362POPS   GL240600   4.947  26.471  15.673 -0.2197 -0.1288 -0.3839
 3362POPS   C1A40601   5.400  26.367  15.878  0.1554  0.3769  0.0192
 3362POPS   D2A40602   5.269  26.450  16.319 -0.1863 -0.0867 -0.1232
 3362POPS   C3A40603   5.303  26.463  16.773 -0.0362 -0.1471  0.3300
 3362POPS   C4A40604   5.477  26.483  17.196 -0.1558  0.0912  0.0193
 3362POPS   C1B40605   4.929  26.043  15.921 -0.1709  0.2594  0.2199
 3362POPS   C2B40606   5.324  25.882  16.075  0.1262  0.0233  0.4165
 3362POPS   C3B40607   5.515  25.955  16.464 -0.0311  0.2426 -0.2928
 3362POPS   C4B40608   5.697  26.015  16.911  0.1209 -0.2601 -0.0870
 3363POPS   CNO40609  13.516   2.249  14.750  0.1094  0.0386 -0.2331
 3363POPS   PO440610  13.673   2.189  15.091  0.0944 -0.1601  0.1953
 3363POPS   GL140611  13.894   2.067  15.429 -0.0154 -0.0899 -0.1560
 3363POPS   GL240612  13.980   2.380  15.436 -0.0391  0.3976 -0.0417
 3363POPS   C1A40613  14.238   2.031  15.805 -0.1069  0.0154  0.0074
 3363POPS   D2A40614  14.450   2.024  16.201 -0.1171  0.0119 -0.0581
 3363POPS   C3A40615  14.286   2.094  16.611  0.0171 -0.1287 -0.0383
 3363POPS   C4A40616  14.201   1.811  17.009 -0.1444 -0.0255 -0.1275
 3363POPS   C1B40617  13.756   2.267  15.856 -0.0588 -0.0973  0.0817
 3363POPS   C2B40618  13.882   2.027  16.230 -0.1005  0.1454  0.0257
 3363POPS   C3B40619  13.949   1.743  16.613 -0.0111 -0.0917  0.0182
 3363POPS   C4B40620  13.717   1.560  16.995 -0.2919 -0.2533 -0.3419
 3364POPS   CNO40621   7.033  20.388  15.300 -0.0280 -0.0891 -0.2971
 3364POPS   PO440622   6.957  20.194  15.622 -0.0228  0.0405  0.0533
 3364POPS   GL140623   6.823  20.476  15.913 -0.1656  0.1286  0.3003
 3364POPS   GL240624   6.804  20.211  16.114  0.1387  0.4706  0.0341
 3364POPS   C1A40625   7.129  20.691  16.188 -0.0148  0.1930 -0.2196
 3364POPS   D2A40626   7.387  20.659  16.552  0.0878  0.2395 -0.2574
 3364POPS   C3A40627   7.204  20.657  16.937  0.1043  0.0251 -0.2006
 3364POPS   C4A40628   7.060  20.655  17.353 -0.1691 -0.1607 -0.2318
 3364POPS   C1B40629   6.892  20.469  16.524  0.0494  0.1794  0.0222
 3364POPS   C2B40630   6.696  20.557  16.920 -0.1277 -0.2014  0.0991
 3364POPS   C3B40631   6.563  20.673  17.387  0.0050 -0.2266  0.4125
 3364POPS   C4B40632   6.464  20.508  17.876  0.0648  0.2423  0.0032
 3365POPS   CNO40633  11.236  24.719  14.379 -0.0218 -0.0187  0.1354
 3365POPS   PO440634  11.007  24.628  14.643 -0.1669 -0.0969 -0.0260
 3365POPS   GL140635  10.890  24.692  15.032 -0.0341 -0.3173  0.0811
 3365POPS   GL240636  11.100  24.853  15.151 -0.1165  0.0345 -0.0027
 3365POPS   C1A40637  10.753  24.313  15.345  0.0808 -0.0957  0.1492
 3365POPS   D2A40638  10.465  24.300  15.727 -0.1122 -0.1734  0.3027
 3365POPS   C3A40639  10.549  23.872  15.830 -0.2622 -0.2363 -0.2161
 3365POPS   C4A40640  10.903  23.633  15.634  0.0754 -0.0038 -0.1116
 3365POPS   C1B40641  11.225  24.425  15.364 -0.3086  0.1596 -0.1004
 3365POPS   C2B40642  11.055  24.111  15.680  0.2035  0.4383 -0.0493
 3365POPS   C3B40643  11.068  23.846  16.047  0.0089 -0.3274 -0.1663
 3365POPS   C4B40644  10.926  23.587  16.430 -0.0951 -0.0876  0.2701
 3366POPS   CNO40645  16.164  17.731  15.014  0.0233  0.1631 -0.1797
 3366POPS   PO440646  16.083  18.050  15.258  0.2365  0.3217  0.0267
 3366POPS   GL140647  16.187  17.907  15.701 -0.2850  0.1414 -0.2075
 3366POPS   GL240648  16.119  18.111  15.902 -0.0501  0.1371 -0.0514
 3366POPS   C1A40649  16.365  17.764  16.088  0.2741 -0.1424  0.0686
 3366POPS   D2A40650  16.437  17.759  16.556  0.0079 -0.0302  0.1413
 3366POPS   C3A40651  16.094  17.916  16.827 -0.2363 -0.0187 -0.0592
 3366POPS   C4A40652  15.753  18.146  16.705 -0.3249  0.0766  0.0800
 3366POPS   C1B40653  16.190  18.172  16.306  0.0193 -0.0533 -0.1619
 3366POPS   C2B40654  16.367  18.338  16.721 -0.0671  0.0347 -0.1230
 3366POPS   C3B40655  16.638  18.459  17.073 -0.2649  0.0279 -0.1079
 3366POPS   C4B40656  16.950  18.375  17.418  0.1352 -0.0970  0.1927
 3367POPS   CNO40657  15.293   7.474  15.162 -0.1681  0.1061 -0.1944
 3367POPS   PO440658  14.988   7.538  15.389  0.0439  0.0208 -0.1411
 3367POPS   GL140659  15.087   7.584  15.837 -0.3459 -0.0319  0.1809
 3367POPS   GL240660  15.292   7.434  15.877  0.0297 -0.1871 -0.0201
 3367POPS   C1A40661  14.989   7.956  16.081  0.1335  0.3459  0.3227
 3367POPS   D2A40662  15.072   8.201  16.412 -0.1899 -0.0703 -0.0412
 3367POPS   C3A40663  15.163   8.535  16.772 -0.1968 -0.1746  0.1961
 3367POPS   C4A40664  15.153   8.924  17.079 -0.0320  0.0121  0.1045
 3367POPS   C1B40665  15.240   7.340  16.286  0.2755 -0.1760 -0.1431
 3367POPS   C2B40666  15.269   7.180  16.756 -0.1359 -0.3640 -0.0109
 3367POPS   C3B40667  15.361   6.958  17.181 -0.2060  0.1462 -0.1823
 3367POPS   C4B40668  15.623   6.628  17.348 -0.0634  0.3634  0.1955
 3368POPS   CNO40669  26.398  28.629  14.969 -0.2353 -0.0832  0.0302
 3368POPS   PO440670  26.354  28.954  14.798 -0.1841 -0.4129  0.1140
 3368POPS   GL140671  26.650  29.016  15.034  0.1557  0.0256 -0.1808
 3368POPS   GL240672  26.851  29.308  14.933 -0.0756  0.3037 -0.1422
 3368POPS   C1A40673  26.617  28.992  15.505 -0.0045 -0.0383 -0.1929
 3368POPS   D2A40674  26.658  28.999  15.957 -0.1391 -0.0713 -0.0455
 3368POPS   C3A40675  26.624  29.007  16.413 -0.0095  0.3006 -0.3350
 3368POPS   C4A40676  26.518  28.955  16.839 -0.2611  0.1431 -0.2036
 3368POPS   C1B40677  26.553  29.412  15.318 -0.0169  0.1961  0.0333
 3368POPS   C2B40678  26.606  29.592  15.741  0.0440  0.2348  0.2596
 3368POPS   C3B40679  26.761  29.453  16.177  0.1141  0.0895 -0.2852
 3368POPS   C4B40680  26.742  29.455  16.653  0.2266  0.2674  0.1016
 3369POPS   CNO40681  10.300  17.370  15.256 -0.3390  0.1395  0.0270
 3369POPS   PO440682  10.503  17.636  15.404 -0.1204 -0.0659  0.1132
 3369POPS   GL140683  10.642  17.589  15.741  0.0888  0.1064 -0.0473
 3369POPS   GL240684  10.574  17.767  15.916  0.0090 -0.0513 -0.2884
 3369POPS   C1A40685  11.010  17.498  15.938  0.1078 -0.1585  0.0981
 3369POPS   D2A40686  10.912  17.454  16.372 -0.1541 -0.0725 -0.2443
 3369POPS   C3A40687  10.806  17.716  16.683 -0.1374  0.2337  0.0513
 3369POPS   C4A40688  10.734  17.612  17.136  0.4977  0.0815  0.1803
 3369POPS   C1B40689  10.697  18.060  16.288 -0.1175  0.0755 -0.2690
 3369POPS   C2B40690  10.999  18.341  16.434 -0.2384  0.1467  0.0478
 3369POPS   C3B40691  11.288  18.249  16.814 -0.1701  0.1446 -0.0614
 3369POPS   C4B40692  11.459  18.076  17.207  0.1021  0.2234 -0.1452
 3370POPS   CNO40693  21.311   5.027  14.867  0.0915  0.3499 -0.2571
 3370POPS   PO440694  21.137   5.190  15.116 -0.0331 -0.0552 -0.0226
 3370POPS   GL140695  21.242   5.069  15.512  0.2646 -0.0712  0.0691
 3370POPS   GL240696  20.941   5.029  15.635  0.1004 -0.0186  0.2188
 3370POPS   C1A40697  21.566   4.811  15.636  0.0768  0.4138  0.0683
 3370POPS   D2A40698  21.699   4.403  15.871  0.4333  0.3285  0.0532
 3370POPS   C3A40699  21.737   4.165  16.233  0.1554  0.2125  0.1050
 3370POPS   C4A40700  21.755   3.885  16.558  0.2805  0.2223  0.1668
 3370POPS   C1B40701  21.194   4.920  15.984 -0.0065 -0.1823  0.1719
 3370POPS   C2B40702  21.414   4.689  16.257 -0.3551 -0.1433 -0.1953
 3370POPS   C3B40703  21.408   4.432  16.631  0.0234 -0.2485 -0.3865
 3370POPS   C4B40704  21.768   4.258  16.856  0.2646 -0.1921 -0.1448
 3371POPS   CNO40705  30.159  10.501  15.228  0.0022 -0.1801 -0.0629
 3371POPS   PO440706  30.102  10.233  15.507  0.1256  0.2703  0.1909
 3371POPS   GL140707  29.832  10.307  15.800 -0.1461 -0.1210 -0.0260
 3371POPS   GL240708  30.087  10.292  16.013  0.1694  0.0517 -0.1277
 3371POPS   C1A40709  29.575  10.515  16.134  0.1348  0.0964 -0.3544
 3371POPS   D2A40710  29.532  10.513  16.598  0.0757  0.2215 -0.0044
 3371POPS   C3A40711  29.430  10.248  16.956  0.3152  0.1598  0.5886
 3371POPS   C4A40712  29.463  10.244  17.404 -0.0853  0.0430 -0.1472
 3371POPS   C1B40713  29.932  10.299  16.432  0.2387 -0.1090  0.0787
 3371POPS   C2B40714  29.893  10.144  16.888  0.1249  0.2163 -0.0035
 3371POPS   C3B40715  29.823   9.893  17.234 -0.1704  0.2157 -0.2656
 3371POPS   C4B40716  29.993   9.513  17.478  0.0721 -0.0429  0.1055
 3372POPS   CNO40717  14.212   6.215  15.227  0.2438  0.2397 -0.3214
 3372POPS   PO440718  14.511   5.983  15.143 -0.0733  0.0395 -0.0916
 3372POPS   GL140719  14.574   6.006  15.536 -0.0807 -0.2042 -0.2132
 3372POPS   GL240720  14.624   5.728  15.669 -0.0446 -0.0535 -0.0433
 3372POPS   C1A40721  14.330   6.105  15.938  0.1186  0.2417  0.0752
 3372POPS   D2A40722  14.126   6.437  16.178 -0.0628  0.3099 -0.3847
 3372POPS   C3A40723  14.140   6.340  16.615  0.1436 -0.0196  0.1116
 3372POPS   C4A40724  14.325   6.270  17.042  0.0531  0.1024 -0.1248
 3372POPS   C1B40725  14.719   5.686  16.145 -0.3102  0.3075  0.2655
 3372POPS   C2B40726  14.716   5.590  16.608 -0.3135  0.4674  0.0180
 3372POPS   C3B40727  14.676   5.798  17.002 -0.3816  0.0896 -0.2458
 3372POPS   C4B40728  14.654   6.157  17.384  0.0797 -0.0103  0.1868
 3373POPS   CNO40729  15.709  18.890  15.022 -0.0635  0.0597  0.0727
 3373POPS   PO440730  15.832  18.930  15.360  0.0183  0.2899  0.1582
 3373POPS   GL140731  15.684  19.202  15.639  0.1263  0.2798  0.1581
 3373POPS   GL240732  15.648  18.912  15.837 -0.0817  0.3128  0.0741
 3373POPS   C1A40733  15.989  19.273  15.948  0.2756 -0.1908  0.0822
 3373POPS   D2A40734  16.018  19.313  16.364 -0.1326 -0.0567 -0.0393
 3373POPS   C3A40735  15.666  18.958  16.428 -0.1549 -0.0750 -0.2471
 3373POPS   C4A40736  15.429  18.549  16.409  0.0644 -0.2017 -0.0419
 3373POPS   C1B40737  15.750  18.488  15.988 -0.1090 -0.2329  0.0939
 3373POPS   C2B40738  15.740  18.079  16.233 -0.5193 -0.1222  0.0527
 3373POPS   C3B40739  15.450  17.831  16.406 -0.2162  0.2043  0.2206
 3373POPS   C4B40740  15.028  17.569  16.430 -0.0794  0.1070  0.1446
 3374POPS   CNO40741  19.536   1.899  14.505 -0.1431  0.1379  0.2961
 3374POPS   PO440742  19.777   1.727  14.675 -0.0740 -0.4600  0.0322
 3374POPS   GL140743  19.911   1.846  15.133  0.1101  0.1385  0.1383
 3374POPS   GL240744  19.724   1.643  15.286  0.0943  0.1109  0.0543
 3374POPS   C1A40745  20.250   1.815  15.465  0.3962 -0.0890  0.1547
 3374POPS   D2A40746  20.364   1.749  15.896  0.2352  0.0174 -0.2257
 3374POPS   C3A40747  19.998   1.659  16.232 -0.4704  0.0844  0.1174
 3374POPS   C4A40748  20.240   1.584  16.614 -0.2791  0.2313  0.1888
 3374POPS   C1B40749  19.891   1.596  15.692  0.2195 -0.0457  0.1022
 3374POPS   C2B40750  20.197   1.298  15.959  0.0333 -0.2628 -0.0673
 3374POPS   C3B40751  20.674   1.328  16.031  0.1218 -0.0664  0.3706
 3374POPS   C4B40752  21.116   1.471  15.996 -0.0807 -0.1687  0.2459
 3375POPS   CNO40753   7.024  19.722  15.432 -0.1380 -0.0269  0.0466
 3375POPS   PO440754   7.360  19.550  15.281 -0.0980  0.2083  0.0484
 3375POPS   GL140755   7.515  19.661  15.608  0.0745 -0.0831  0.1743
 3375POPS   GL240756   7.770  19.523  15.663  0.2121 -0.3527 -0.0052
 3375POPS   C1A40757   7.659  19.870  16.014  0.1834  0.0435 -0.0473
 3375POPS   D2A40758   7.635  19.793  16.508  0.1316 -0.2814  0.0223
 3375POPS   C3A40759   7.444  19.541  16.836 -0.0169  0.3286 -0.1252
 3375POPS   C4A40760   7.169  19.447  17.206  0.1220  0.2170 -0.2824
 3375POPS   C1B40761   7.858  19.426  16.130  0.0954 -0.1507  0.1876
 3375POPS   C2B40762   7.604  19.198  16.495 -0.2170 -0.1086 -0.2450
 3375POPS   C3B40763   7.700  19.131  16.966  0.0636  0.0093  0.1498
 3375POPS   C4B40764   7.494  19.055  17.341  0.1634  0.0024  0.1783
 3376POPS   CNO40765  20.166  17.380  14.823  0.2684 -0.0853  0.1172
 3376POPS   PO440766  20.051  17.283  15.137  0.1000 -0.4458 -0.2912
 3376POPS   GL140767  20.169  17.076  15.436 -0.4398 -0.3924 -0.3191
 3376POPS   GL240768  19.986  16.866  15.397  0.3300  0.0150  0.1086
 3376POPS   C1A40769  20.496  17.034  15.770  0.0634  0.0088 -0.0871
 3376POPS   D2A40770  20.665  16.608  16.001  0.0963 -0.0768 -0.3471
 3376POPS   C3A40771  20.703  16.373  16.395  0.0857  0.1529 -0.0022
 3376POPS   C4A40772  20.694  16.136  16.772  0.2058 -0.3738 -0.2465
 3376POPS   C1B40773  20.211  16.642  15.767 -0.1710 -0.0190  0.1847
 3376POPS   C2B40774  20.146  16.285  15.974 -0.0309  0.1066 -0.0254
 3376POPS   C3B40775  20.245  16.081  16.351  0.3198 -0.0956 -0.0186
 3376POPS   C4B40776  20.128  16.101  16.782  0.4049  0.1258 -0.1857
 3377POPS   CNO40777  26.795   7.126  15.564  0.1185  0.1841 -0.2281
 3377POPS   PO440778  26.676   7.292  15.261 -0.2787 -0.1413 -0.1512
 3377POPS   GL140779  26.967   7.555  15.482  0.4609 -0.0287 -0.1028
 3377POPS   GL240780  27.299   7.590  15.552  0.0385 -0.0162  0.4239
 3377POPS   C1A40781  26.962   7.803  15.919  0.0781 -0.3218 -0.1526
 3377POPS   D2A40782  26.947   7.804  16.371  0.3403 -0.0625 -0.1776
 3377POPS   C3A40783  27.032   8.266  16.534 -0.0676  0.0455  0.1465
 3377POPS   C4A40784  27.295   8.631  16.616  0.2477  0.0234  0.1167
 3377POPS   C1B40785  27.527   7.650  15.886  0.3645  0.1325 -0.0033
 3377POPS   C2B40786  27.683   7.629  16.295  0.1679 -0.0199 -0.1925
 3377POPS   C3B40787  28.070   7.552  16.628 -0.1578  0.0669 -0.3352
 3377POPS   C4B40788  28.447   7.684  16.845 -0.3020  0.2107  0.1019
 3378POPS   CNO40789  21.424  11.790  15.069  0.0032 -0.4022 -0.3026
 3378POPS   PO440790  21.059  11.658  15.071 -0.2042  0.1904 -0.1415
 3378POPS   GL140791  21.168  11.841  15.466  0.1921  0.0208  0.0504
 3378POPS   GL240792  20.838  11.674  15.507 -0.2233  0.2459 -0.0577
 3378POPS   C1A40793  21.247  11.954  15.902 -0.1777  0.2356 -0.3813
 3378POPS   D2A40794  21.330  11.549  16.144  0.1555  0.0160  0.2679
 3378POPS   C3A40795  21.324  11.520  16.603  0.2820 -0.0027  0.0194
 3378POPS   C4A40796  21.469  11.325  16.974  0.1137 -0.0825  0.0320
 3378POPS   C1B40797  20.582  11.390  15.695 -0.1376 -0.2780 -0.2492
 3378POPS   C2B40798  20.344  11.188  16.084 -0.2940 -0.0474  0.2443
 3378POPS   C3B40799  20.509  11.032  16.446  0.0012  0.3961  0.1454
 3378POPS   C4B40800  20.493  11.013  16.906 -0.0288  0.0625 -0.0598
 3379POPS   CNO40801   8.657  27.672  14.697 -0.0682  0.0851  0.2651
 3379POPS   PO440802   8.701  27.586  15.019  0.0921 -0.0677 -0.3268
 3379POPS   GL140803   8.612  27.523  15.321 -0.1555  0.3053 -0.2380
 3379POPS   GL240804   8.361  27.630  15.460 -0.1798 -0.2963  0.0601
 3379POPS   C1A40805   8.681  27.231  15.701 -0.2482  0.1094  0.4569
 3379POPS   D2A40806   8.820  26.794  15.741  0.2209  0.1353  0.0775
 3379POPS   C3A40807   8.718  26.601  16.117 -0.0997  0.0659  0.0937
 3379POPS   C4A40808   8.617  26.749  16.591 -0.1930  0.2416  0.2716
 3379POPS   C1B40809   8.141  27.487  15.844 -0.1335  0.0011 -0.1827
 3379POPS   C2B40810   7.957  27.406  16.248 -0.0316 -0.1434  0.1778
 3379POPS   C3B40811   7.667  27.264  16.524  0.2496  0.1609 -0.0369
 3379POPS   C4B40812   7.809  27.019  16.889  0.0842  0.1139 -0.4312
 3380POPS   CNO40813  26.170  22.101  14.904 -0.2956 -0.2469  0.2597
 3380POPS   PO440814  25.891  21.816  14.907  0.2800  0.0593 -0.1420
 3380POPS   GL140815  25.969  21.921  15.292  0.0874  0.1250  0.1304
 3380POPS   GL240816  26.058  22.086  15.447  0.0136 -0.1785 -0.0878
 3380POPS   C1A40817  25.646  21.905  15.652 -0.1102  0.1268 -0.2671
 3380POPS   D2A40818  25.397  22.003  16.006 -0.0743  0.0265  0.1995
 3380POPS   C3A40819  25.310  21.779  16.364  0.2713  0.0997  0.0433
 3380POPS   C4A40820  25.264  21.894  16.858 -0.0468  0.0702 -0.2676
 3380POPS   C1B40821  25.892  22.215  15.871 -0.2101 -0.0261  0.3906
 3380POPS   C2B40822  25.926  22.416  16.273 -0.3688 -0.0417 -0.2187
 3380POPS   C3B40823  25.734  22.706  16.567  0.1436 -0.3180  0.2469
 3380POPS   C4B40824  25.625  23.116  16.729  0.2534 -0.1165 -0.1279
 3381POPS   CNO40825  15.582  26.018  15.069 -0.0171  0.0533  0.1898
 3381POPS   PO440826  15.776  25.674  15.124 -0.0903 -0.1283  0.3898
 3381POPS   GL140827  15.605  25.509  15.402 -0.1246 -0.1213  0.0460
 3381POPS   GL240828  15.526  25.820  15.532 -0.2525  0.2006  0.2961
 3381POPS   C1A40829  15.674  25.293  15.831 -0.0515  0.2862 -0.0902
 3381POPS   D2A40830  15.665  25.231  16.321  0.0764 -0.1535  0.0740
 3381POPS   C3A40831  15.561  25.037  16.678 -0.0599 -0.3545  0.3652
 3381POPS   C4A40832  15.553  25.010  17.175 -0.2097  0.2553 -0.0095
 3381POPS   C1B40833  15.825  25.801  15.913  0.0621  0.2497 -0.1446
 3381POPS   C2B40834  16.011  25.559  16.275 -0.3658  0.4022 -0.1403
 3381POPS   C3B40835  16.099  25.268  16.616  0.0502 -0.0956  0.3921
 3381POPS   C4B40836  16.038  25.250  17.158  0.5996 -0.0950 -0.1069
 3382POPS   CNO40837  29.586  29.530  15.209  0.1415  0.1138  0.0693
 3382POPS   PO440838  29.274  29.662  15.367 -0.0230  0.4908  0.1502
 3382POPS   GL140839  29.350  29.809  15.693 -0.1347 -0.0032 -0.2613
 3382POPS   GL240840  29.164  30.035  15.681 -0.2644 -0.1180  0.3629
 3382POPS   C1A40841  29.245  29.673  16.149  0.1931  0.2072 -0.2779
 3382POPS   D2A40842  29.182  29.718  16.593  0.0868  0.1276 -0.4169
 3382POPS   C3A40843  29.255  29.282  16.754 -0.0925 -0.1269  0.3634
 3382POPS   C4A40844  29.470  28.937  16.882 -0.1122  0.2153 -0.0875
 3382POPS   C1B40845  28.953  30.345  16.008 -0.0671  0.2453 -0.1918
 3382POPS   C2B40846  28.804  30.680  16.249  0.1750 -0.2763  0.1749
 3382POPS   C3B40847  28.575  30.601  16.649  0.1198 -0.0995 -0.0543
 3382POPS   C4B40848  28.160  30.460  16.770  0.1731 -0.0447 -0.2007
 3383POPS   CNO40849   4.447  15.073  14.923  0.0972 -0.0234 -0.0461
 3383POPS   PO440850   4.508  14.714  15.060  0.3830  0.1459  0.0884
 3383POPS   GL140851   4.509  14.694  15.471  0.1862 -0.2585  0.1637
 3383POPS   GL240852   4.619  14.489  15.597  0.1716 -0.0418  0.2751
 3383POPS   C1A40853   4.718  14.965  15.784  0.0866 -0.0149 -0.0557
 3383POPS   D2A40854   4.927  15.227  16.146  0.1002  0.3153 -0.0692
 3383POPS   C3A40855   4.691  15.218  16.512  0.1534 -0.0238  0.1383
 3383POPS   C4A40856   4.678  15.041  16.965 -0.0910 -0.1084  0.5477
 3383POPS   C1B40857   4.561  14.503  16.047 -0.0177  0.0765  0.1515
 3383POPS   C2B40858   4.504  14.631  16.472  0.1459  0.2306  0.3212
 3383POPS   C3B40859   4.459  14.522  16.866  0.1735  0.1128 -0.1502
 3383POPS   C4B40860   4.336  14.359  17.273 -0.0008  0.1802 -0.2037
 3384POPS   CNO40861  24.166  27.913  15.387 -0.1534 -0.2700 -0.3323
 3384POPS   PO440862  23.773  27.965  15.418 -0.0808 -0.0083 -0.0657
 3384POPS   GL140863  23.831  27.979  15.789  0.1383  0.4972 -0.1413
 3384POPS   GL240864  23.665  28.238  15.874  0.0868  0.1105 -0.0346
 3384POPS   C1A40865  23.904  27.979  16.240  0.1235  0.0310  0.4142
 3384POPS   D2A40866  23.886  27.778  16.605  0.1159 -0.0411 -0.0583
 3384POPS   C3A40867  23.684  27.917  16.958  0.3063 -0.0504  0.2074
 3384POPS   C4A40868  23.314  28.133  17.158  0.0043 -0.0975 -0.2814
 3384POPS   C1B40869  23.885  28.473  16.201  0.1258  0.1632  0.0075
 3384POPS   C2B40870  23.849  28.883  16.410  0.4695 -0.0111  0.1442
 3384POPS   C3B40871  24.039  29.195  16.731  0.2450  0.3459  0.1112
 3384POPS   C4B40872  24.380  29.269  17.060  0.0367  0.0210  0.5805
 3385POPS   CNO40873  19.378   9.198  15.228  0.0230  0.3192  0.1374
 3385POPS   PO440874  19.175   8.881  15.311  0.1140 -0.0300  0.2207
 3385POPS   GL140875  18.920   8.863  15.552  0.2454  0.0761  0.0030
 3385POPS   GL240876  18.813   8.590  15.625  0.0222 -0.2381 -0.0213
 3385POPS   C1A40877  19.126   8.873  15.965  0.0687 -0.0248  0.0053
 3385POPS   D2A40878  19.089   8.815  16.455 -0.0821  0.0796 -0.0410
 3385POPS   C3A40879  19.329   8.625  16.798 -0.2771  0.2249 -0.1287
 3385POPS   C4A40880  19.671   8.485  17.027 -0.0867  0.1611 -0.0291
 3385POPS   C1B40881  18.649   8.701  16.073 -0.2282 -0.2413 -0.0226
 3385POPS   C2B40882  18.649   8.552  16.517 -0.0887  0.0210  0.2928
 3385POPS   C3B40883  18.795   8.413  16.970 -0.0621  0.2602 -0.0899
 3385POPS   C4B40884  18.845   8.648  17.408 -0.3310 -0.1319  0.3544
 3386POPS   CNO40885  19.560  24.225  15.016 -0.1390  0.0692  0.1614
 3386POPS   PO440886  19.457  24.509  15.262 -0.0274  0.0222  0.2006
 3386POPS   GL140887  19.402  24.602  15.662  0.2147 -0.0376  0.0021
 3386POPS   GL240888  19.609  24.625  15.831 -0.0086 -0.5317  0.1847
 3386POPS   C1A40889  19.141  24.684  16.002  0.0431  0.1028  0.3603
 3386POPS   D2A40890  18.955  24.785  16.415 -0.0828  0.1259  0.0803
 3386POPS   C3A40891  19.087  24.803  16.916  0.0328 -0.1809  0.2044
 3386POPS   C4A40892  19.420  24.660  17.214  0.0183 -0.0631 -0.1598
 3386POPS   C1B40893  19.603  24.698  16.314  0.3406 -0.2847 -0.2528
 3386POPS   C2B40894  19.434  24.486  16.689 -0.0004 -0.1292 -0.2753
 3386POPS   C3B40895  19.050  24.323  16.900 -0.1172  0.1616 -0.1274
 3386POPS   C4B40896  18.883  23.994  17.149  0.0449  0.0401 -0.0286
 3387POPS   CNO40897   2.373  31.023  14.153 -0.0118  0.4479  0.0030
 3387POPS   PO440898   2.307  30.788  14.419 -0.1236  0.3045  0.1848
 3387POPS   GL140899   2.358  30.850  14.841 -0.0483 -0.2462  0.0757
 3387POPS   GL240900   2.115  30.836  15.052 -0.0366  0.1014  0.2117
 3387POPS   C1A40901   2.586  31.049  15.170 -0.0595  0.1765 -0.1396
 3387POPS   D2A40902   2.526  31.409  15.459  0.2411  0.0485 -0.3382
 3387POPS   C3A40903   2.586  31.271  15.906  0.2399  0.2317  0.3622
 3387POPS   C4A40904   2.564  31.150  16.360  0.1490  0.0733  0.0694
 3387POPS   C1B40905   2.073  30.687  15.490 -0.1072 -0.2213  0.1280
 3387POPS   C2B40906   2.225  30.704  15.970  0.6051 -0.2328 -0.0769
 3387POPS   C3B40907   2.337  30.660  16.470  0.3673 -0.2751  0.1350
 3387POPS   C4B40908   2.516  30.881  16.792 -0.1346  0.3214  0.2207
 3388POPS   CNO40909   3.037  25.490  15.230  0.0676  0.0019 -0.0719
 3388POPS   PO440910   2.713  25.709  15.234  0.0925  0.1883  0.0178
 3388POPS   GL140911   2.724  25.636  15.534  0.0278 -0.2447 -0.1386
 3388POPS   GL240912   2.640  25.850  15.756  0.0492 -0.0301  0.0132
 3388POPS   C1A40913   2.710  25.370  15.907  0.0331 -0.0931  0.0253
 3388POPS   D2A40914   2.721  25.159  16.373 -0.0304 -0.2052 -0.1123
 3388POPS   C3A40915   2.652  25.217  16.870  0.1068 -0.2356 -0.0277
 3388POPS   C4A40916   2.820  25.140  17.289  0.1786 -0.0065  0.1368
 3388POPS   C1B40917   2.395  25.788  16.112  0.2566 -0.0023 -0.1998
 3388POPS   C2B40918   2.485  25.632  16.576 -0.0986 -0.1592  0.2746
 3388POPS   C3B40919   2.558  25.853  17.018  0.1829 -0.1178 -0.0696
 3388POPS   C4B40920   2.845  26.153  17.256  0.1893 -0.1457  0.1853
 3389POPS   CNO40921  26.851   8.496  15.193 -0.1756  0.0142 -0.1610
 3389POPS   PO440922  26.633   8.313  15.476  0.2054 -0.0079  0.1670
 3389POPS   GL140923  26.755   8.290  15.743  0.0834 -0.0155  0.1492
 3389POPS   GL240924  27.080   8.257  15.754  0.1236 -0.0766  0.1534
 3389POPS   C1A40925  26.619   8.260  16.166 -0.0301  0.0771  0.0698
 3389POPS   D2A40926  26.550   8.325  16.645  0.1279 -0.3219 -0.2751
 3389POPS   C3A40927  26.146   8.108  16.747  0.0568 -0.0196  0.1296
 3389POPS   C4A40928  26.078   7.992  17.150  0.1197 -0.2892  0.2299
 3389POPS   C1B40929  27.273   8.135  16.129  0.0577  0.0433  0.1877
 3389POPS   C2B40930  27.505   8.031  16.505  0.0614  0.2860  0.0721
 3389POPS   C3B40931  27.739   8.316  16.859  0.2885 -0.2533  0.1773
 3389POPS   C4B40932  28.070   8.638  17.032  0.1271  0.2209  0.0592
 3390POPS   CNO40933  24.672  19.877  14.695  0.0757 -0.0890 -0.0631
 3390POPS   PO440934  24.672  20.210  14.893 -0.0263  0.2868  0.0842
 3390POPS   GL140935  24.937  20.357  15.099 -0.4013 -0.0126  0.0109
 3390POPS   GL240936  24.935  20.304  15.405 -0.0449 -0.0457 -0.2803
 3390POPS   C1A40937  25.388  20.308  15.274  0.0239 -0.0664  0.3541
 3390POPS   D2A40938  25.826  20.271  15.461  0.2571  0.0862 -0.0580
 3390POPS   C3A40939  25.694  19.996  15.841 -0.0552  0.1070  0.2654
 3390POPS   C4A40940  25.549  19.565  15.945 -0.0055 -0.3992  0.2056
 3390POPS   C1B40941  24.719  20.594  15.722 -0.2507 -0.0463  0.0222
 3390POPS   C2B40942  24.751  20.574  16.212 -0.0296 -0.2991 -0.1414
 3390POPS   C3B40943  24.673  20.801  16.658 -0.2477  0.0768  0.0096
 3390POPS   C4B40944  24.671  21.202  16.825 -0.0561 -0.2092  0.2063
 3391POPS   CNO40945  17.247   6.287  15.066 -0.0681 -0.0789  0.0180
 3391POPS   PO440946  17.309   5.907  15.136  0.0139 -0.0183  0.0208
 3391POPS   GL140947  17.604   5.864  15.455  0.1561  0.2061 -0.0294
 3391POPS   GL240948  17.593   5.607  15.596 -0.0304  0.0819 -0.0471
 3391POPS   C1A40949  17.614   6.135  15.872 -0.1701 -0.1817  0.1297
 3391POPS   D2A40950  17.725   6.423  16.243 -0.0122 -0.0116 -0.0296
 3391POPS   C3A40951  17.516   6.537  16.602  0.0611  0.0228  0.0372
 3391POPS   C4A40952  17.358   6.634  17.003  0.2575  0.0614 -0.0388
 3391POPS   C1B40953  17.334   5.782  15.962  0.1186 -0.0368  0.4201
 3391POPS   C2B40954  16.962   5.988  16.152  0.2918 -0.0852 -0.1318
 3391POPS   C3B40955  16.734   5.808  16.481 -0.1319 -0.1773  0.0340
 3391POPS   C4B40956  16.787   5.640  16.887 -0.2356  0.0602  0.1108
 3392POPS   CNO40957  16.364  28.026  15.169  0.0457 -0.0385  0.2258
 3392POPS   PO440958  16.578  27.878  15.423 -0.1469  0.0261  0.0704
 3392POPS   GL140959  16.573  27.888  15.830 -0.5310 -0.0263  0.1252
 3392POPS   GL240960  16.844  27.734  15.836  0.0969 -0.1190  0.0962
 3392POPS   C1A40961  16.645  28.117  16.229 -0.0898 -0.0612 -0.0627
 3392POPS   D2A40962  16.621  27.944  16.665 -0.0993  0.1234  0.4301
 3392POPS   C3A40963  16.768  27.496  16.685 -0.1538  0.0798  0.1010
 3392POPS   C4A40964  16.770  27.028  16.796  0.2076 -0.0292  0.0357
 3392POPS   C1B40965  17.059  27.548  16.209  0.2906  0.1238 -0.0913
 3392POPS   C2B40966  17.235  27.269  16.492 -0.1067  0.0484  0.1055
 3392POPS   C3B40967  17.353  27.149  16.922 -0.2827 -0.2646  0.0760
 3392POPS   C4B40968  17.551  27.321  17.305  0.3596  0.1516  0.3143
 3393POPS   CNO40969  14.061  29.872  14.880  0.0797  0.0773  0.2994
 3393POPS   PO440970  13.891  30.215  14.901 -0.3624 -0.1062  0.3227
 3393POPS   GL140971  14.000  30.565  14.731 -0.0629 -0.3243  0.0895
 3393POPS   GL240972  14.087  30.708  14.963 -0.1658  0.2482  0.2597
 3393POPS   C1A40973  14.028  30.916  14.426  0.2434 -0.2697 -0.2209
 3393POPS   D2A40974  14.223  31.294  14.189 -0.0521  0.2891 -0.1109
 3393POPS   C3A40975  14.128  31.732  14.358  0.2021 -0.1997 -0.1583
 3393POPS   C4A40976  13.897  32.078  14.556  0.4278 -0.2215 -0.2498
 3393POPS   C1B40977  14.147  30.715  15.405  0.3567  0.3174 -0.3503
 3393POPS   C2B40978  14.205  30.791  15.885 -0.0909  0.0151  0.1002
 3393POPS   C3B40979  14.066  31.057  16.239 -0.2707  0.1445 -0.0023
 3393POPS   C4B40980  13.689  31.066  16.533  0.0600  0.1619 -0.0138
 3394POPS   CNO40981  26.823  26.917  15.480  0.2526 -0.1057  0.1142
 3394POPS   PO440982  26.429  26.850  15.426  0.3073  0.0729  0.0591
 3394POPS   GL140983  26.231  27.033  15.723  0.0133  0.1510  0.1607
 3394POPS   GL240984  26.487  27.052  15.854  0.0187  0.0432 -0.0749
 3394POPS   C1A40985  26.151  26.952  16.172  0.1439 -0.1319 -0.0881
 3394POPS   D2A40986  25.740  27.052  16.435 -0.1047  0.2496  0.0781
 3394POPS   C3A40987  25.518  27.485  16.533 -0.1936  0.0207 -0.3750
 3394POPS   C4A40988  25.272  27.645  16.859  0.1970  0.2306  0.0125
 3394POPS   C1B40989  26.553  27.255  16.286  0.0175  0.0056 -0.0322
 3394POPS   C2B40990  26.586  27.509  16.652 -0.0778  0.1844 -0.4824
 3394POPS   C3B40991  26.486  27.730  17.021 -0.1434 -0.1253 -0.1880
 3394POPS   C4B40992  26.674  27.835  17.482 -0.1783  0.1065 -0.0223
 3395POPS   CNO40993  20.210  20.519  15.292  0.2349 -0.0645 -0.0918
 3395POPS   PO440994  19.842  20.473  15.257  0.0623 -0.1748  0.0972
 3395POPS   GL140995  19.837  20.785  15.562  0.1263  0.0789 -0.0658
 3395POPS   GL240996  20.038  20.987  15.496  0.0630  0.1486 -0.0702
 3395POPS   C1A40997  19.674  20.998  15.921  0.2898  0.1421  0.0238
 3395POPS   D2A40998  19.522  21.367  16.183 -0.1385 -0.1565  0.0667
 3395POPS   C3A40999  19.668  21.662  16.513 -0.1469  0.0920  0.1279
 3395POPS   C4A41000  19.798  22.081  16.668  0.0337  0.0766  0.1379
 3395POPS   C1B41001  20.229  20.780  15.848 -0.2889 -0.1129 -0.0273
 3395POPS   C2B41002  20.348  20.722  16.258  0.2830  0.0562  0.0118
 3395POPS   C3B41003  20.319  20.919  16.642 -0.3541  0.0509 -0.1396
 3395POPS   C4B41004  20.118  21.201  16.991 -0.1431 -0.3044 -0.2323
 3396POPS   CNO41005  20.271  29.088  15.183  0.1296 -0.0003  0.2456
 3396POPS   PO441006  20.434  29.288  15.452 -0.0670 -0.2534 -0.0052
 3396POPS   GL141007  20.245  29.116  15.758  0.2771  0.2467 -0.0140
 3396POPS   GL241008  20.344  28.788  15.671 -0.1176 -0.1956  0.3324
 3396POPS   C1A41009  20.106  28.866  16.144  0.0395  0.2052 -0.3179
 3396POPS   D2A41010  19.980  28.601  16.518  0.3685 -0.0409  0.0307
 3396POPS   C3A41011  20.283  28.427  16.796 -0.0165 -0.0818  0.0804
 3396POPS   C4A41012  20.701  28.354  17.055  0.1236 -0.1927  0.0351
 3396POPS   C1B41013  20.454  28.361  15.706 -0.1401 -0.0371 -0.1502
 3396POPS   C2B41014  20.245  28.001  15.929  0.2864 -0.1442  0.1568
 3396POPS   C3B41015  19.977  27.733  16.205  0.1118  0.1470 -0.0415
 3396POPS   C4B41016  19.656  27.465  16.481  0.0724  0.0628 -0.0537
 3397POPS   CNO41017   3.195   1.895  15.160 -0.0181  0.1101 -0.2451
 3397POPS   PO441018   2.822   1.856  15.119  0.1804  0.2266 -0.5614
 3397POPS   GL141019   2.918   1.702  15.446 -0.1366  0.0145 -0.0471
 3397POPS   GL241020   2.671   1.735  15.632  0.0799 -0.0323 -0.0310
 3397POPS   C1A41021   3.084   1.779  15.879  0.3926  0.0053  0.1697
 3397POPS   D2A41022   3.088   1.793  16.320 -0.2973  0.4010 -0.0542
 3397POPS   C3A41023   3.344   1.455  16.540  0.0602 -0.1648  0.2308
 3397POPS   C4A41024   3.378   0.999  16.712 -0.1426  0.2328 -0.1579
 3397POPS   C1B41025   2.556   1.594  16.076 -0.1133 -0.2050 -0.1011
 3397POPS   C2B41026   2.695   1.563  16.540 -0.0446  0.1672 -0.0381
 3397POPS   C3B41027   2.773   1.634  17.008  0.0690  0.0899  0.0428
 3397POPS   C4B41028   2.967   1.536  17.436  0.3032 -0.0585  0.2570
 3398POPS   CNO41029   9.283   5.009  14.852  0.0048  0.4035 -0.2569
 3398POPS   PO441030   9.192   5.035  15.229 -0.1298 -0.1378  0.0546
 3398POPS   GL141031   9.016   4.795  15.533 -0.1800 -0.3873 -0.3573
 3398POPS   GL241032   8.806   4.610  15.549  0.1798 -0.1486 -0.0983
 3398POPS   C1A41033   9.144   4.694  15.980  0.0725 -0.1220  0.4543
 3398POPS   D2A41034   9.398   4.626  16.353  0.3994  0.1470  0.1968
 3398POPS   C3A41035   9.148   4.546  16.740  0.0153 -0.1634 -0.0626
 3398POPS   C4A41036   8.978   4.293  17.076 -0.2038  0.2222 -0.0042
 3398POPS   C1B41037   8.689   4.524  15.985 -0.1085 -0.1534 -0.1500
 3398POPS   C2B41038   8.620   4.504  16.431 -0.0348 -0.0073 -0.0382
 3398POPS   C3B41039   8.711   4.742  16.803  0.0366 -0.3684 -0.0107
 3398POPS   C4B41040   8.727   5.205  16.854 -0.0430  0.3792  0.0626
 3399POPS   CNO41041  24.157  13.199  14.817  0.0517  0.2688 -0.3838
 3399POPS   PO441042  24.229  13.142  15.187  0.0124  0.0408 -0.0661
 3399POPS   GL141043  24.299  13.340  15.523 -0.1279 -0.1597  0.5522
 3399POPS   GL241044  24.038  13.415  15.683 -0.1664 -0.0896 -0.0339
 3399POPS   C1A41045  24.464  13.055  15.835  0.3450  0.1470 -0.4400
 3399POPS   D2A41046  24.767  12.802  16.177  0.0398  0.0403  0.0714
 3399POPS   C3A41047  25.005  13.004  16.487 -0.0851  0.0895  0.2163
 3399POPS   C4A41048  25.112  13.344  16.725 -0.0395 -0.2965 -0.2444
 3399POPS   C1B41049  23.851  13.387  16.130  0.2868  0.0484 -0.1967
 3399POPS   C2B41050  24.117  13.308  16.538 -0.0792 -0.0507 -0.0499
 3399POPS   C3B41051  24.225  13.122  16.971 -0.0693 -0.1788 -0.1140
 3399POPS   C4B41052  24.713  13.023  17.006  0.0017  0.2339  0.1883
 3400POPS   CNO41053   6.874   2.159  15.337  0.1166 -0.1362 -0.0485
 3400POPS   PO441054   7.201   2.263  15.435  0.2023  0.0703  0.0681
 3400POPS   GL141055   6.867   2.207  15.797 -0.3714 -0.2383  0.0346
 3400POPS   GL241056   6.883   1.954  15.793 -0.1847  0.1955 -0.4081
 3400POPS   C1A41057   6.444   2.324  15.968  0.0597 -0.1419 -0.1818
 3400POPS   D2A41058   6.343   2.291  16.378  0.1021 -0.1069  0.0715
 3400POPS   C3A41059   6.492   1.913  16.599 -0.0403 -0.1966 -0.2438
 3400POPS   C4A41060   6.765   1.612  16.786 -0.1976 -0.1006 -0.1474
 3400POPS   C1B41061   7.177   1.748  16.145  0.2849 -0.0615 -0.0220
 3400POPS   C2B41062   7.361   1.657  16.579  0.0116 -0.1039  0.3036
 3400POPS   C3B41063   7.669   1.660  16.976  0.0080 -0.1503  0.4986
 3400POPS   C4B41064   7.713   1.783  17.365  0.3034 -0.2100  0.1600
 3401POPS   CNO41065  14.811  13.215  15.411  0.1253  0.1601 -0.2458
 3401POPS   PO441066  14.960  12.869  15.442 -0.1055 -0.0602  0.5479
 3401POPS   GL141067  15.182  12.664  15.689  0.4624 -0.0622  0.4996
 3401POPS   GL241068  15.052  12.801  15.892  0.0091  0.1959 -0.1454
 3401POPS   C1A41069  15.172  12.330  16.010  0.3456 -0.2132  0.2480
 3401POPS   D2A41070  14.991  12.326  16.456 -0.1448  0.2632  0.1208
 3401POPS   C3A41071  14.811  11.914  16.606  0.2939  0.2290 -0.2410
 3401POPS   C4A41072  14.559  11.612  16.958 -0.2289 -0.0935  0.0035
 3401POPS   C1B41073  14.745  12.915  16.213  0.2467  0.1370 -0.0792
 3401POPS   C2B41074  14.697  13.092  16.651 -0.1595  0.0119  0.0091
 3401POPS   C3B41075  14.856  13.068  17.056  0.0820 -0.1204  0.0915
 3401POPS   C4B41076  15.155  12.783  17.213 -0.0559 -0.1274 -0.0671
 3402POPS   CNO41077   6.468   2.839  15.040  0.3277  0.0590  0.0020
 3402POPS   PO441078   6.535   3.120  15.284 -0.3305  0.0149  0.1166
 3402POPS   GL141079   6.481   3.338  15.603  0.0718 -0.2646 -0.3003
 3402POPS   GL241080   6.590   3.626  15.582 -0.4347 -0.1538 -0.2285
 3402POPS   C1A41081   6.454   3.302  16.094 -0.0709 -0.1867 -0.0641
 3402POPS   D2A41082   6.552   3.367  16.545 -0.1179 -0.0209  0.1812
 3402POPS   C3A41083   6.368   3.175  16.881  0.2163 -0.1201  0.2934
 3402POPS   C4A41084   5.916   3.149  16.993 -0.1277 -0.2385  0.2681
 3402POPS   C1B41085   6.765   3.914  15.885 -0.0656 -0.1850 -0.0466
 3402POPS   C2B41086   6.815   4.188  16.197 -0.2409 -0.1030  0.0358
 3402POPS   C3B41087   6.921   4.339  16.676 -0.1315 -0.1214  0.2119
 3402POPS   C4B41088   6.923   4.677  16.962  0.2479  0.2173 -0.2565
 3403POPS   CNO41089  29.931   2.690  14.978  0.0964  0.1501 -0.2593
 3403POPS   PO441090  29.921   2.489  15.285 -0.3760  0.0518  0.0083
 3403POPS   GL141091  29.620   2.202  15.527  0.1085 -0.4996 -0.0712
 3403POPS   GL241092  29.715   1.922  15.606 -0.0064  0.0190 -0.0096
 3403POPS   C1A41093  29.490   2.180  16.013  0.2020 -0.2497 -0.1475
 3403POPS   D2A41094  29.295   2.295  16.448  0.1810 -0.0276  0.0129
 3403POPS   C3A41095  29.230   1.976  16.795 -0.0978 -0.0823  0.2799
 3403POPS   C4A41096  28.933   1.874  17.154 -0.0450 -0.2712  0.2205
 3403POPS   C1B41097  29.891   1.868  16.069  0.0918 -0.0714  0.4429
 3403POPS   C2B41098  29.669   1.898  16.430 -0.1631  0.0650  0.4686
 3403POPS   C3B41099  29.682   1.721  16.860  0.0412  0.1185  0.0647
 3403POPS   C4B41100  29.561   1.908  17.264 -0.1719 -0.1691  0.0419
 3404POPS   CNO41101  16.861  15.301  14.755 -0.1997  0.1885  0.0660
 3404POPS   PO441102  17.023  15.471  15.067  0.1023 -0.0696 -0.0819
 3404POPS   GL141103  17.151  15.510  15.474  0.1348 -0.3140  0.2217
 3404POPS   GL241104  16.897  15.438  15.548 -0.2821  0.0573  0.0357
 3404POPS   C1A41105  17.485  15.628  15.700  0.0504  0.0196  0.2239
 3404POPS   D2A41106  17.780  15.642  16.061 -0.1106 -0.2748  0.0768
 3404POPS   C3A41107  17.763  15.859  16.424  0.0616  0.2443  0.0021
 3404POPS   C4A41108  17.721  16.128  16.845  0.0106 -0.2083 -0.1384
 3404POPS   C1B41109  17.103  15.497  15.929 -0.4057 -0.2118 -0.0266
 3404POPS   C2B41110  17.233  15.669  16.326  0.0364 -0.1574 -0.0819
 3404POPS   C3B41111  17.241  15.580  16.729 -0.1163  0.0834 -0.0171
 3404POPS   C4B41112  17.415  15.813  17.106 -0.0596 -0.2888 -0.1359
 3405POPS   CNO41113  24.333   0.416  14.977 -0.1100 -0.1224  0.2069
 3405POPS   PO441114  23.991   0.300  15.088  0.2984 -0.3256 -0.0095
 3405POPS   GL141115  24.063   0.323  15.484 -0.2909  0.3396  0.2499
 3405POPS   GL241116  23.972   0.450  15.646 -0.0283 -0.0788  0.3790
 3405POPS   C1A41117  24.151   0.004  15.818  0.0107  0.5479  0.0389
 3405POPS   D2A41118  24.035  -0.267  16.179  0.1374  0.4882 -0.0955
 3405POPS   C3A41119  24.265  -0.435  16.606  0.0951 -0.0908 -0.3631
 3405POPS   C4A41120  24.666  -0.600  16.822 -0.1143  0.2414  0.1563
 3405POPS   C1B41121  23.592   0.321  15.734  0.1690  0.0170 -0.1981
 3405POPS   C2B41122  23.178   0.359  15.962 -0.1600  0.2499  0.3310
 3405POPS   C3B41123  23.069   0.151  16.370  0.1261  0.0518  0.1362
 3405POPS   C4B41124  23.054   0.008  16.833 -0.4223  0.4733 -0.1207
 3406POPS   CNO41125  21.584  13.846  14.898  0.1181 -0.0734  0.2715
 3406POPS   PO441126  21.293  13.652  15.014  0.0627 -0.1173 -0.0965
 3406POPS   GL141127  21.396  13.715  15.380 -0.2982 -0.2916 -0.4000
 3406POPS   GL241128  21.517  13.522  15.596 -0.0570 -0.0990  0.2302
 3406POPS   C1A41129  21.194  13.930  15.767  0.3090  0.0741 -0.0069
 3406POPS   D2A41130  20.818  13.773  15.988 -0.1315 -0.3189 -0.1562
 3406POPS   C3A41131  20.709  13.764  16.396 -0.1897  0.1625  0.0202
 3406POPS   C4A41132  20.647  13.697  16.814 -0.1364  0.1827 -0.0518
 3406POPS   C1B41133  21.365  13.513  15.977 -0.5406 -0.2934  0.1700
 3406POPS   C2B41134  21.337  13.297  16.440 -0.0793  0.1658  0.1601
 3406POPS   C3B41135  21.361  13.159  16.864  0.1367  0.1098  0.2645
 3406POPS   C4B41136  21.305  13.266  17.357  0.0952 -0.0834 -0.1194
 3407POPS   CNO41137  21.294  17.132  14.887 -0.0862 -0.1688 -0.3934
 3407POPS   PO441138  21.607  17.359  14.985 -0.0227  0.1989  0.0811
 3407POPS   GL141139  21.548  17.306  15.357 -0.0114  0.0048  0.0536
 3407POPS   GL241140  21.583  17.527  15.565  0.2224  0.1649 -0.1342
 3407POPS   C1A41141  21.431  17.043  15.740 -0.1407  0.1818 -0.0065
 3407POPS   D2A41142  21.108  16.936  16.073 -0.2936 -0.4174  0.1472
 3407POPS   C3A41143  21.160  16.611  16.362  0.2906  0.0445 -0.0995
 3407POPS   C4A41144  21.138  16.237  16.653 -0.0288  0.1576  0.2688
 3407POPS   C1B41145  21.225  17.578  15.863  0.0438 -0.1785  0.1691
 3407POPS   C2B41146  21.097  17.676  16.264  0.0348 -0.0525 -0.1904
 3407POPS   C3B41147  21.076  17.942  16.678 -0.0632 -0.0173 -0.2933
 3407POPS   C4B41148  21.232  17.867  17.075  0.0148  0.5103 -0.2050
 3408POPS   CNO41149  12.073  27.599  14.937  0.1202  0.0329 -0.3119
 3408POPS   PO441150  11.804  27.449  15.187 -0.0940  0.0110  0.1129
 3408POPS   GL141151  11.911  27.185  15.582  0.2339 -0.0223  0.1988
 3408POPS   GL241152  11.968  26.939  15.470 -0.1554  0.1345  0.0347
 3408POPS   C1A41153  11.611  27.005  15.880 -0.2801  0.2586 -0.1341
 3408POPS   D2A41154  11.386  26.961  16.283  0.0689  0.4921  0.2037
 3408POPS   C3A41155  11.323  27.200  16.666  0.0603  0.4422  0.1571
 3408POPS   C4A41156  11.058  27.278  17.014  0.0231  0.0858 -0.2382
 3408POPS   C1B41157  12.070  26.803  15.893  0.1024  0.0848 -0.0537
 3408POPS   C2B41158  12.186  26.752  16.411  0.2158 -0.2300 -0.0253
 3408POPS   C3B41159  12.183  26.596  16.860  0.1139 -0.0139 -0.0001
 3408POPS   C4B41160  12.211  26.487  17.330  0.1572 -0.1232 -0.0977
 3409POPS   CNO41161  23.622   3.148  14.726 -0.3468  0.1378 -0.0898
 3409POPS   PO441162  23.773   3.357  15.019 -0.1631  0.2876 -0.1228
 3409POPS   GL141163  23.726   3.247  15.441 -0.1255  0.2643 -0.0911
 3409POPS   GL241164  23.700   2.986  15.448 -0.0577 -0.3352  0.1455
 3409POPS   C1A41165  23.880   3.491  15.792 -0.2026  0.2762  0.0307
 3409POPS   D2A41166  24.117   3.728  16.150  0.2044 -0.2977  0.2867
 3409POPS   C3A41167  24.269   3.659  16.635  0.1697  0.1437  0.2994
 3409POPS   C4A41168  24.504   3.646  17.032  0.0541 -0.1586  0.1933
 3409POPS   C1B41169  23.686   2.983  15.916 -0.0125 -0.0141  0.1877
 3409POPS   C2B41170  23.544   2.920  16.388 -0.1473 -0.2593  0.1733
 3409POPS   C3B41171  23.521   3.011  16.801 -0.1004  0.0239  0.2751
 3409POPS   C4B41172  23.566   2.930  17.244  0.3140 -0.0579  0.2758
 3410POPS   CNO41173  28.824  17.291  14.716  0.0227  0.2274 -0.3512
 3410POPS   PO441174  28.792  17.048  14.990  0.0826 -0.1380  0.0369
 3410POPS   GL141175  28.817  17.390  15.275  0.0483 -0.1210 -0.0316
 3410POPS   GL241176  29.057  17.551  15.366 -0.0622  0.1465  0.3052
 3410POPS   C1A41177  28.659  17.825  15.416  0.0620 -0.0272  0.3960
 3410POPS   D2A41178  28.552  18.188  15.715 -0.0130 -0.1370  0.1145
 3410POPS   C3A41179  28.776  18.330  16.124 -0.0974 -0.3060 -0.1110
 3410POPS   C4A41180  29.098  18.687  16.221 -0.0620 -0.3306 -0.2560
 3410POPS   C1B41181  28.830  17.424  15.732  0.0825 -0.1028 -0.0594
 3410POPS   C2B41182  28.696  17.380  16.170  0.0402 -0.1861 -0.1453
 3410POPS   C3B41183  28.632  17.226  16.624 -0.1653 -0.1165  0.1010
 3410POPS   C4B41184  28.812  17.254  17.056 -0.2603 -0.1078 -0.0723
 3411POPS   CNO41185  13.069  21.392  14.940  0.0319  0.3937 -0.0688
 3411POPS   PO441186  13.413  21.327  15.087  0.0664 -0.5409 -0.0984
 3411POPS   GL141187  13.501  21.239  15.372  0.1221 -0.1179  0.2382
 3411POPS   GL241188  13.485  20.932  15.519 -0.0684  0.1068 -0.1869
 3411POPS   C1A41189  13.497  21.432  15.795 -0.0900  0.0067  0.0190
 3411POPS   D2A41190  13.409  21.392  16.293  0.3602 -0.2958 -0.0523
 3411POPS   C3A41191  13.656  21.317  16.678  0.2162 -0.1079  0.1716
 3411POPS   C4A41192  13.753  21.399  17.073 -0.1815  0.2767  0.1494
 3411POPS   C1B41193  13.100  21.100  15.706 -0.0110 -0.1950  0.0333
 3411POPS   C2B41194  12.940  21.097  16.142  0.0782 -0.1193  0.1041
 3411POPS   C3B41195  12.671  21.061  16.496 -0.1226  0.0690  0.0826
 3411POPS   C4B41196  12.692  21.002  17.022 -0.0695  0.0224  0.0267
 3412POPS   CNO41197  24.714   2.392  14.890  0.0180  0.0534  0.2011
 3412POPS   PO441198  24.470   2.459  15.160  0.0791  0.1943 -0.1170
 3412POPS   GL141199  24.232   2.751  15.306 -0.0402  0.4319  0.0810
 3412POPS   GL241200  24.291   2.956  15.213 -0.0081 -0.0356 -0.0228
 3412POPS   C1A41201  23.898   2.609  15.645 -0.0603 -0.3153 -0.1345
 3412POPS   D2A41202  23.965   2.494  16.076 -0.1146 -0.0313 -0.2036
 3412POPS   C3A41203  24.029   2.898  16.373 -0.1038  0.0707  0.4588
 3412POPS   C4A41204  24.271   3.146  16.700  0.0194 -0.2555 -0.0104
 3412POPS   C1B41205  24.215   3.122  15.631 -0.0269 -0.1663  0.0943
 3412POPS   C2B41206  24.282   3.212  16.076  0.0459 -0.0290 -0.1708
 3412POPS   C3B41207  24.599   3.415  16.335  0.3007 -0.1337 -0.3034
 3412POPS   C4B41208  24.867   3.776  16.481 -0.0069  0.0066 -0.0300
 3413POPS   CNO41209   2.799  30.899  14.341 -0.1772 -0.2278 -0.1272
 3413POPS   PO441210   2.919  30.668  14.579  0.1849  0.1520 -0.1181
 3413POPS   GL141211   3.041  30.585  14.925  0.0810  0.0687 -0.0318
 3413POPS   GL241212   3.067  30.859  15.080  0.1262 -0.1685 -0.0791
 3413POPS   C1A41213   2.975  30.491  15.396 -0.2867 -0.2095  0.2261
 3413POPS   D2A41214   3.214  30.476  15.837 -0.0859 -0.0468 -0.1752
 3413POPS   C3A41215   3.055  30.149  16.067  0.0529  0.2047 -0.2107
 3413POPS   C4A41216   3.219  29.773  15.893 -0.1026  0.1881 -0.1394
 3413POPS   C1B41217   2.979  30.914  15.553 -0.1550  0.1327 -0.1684
 3413POPS   C2B41218   3.139  31.004  15.998  0.0208  0.6240 -0.0208
 3413POPS   C3B41219   3.245  30.958  16.413 -0.0460  0.0569  0.3441
 3413POPS   C4B41220   3.529  30.770  16.592  0.0807 -0.1505 -0.3555
 3414POPS   CNO41221   0.048   6.709  15.420 -0.1819 -0.3388 -0.2798
 3414POPS   PO441222   0.216   7.034  15.489 -0.1597  0.1810  0.2947
 3414POPS   GL141223   0.132   6.943  15.909  0.3080 -0.3131  0.2664
 3414POPS   GL241224   0.400   7.032  15.932  0.0447  0.1301 -0.2364
 3414POPS   C1A41225  -0.093   6.752  16.261  0.2790  0.1862  0.1168
 3414POPS   D2A41226  -0.336   6.602  16.660  0.1451  0.0493 -0.2280
 3414POPS   C3A41227  -0.603   6.202  16.682  0.0793  0.0057 -0.2524
 3414POPS   C4A41228  -0.959   6.076  16.921 -0.2158  0.0018  0.1163
 3414POPS   C1B41229   0.197   7.192  16.267 -0.3862 -0.0912 -0.0451
 3414POPS   C2B41230  -0.072   7.080  16.626  0.2487 -0.1668  0.0324
 3414POPS   C3B41231  -0.252   6.967  17.074 -0.2506  0.1723 -0.2309
 3414POPS   C4B41232  -0.680   6.918  17.273  0.2929  0.1196 -0.0582
 3415POPS   CNO41233  19.948  10.206  14.751 -0.1967  0.1008  0.1141
 3415POPS   PO441234  20.083  10.368  15.074  0.1916 -0.3471 -0.3041
 3415POPS   GL141235  20.078  10.079  15.418 -0.1295 -0.1634 -0.1229
 3415POPS   GL241236  19.851  10.109  15.601 -0.0769 -0.0702 -0.2048
 3415POPS   C1A41237  20.303  10.200  15.840  0.3221  0.1376  0.1432
 3415POPS   D2A41238  20.573   9.950  16.034 -0.0542 -0.2461  0.0713
 3415POPS   C3A41239  20.762   9.665  16.353  0.0229  0.0596 -0.2669
 3415POPS   C4A41240  20.577   9.532  16.773  0.0172  0.0889 -0.0369
 3415POPS   C1B41241  19.844  10.050  16.092  0.0043 -0.2074  0.2635
 3415POPS   C2B41242  19.865   9.862  16.497  0.1296 -0.1172 -0.1715
 3415POPS   C3B41243  19.530   9.623  16.733  0.2875 -0.0814 -0.0718
 3415POPS   C4B41244  19.227   9.659  17.079 -0.1881 -0.1382 -0.2985
 3416POPS   CNO41245   2.736  24.277  15.165 -0.0302  0.1972 -0.2804
 3416POPS   PO441246   2.617  24.270  15.559 -0.0639  0.4367 -0.0825
 3416POPS   GL141247   2.584  24.362  15.951  0.0229  0.0158  0.0919
 3416POPS   GL241248   2.921  24.408  15.869  0.2807 -0.2530  0.0615
 3416POPS   C1A41249   2.381  24.250  16.322  0.0282 -0.3269  0.2152
 3416POPS   D2A41250   2.121  23.970  16.602  0.3171 -0.0018  0.1595
 3416POPS   C3A41251   1.923  23.570  16.858 -0.2751  0.2742  0.2340
 3416POPS   C4A41252   1.795  23.228  17.221 -0.3092  0.0706  0.3286
 3416POPS   C1B41253   2.899  24.371  16.307 -0.1573  0.0611 -0.2533
 3416POPS   C2B41254   2.757  24.643  16.608  0.2866  0.0212 -0.0035
 3416POPS   C3B41255   2.511  24.734  16.995  0.2429 -0.3123  0.3578
 3416POPS   C4B41256   2.329  24.948  17.365 -0.1249  0.1582 -0.2578
 3417POPS   CNO41257  27.782   8.459  14.503 -0.0597 -0.1261 -0.0058
 3417POPS   PO441258  27.857   8.471  14.854  0.0368 -0.0931 -0.0440
 3417POPS   GL141259  27.918   8.407  15.231  0.0929 -0.2288  0.1655
 3417POPS   GL241260  27.668   8.321  15.357 -0.0112  0.2926  0.4090
 3417POPS   C1A41261  28.046   8.006  15.394  0.0587  0.1652 -0.1151
 3417POPS   D2A41262  28.001   7.659  15.751  0.0873 -0.0193  0.1989
 3417POPS   C3A41263  28.224   7.702  16.168  0.2855 -0.0379  0.1699
 3417POPS   C4A41264  28.632   7.740  16.336  0.1285 -0.1169 -0.1745
 3417POPS   C1B41265  27.605   8.131  15.751  0.1124  0.2667 -0.2266
 3417POPS   C2B41266  27.845   8.050  16.100 -0.3229  0.3156 -0.1337
 3417POPS   C3B41267  28.051   8.067  16.558 -0.0034 -0.0325  0.0382
 3417POPS   C4B41268  28.220   8.058  17.037 -0.0192 -0.0692  0.0972
 3418POPS   CNO41269   9.325  12.222  15.290 -0.3095  0.1994  0.2824
 3418POPS   PO441270   9.652  12.147  15.172 -0.2710  0.1553  0.0223
 3418POPS   GL141271   9.723  12.356  15.566 -0.2571  0.2602  0.0171
 3418POPS   GL241272   9.601  12.607  15.578 -0.1572  0.1114  0.2044
 3418POPS   C1A41273   9.918  12.499  16.007 -0.1232 -0.1250  0.0169
 3418POPS   D2A41274   9.960  12.452  16.497 -0.2008 -0.1282 -0.0450
 3418POPS   C3A41275   9.775  12.152  16.790 -0.2370 -0.0726  0.0119
 3418POPS   C4A41276   9.425  11.795  16.740 -0.0473 -0.0787 -0.0498
 3418POPS   C1B41277   9.148  12.537  15.788 -0.4428 -0.2648  0.0680
 3418POPS   C2B41278   9.045  12.377  16.221  0.3031 -0.1824  0.0228
 3418POPS   C3B41279   8.986  12.107  16.568 -0.0862  0.2704 -0.0689
 3418POPS   C4B41280   8.892  11.873  16.942 -0.1309 -0.2378 -0.0598
 3419POPS   CNO41281   8.606  13.015  14.665 -0.0839 -0.0444  0.2257
 3419POPS   PO441282   8.769  12.987  14.996  0.4185  0.5121 -0.1435
 3419POPS   GL141283   8.675  13.078  15.364 -0.2470  0.1148 -0.0289
 3419POPS   GL241284   8.502  12.838  15.492  0.1181  0.1522 -0.2766
 3419POPS   C1A41285   8.917  12.945  15.700 -0.1956 -0.0198  0.3674
 3419POPS   D2A41286   8.986  13.012  16.155 -0.1434 -0.0569 -0.1978
 3419POPS   C3A41287   9.002  12.978  16.647 -0.1183 -0.1178 -0.0631
 3419POPS   C4A41288   9.166  13.310  16.915 -0.0208  0.1200  0.1730
 3419POPS   C1B41289   8.165  12.865  15.862  0.2865 -0.1737  0.0875
 3419POPS   C2B41290   8.239  12.681  16.247 -0.0877 -0.0666 -0.0311
 3419POPS   C3B41291   8.229  12.492  16.635  0.0367  0.0006 -0.1064
 3419POPS   C4B41292   8.356  12.239  17.066  0.1623 -0.1183  0.2754
 3420POPS   CNO41293  14.136   4.895  14.926 -0.1974  0.0290  0.3118
 3420POPS   PO441294  14.349   5.026  15.199  0.0290  0.1792  0.1246
 3420POPS   GL141295  14.285   5.209  15.605  0.2372  0.3642  0.0022
 3420POPS   GL241296  14.187   5.066  15.862 -0.0798  0.0826  0.0595
 3420POPS   C1A41297  14.247   5.583  15.913 -0.4100  0.0283 -0.3914
 3420POPS   D2A41298  14.135   5.811  16.300  0.1733 -0.4820  0.1803
 3420POPS   C3A41299  14.235   5.873  16.762  0.0657  0.0429  0.1128
 3420POPS   C4A41300  14.214   5.816  17.203 -0.0805 -0.3802 -0.2949
 3420POPS   C1B41301  14.278   5.254  16.258 -0.0690  0.0630  0.1981
 3420POPS   C2B41302  14.230   5.408  16.674  0.2237  0.3869 -0.1067
 3420POPS   C3B41303  14.305   5.362  17.127  0.4457 -0.1066  0.0159
 3420POPS   C4B41304  14.736   5.414  17.321 -0.1390  0.3605  0.0432
 3421POPS   CNO41305  15.623  22.847  15.375  0.1543  0.1168 -0.0149
 3421POPS   PO441306  15.252  22.842  15.294  0.0771 -0.2280  0.0013
 3421POPS   GL141307  15.127  22.661  15.660  0.0643  0.0908  0.1138
 3421POPS   GL241308  15.344  22.494  15.678  0.1891 -0.2028  0.1539
 3421POPS   C1A41309  14.942  22.604  16.032 -0.2832  0.2295 -0.1850
 3421POPS   D2A41310  14.864  22.188  16.214 -0.0060  0.2345 -0.2288
 3421POPS   C3A41311  14.780  22.092  16.640  0.1430 -0.1461  0.0180
 3421POPS   C4A41312  14.612  22.222  17.065 -0.0112 -0.0424  0.1187
 3421POPS   C1B41313  15.470  22.423  16.112  0.4060  0.1997 -0.1170
 3421POPS   C2B41314  15.780  22.341  16.430  0.1156 -0.1460  0.0802
 3421POPS   C3B41315  16.074  22.346  16.730  0.3281  0.0986 -0.1830
 3421POPS   C4B41316  16.552  22.363  16.839 -0.0011 -0.0640 -0.4182
 3422POPS   CNO41317   9.187  17.390  15.185  0.0610 -0.0644  0.0040
 3422POPS   PO441318   8.971  17.718  15.192 -0.2769 -0.1056  0.2288
 3422POPS   GL141319   8.829  17.493  15.473  0.0042  0.1346  0.0427
 3422POPS   GL241320   8.914  17.249  15.612  0.1947 -0.0515 -0.0400
 3422POPS   C1A41321   8.534  17.430  15.849  0.1319  0.1175  0.2326
 3422POPS   D2A41322   8.136  17.478  16.055  0.0140 -0.0213  0.0094
 3422POPS   C3A41323   8.220  17.771  16.386  0.0250  0.3451 -0.2801
 3422POPS   C4A41324   8.340  18.036  16.756  0.2699 -0.2274 -0.0033
 3422POPS   C1B41325   9.026  17.166  16.090 -0.0835 -0.1001  0.0359
 3422POPS   C2B41326   9.057  17.313  16.582 -0.2188  0.1487 -0.2903
 3422POPS   C3B41327   8.733  17.159  16.869 -0.5751 -0.0969 -0.1265
 3422POPS   C4B41328   8.387  16.914  17.101  0.2214 -0.4250  0.0356
 3423POPS   CNO41329  10.472  28.955  14.697  0.1385  0.2775  0.1926
 3423POPS   PO441330  10.539  29.004  15.050  0.1465 -0.2104  0.0756
 3423POPS   GL141331  10.548  29.046  15.507  0.0748  0.0996  0.1638
 3423POPS   GL241332  10.356  29.151  15.776 -0.1731  0.0096  0.1860
 3423POPS   C1A41333  10.595  28.668  15.849 -0.2269  0.0698  0.0199
 3423POPS   D2A41334  10.705  28.471  16.268  0.0176 -0.0239  0.0372
 3423POPS   C3A41335  10.827  28.678  16.655 -0.0254  0.0731 -0.3537
 3423POPS   C4A41336  10.738  28.954  17.056  0.0332  0.1128 -0.1093
 3423POPS   C1B41337  10.683  29.414  15.876 -0.0050 -0.0237 -0.1706
 3423POPS   C2B41338  10.799  29.542  16.269  0.0530 -0.1261 -0.1860
 3423POPS   C3B41339  10.899  29.696  16.695 -0.1696  0.1393  0.0917
 3423POPS   C4B41340  10.846  29.513  17.121  0.1742 -0.1137  0.0881
 3424POPS   CNO41341   4.241  25.476  14.920 -0.3046 -0.0383  0.0799
 3424POPS   PO441342   4.580  25.327  15.089 -0.0308  0.4589  0.0665
 3424POPS   GL141343   4.505  25.357  15.491 -0.1117  0.2834 -0.2819
 3424POPS   GL241344   4.739  25.117  15.533  0.1900 -0.0225  0.0456
 3424POPS   C1A41345   4.800  25.508  15.817  0.0991  0.0029  0.0859
 3424POPS   D2A41346   4.847  25.607  16.234 -0.1063 -0.1465  0.0776
 3424POPS   C3A41347   5.027  25.470  16.629 -0.0582  0.3751  0.0495
 3424POPS   C4A41348   4.828  25.363  17.068 -0.2035 -0.1381  0.3000
 3424POPS   C1B41349   4.702  25.009  15.996 -0.2405 -0.0231  0.1174
 3424POPS   C2B41350   4.760  25.086  16.457  0.0974  0.3816 -0.0280
 3424POPS   C3B41351   4.801  24.941  16.892  0.1445  0.0843  0.1588
 3424POPS   C4B41352   4.957  24.930  17.360  0.0862  0.0937 -0.0899
 3425POPS   CNO41353  17.511  19.931  14.827 -0.2380  0.1453 -0.0538
 3425POPS   PO441354  17.789  19.895  15.048  0.0036 -0.0451 -0.2630
 3425POPS   GL141355  17.940  20.081  15.416 -0.3632  0.2012  0.2921
 3425POPS   GL241356  17.745  20.270  15.495  0.0803 -0.0134  0.0193
 3425POPS   C1A41357  18.168  19.953  15.837  0.1849  0.1051 -0.1401
 3425POPS   D2A41358  18.245  20.106  16.254 -0.0499  0.2313  0.2079
 3425POPS   C3A41359  18.123  20.120  16.677  0.1862 -0.2103 -0.1501
 3425POPS   C4A41360  18.299  19.988  17.126  0.0431 -0.0169 -0.0775
 3425POPS   C1B41361  17.757  20.385  15.952  0.0304  0.0470  0.1861
 3425POPS   C2B41362  17.850  20.498  16.432  0.1636 -0.0776 -0.2672
 3425POPS   C3B41363  18.061  20.586  16.841 -0.1405  0.2374  0.0476
 3425POPS   C4B41364  18.310  20.601  17.207 -0.0418 -0.2265  0.2723
 3426POPS   CNO41365  26.613  25.034  15.331 -0.0316 -0.0887 -0.0947
 3426POPS   PO441366  26.786  24.708  15.378  0.2818  0.0841  0.0943
 3426POPS   GL141367  26.904  24.594  15.746 -0.1826 -0.0308 -0.0940
 3426POPS   GL241368  26.675  24.382  15.735 -0.0433  0.2263  0.1264
 3426POPS   C1A41369  27.169  24.727  16.079  0.1046  0.0758  0.0145
 3426POPS   D2A41370  27.386  25.154  16.175  0.0365  0.1482  0.0201
 3426POPS   C3A41371  27.849  25.227  16.119  0.2004  0.0887  0.1181
 3426POPS   C4A41372  28.290  25.077  16.239 -0.1163 -0.2106 -0.1852
 3426POPS   C1B41373  26.682  24.423  16.221  0.0100 -0.1803  0.4768
 3426POPS   C2B41374  26.917  24.381  16.644  0.0824 -0.0582  0.2794
 3426POPS   C3B41375  27.031  24.019  16.834  0.0161  0.0507 -0.0760
 3426POPS   C4B41376  26.973  23.854  17.300  0.1563 -0.1307  0.0226
 3427POPS   CNO41377  13.771  15.537  15.036  0.0021  0.1434 -0.0511
 3427POPS   PO441378  13.760  15.861  15.240 -0.1948  0.6959  0.3640
 3427POPS   GL141379  13.868  16.343  15.429 -0.0628 -0.0685  0.3050
 3427POPS   GL241380  13.900  16.342  15.718  0.0179  0.0770  0.2667
 3427POPS   C1A41381  13.596  16.667  15.501  0.1500  0.0680  0.4377
 3427POPS   D2A41382  13.434  16.966  15.747 -0.0778 -0.0617 -0.0711
 3427POPS   C3A41383  13.202  17.355  15.646 -0.2781 -0.1688  0.1213
 3427POPS   C4A41384  12.887  17.449  15.983 -0.2088 -0.0755  0.0199
 3427POPS   C1B41385  13.696  16.370  16.117  0.4118 -0.0643  0.0634
 3427POPS   C2B41386  13.549  16.551  16.576  0.1711 -0.1917  0.0047
 3427POPS   C3B41387  13.181  16.706  16.803 -0.0306  0.1686 -0.2212
 3427POPS   C4B41388  13.137  16.563  17.257 -0.4869  0.0054 -0.1184
 3428POPS   CNO41389  22.335  31.351  14.848  0.2275 -0.2305  0.0792
 3428POPS   PO441390  22.584  31.282  15.142  0.1012  0.0209  0.1286
 3428POPS   GL141391  22.770  31.404  15.424 -0.2628 -0.1270 -0.0520
 3428POPS   GL241392  22.768  31.648  15.674 -0.0289 -0.1611 -0.1429
 3428POPS   C1A41393  22.854  31.196  15.815  0.0964  0.0766  0.1597
 3428POPS   D2A41394  22.979  30.989  16.225 -0.0223  0.2640 -0.2465
 3428POPS   C3A41395  22.859  31.144  16.648  0.1488  0.3458 -0.2374
 3428POPS   C4A41396  22.591  30.916  17.008  0.2770  0.0233 -0.2775
 3428POPS   C1B41397  22.673  31.730  16.101 -0.1764  0.1971 -0.0499
 3428POPS   C2B41398  22.645  31.556  16.570 -0.1549 -0.3150 -0.1278
 3428POPS   C3B41399  22.503  31.411  16.984  0.2895  0.0189  0.0962
 3428POPS   C4B41400  22.156  31.537  17.273  0.1988  0.0562  0.2580
 3429POPS   CNO41401   2.245  12.341  14.634  0.0679 -0.0900  0.0865
 3429POPS   PO441402   2.158  12.441  15.017  0.2675  0.0771 -0.1848
 3429POPS   GL141403   2.004  12.368  15.372  0.0650 -0.1681  0.0675
 3429POPS   GL241404   1.763  12.266  15.479  0.4712  0.1979 -0.0790
 3429POPS   C1A41405   2.190  12.170  15.744 -0.4798 -0.2334 -0.0831
 3429POPS   D2A41406   2.314  12.159  16.183  0.1820 -0.0786  0.2315
 3429POPS   C3A41407   2.396  11.777  16.431 -0.0656 -0.1405  0.3203
 3429POPS   C4A41408   2.733  11.487  16.500 -0.0819  0.1298  0.0512
 3429POPS   C1B41409   1.711  12.083  15.888  0.0335 -0.0082 -0.0337
 3429POPS   C2B41410   1.512  12.151  16.279 -0.2190 -0.2054 -0.1449
 3429POPS   C3B41411   1.362  12.121  16.689 -0.1988 -0.1098  0.0204
 3429POPS   C4B41412   1.013  12.221  16.942  0.4389  0.1919 -0.1919
 3430POPS   CNO41413  17.445  29.709  15.338 -0.1417 -0.3571  0.1135
 3430POPS   PO441414  17.451  29.932  15.619  0.1161  0.3442 -0.2698
 3430POPS   GL141415  17.388  29.972  16.004 -0.2095 -0.1116  0.2798
 3430POPS   GL241416  17.183  30.105  16.161 -0.1926  0.1926  0.0692
 3430POPS   C1A41417  17.416  29.623  16.264  0.3205 -0.0719 -0.4100
 3430POPS   D2A41418  17.264  29.522  16.665  0.2356  0.6062  0.2311
 3430POPS   C3A41419  17.023  29.182  16.903 -0.2427  0.1878 -0.3935
 3430POPS   C4A41420  16.754  29.114  17.235  0.1417  0.2347 -0.1140
 3430POPS   C1B41421  17.423  30.005  16.560 -0.0620 -0.0157  0.0307
 3430POPS   C2B41422  17.726  30.108  16.948 -0.2108  0.0583 -0.0813
 3430POPS   C3B41423  17.983  29.808  17.254  0.2024  0.2771 -0.1745
 3430POPS   C4B41424  18.336  29.469  17.403 -0.3793 -0.3321 -0.0975
 3431POPS   CNO41425  10.575   4.228  15.058  0.1085  0.1287 -0.3204
 3431POPS   PO441426  10.880   4.324  15.264  0.0907  0.0029 -0.0326
 3431POPS   GL141427  10.988   4.386  15.638  0.0398 -0.2583  0.4077
 3431POPS   GL241428  10.773   4.597  15.668 -0.1793 -0.0801 -0.1662
 3431POPS   C1A41429  11.029   4.399  16.130  0.2817 -0.0589  0.0880
 3431POPS   D2A41430  10.840   4.446  16.565 -0.1551 -0.0365 -0.1542
 3431POPS   C3A41431  10.822   4.716  16.933 -0.3083 -0.0793  0.2568
 3431POPS   C4A41432  11.038   4.942  17.300  0.0921  0.0008 -0.0352
 3431POPS   C1B41433  10.810   4.798  16.102  0.1448 -0.0788  0.0383
 3431POPS   C2B41434  11.133   4.900  16.418  0.2389  0.0425 -0.3471
 3431POPS   C3B41435  11.066   5.194  16.786 -0.2940  0.1262  0.0917
 3431POPS   C4B41436  10.960   5.411  17.206  0.1096 -0.0319  0.0987
 3432POPS   CNO41437  27.380   8.614  15.044 -0.1434  0.1169  0.1212
 3432POPS   PO441438  27.286   8.657  15.420  0.2127 -0.0367 -0.2580
 3432POPS   GL141439  27.528   8.605  15.754 -0.1890  0.0316  0.0941
 3432POPS   GL241440  27.376   8.628  15.965  0.0863 -0.3846  0.0636
 3432POPS   C1A41441  27.838   8.560  16.096  0.0603 -0.0554 -0.2019
 3432POPS   D2A41442  28.084   8.701  16.509  0.0917 -0.0806  0.1592
 3432POPS   C3A41443  28.436   8.438  16.701  0.3447 -0.1835  0.3086
 3432POPS   C4A41444  28.692   8.317  17.085  0.2755 -0.0242  0.4564
 3432POPS   C1B41445  26.983   8.665  16.204 -0.2659  0.1787  0.0510
 3432POPS   C2B41446  26.602   8.762  16.477 -0.0344 -0.0803 -0.0509
 3432POPS   C3B41447  26.308   8.741  16.790  0.3515 -0.1168  0.2442
 3432POPS   C4B41448  26.061   8.992  17.111  0.0758 -0.1339 -0.2435
 3433POPS   CNO41449  19.745  13.657  14.328 -0.2335  0.0825 -0.1154
 3433POPS   PO441450  19.989  13.555  14.599 -0.0384  0.2855  0.3679
 3433POPS   GL141451  19.742  13.427  14.968 -0.0534 -0.0695 -0.0107
 3433POPS   GL241452  19.890  13.462  15.232  0.3628  0.0903 -0.0124
 3433POPS   C1A41453  19.546  13.757  15.255 -0.0871  0.4378 -0.1669
 3433POPS   D2A41454  19.785  14.058  15.481 -0.1341 -0.3021  0.1478
 3433POPS   C3A41455  19.559  14.343  15.791  0.0126 -0.0476  0.2305
 3433POPS   C4A41456  19.391  14.733  16.028 -0.2967  0.0178 -0.0542
 3433POPS   C1B41457  20.082  13.356  15.693 -0.0547 -0.0679 -0.2015
 3433POPS   C2B41458  20.076  13.122  16.120 -0.1587  0.0305 -0.0081
 3433POPS   C3B41459  19.883  12.902  16.513  0.1787 -0.0617  0.0337
 3433POPS   C4B41460  19.544  12.824  16.732 -0.0793 -0.2544 -0.1715
 3434POPS   CNO41461  11.628   8.411  15.497 -0.1573 -0.2148  0.0417
 3434POPS   PO441462  11.977   8.479  15.466  0.2071  0.2726 -0.3201
 3434POPS   GL141463  12.142   8.642  15.913  0.1950 -0.2625  0.0684
 3434POPS   GL241464  11.874   8.660  16.062  0.0247 -0.0119  0.1920
 3434POPS   C1A41465  12.472   8.915  16.138 -0.2228 -0.0888  0.0002
 3434POPS   D2A41466  12.942   8.939  16.138  0.2230 -0.4219  0.1696
 3434POPS   C3A41467  13.259   8.849  16.468  0.2986 -0.1060  0.1619
 3434POPS   C4A41468  13.272   8.758  16.911 -0.6748 -0.0045 -0.2021
 3434POPS   C1B41469  12.018   8.771  16.513  0.0951  0.0114  0.3516
 3434POPS   C2B41470  12.212   9.093  16.835 -0.1311  0.0989 -0.1116
 3434POPS   C3B41471  12.221   9.273  17.303  0.1418  0.2108 -0.1283
 3434POPS   C4B41472  12.118   9.078  17.675  0.3864 -0.2924 -0.1814
 3435POPS   CNO41473  28.765  23.946  14.806  0.4362 -0.2972 -0.2923
 3435POPS   PO441474  29.088  23.997  14.555  0.1293 -0.2637 -0.1280
 3435POPS   GL141475  29.208  24.016  14.915 -0.0308 -0.2833 -0.0081
 3435POPS   GL241476  29.512  23.936  14.915  0.1870 -0.0394  0.2947
 3435POPS   C1A41477  29.032  24.093  15.336  0.1454 -0.1854 -0.1912
 3435POPS   D2A41478  29.054  24.436  15.696  0.0716 -0.1771 -0.0243
 3435POPS   C3A41479  29.151  24.235  16.047 -0.0816  0.1423 -0.2450
 3435POPS   C4A41480  29.222  24.092  16.442  0.0834  0.1010 -0.0372
 3435POPS   C1B41481  29.543  24.192  15.288  0.0353  0.0361 -0.0889
 3435POPS   C2B41482  29.557  24.041  15.743 -0.2812  0.1088 -0.0121
 3435POPS   C3B41483  29.730  24.027  16.188  0.0832  0.0199  0.3044
 3435POPS   C4B41484  29.618  23.900  16.663  0.0366  0.0103 -0.0050
 3436POPS   CNO41485   7.797   1.017  15.413 -0.4667  0.1091 -0.1500
 3436POPS   PO441486   8.216   0.993  15.288 -0.0050 -0.1686 -0.1619
 3436POPS   GL141487   8.152   0.990  15.667  0.0364 -0.0786 -0.2516
 3436POPS   GL241488   8.425   0.848  15.862  0.1082 -0.2706  0.1386
 3436POPS   C1A41489   8.054   1.297  16.044  0.0563 -0.1172 -0.0612
 3436POPS   D2A41490   8.047   1.236  16.506 -0.3197 -0.1293 -0.3750
 3436POPS   C3A41491   8.370   1.183  16.838  0.2687  0.1121 -0.0495
 3436POPS   C4A41492   8.598   0.994  17.162 -0.0670 -0.1217 -0.2589
 3436POPS   C1B41493   8.430   0.555  16.205  0.1556 -0.2384 -0.1523
 3436POPS   C2B41494   8.427   0.249  16.532  0.2815  0.0823 -0.1710
 3436POPS   C3B41495   8.452   0.115  16.998 -0.1235  0.0969 -0.2716
 3436POPS   C4B41496   8.276  -0.117  17.383 -0.2145  0.2450  0.0456
 3437POPS   CNO41497  12.660   2.824  15.207 -0.1560  0.2362  0.0820
 3437POPS   PO441498  12.824   3.141  15.346 -0.0872 -0.2835 -0.1488
 3437POPS   GL141499  13.093   3.121  15.644  0.0465 -0.1449  0.3883
 3437POPS   GL241500  12.916   2.939  15.799  0.0166 -0.2067  0.1580
 3437POPS   C1A41501  13.365   2.963  15.986 -0.1593  0.0305  0.1909
 3437POPS   D2A41502  13.413   2.502  16.137 -0.3700 -0.1092  0.0267
 3437POPS   C3A41503  13.631   2.387  16.473 -0.0262 -0.2341  0.1341
 3437POPS   C4A41504  13.766   2.106  16.846 -0.1954  0.3268 -0.4914
 3437POPS   C1B41505  12.947   2.735  16.202  0.2272  0.0634  0.4059
 3437POPS   C2B41506  13.168   2.646  16.639 -0.0414 -0.0779  0.0149
 3437POPS   C3B41507  13.049   2.609  17.103 -0.0915  0.1046 -0.0375
 3437POPS   C4B41508  12.867   2.679  17.468  0.1028  0.0382 -0.1675
 3438POPS   CNO41509  18.599  24.083  15.077 -0.2045 -0.1709  0.0056
 3438POPS   PO441510  18.673  24.039  15.444 -0.0428 -0.2121 -0.1331
 3438POPS   GL141511  18.585  24.095  15.782  0.0891  0.2050 -0.4214
 3438POPS   GL241512  18.364  23.916  15.831  0.0828  0.0695  0.1579
 3438POPS   C1A41513  18.787  23.781  16.079 -0.0851 -0.2134  0.0138
 3438POPS   D2A41514  18.681  23.584  16.410 -0.2301  0.1152  0.2631
 3438POPS   C3A41515  18.416  23.470  16.742 -0.2708 -0.0281  0.1211
 3438POPS   C4A41516  18.296  23.377  17.159  0.3517 -0.1503 -0.0468
 3438POPS   C1B41517  18.211  23.558  16.083  0.0191 -0.1163 -0.0760
 3438POPS   C2B41518  17.951  23.377  16.413  0.1710 -0.0858  0.0024
 3438POPS   C3B41519  17.644  23.236  16.747 -0.0492  0.0845  0.0095
 3438POPS   C4B41520  17.498  23.053  17.174 -0.0327 -0.4992  0.0524
 3439POPS   CNO41521   9.005   3.336  14.970 -0.1269 -0.2065  0.0454
 3439POPS   PO441522   8.898   3.554  15.283 -0.2974 -0.2683  0.1967
 3439POPS   GL141523   8.883   3.538  15.638 -0.3749  0.0347 -0.3489
 3439POPS   GL241524   8.777   3.309  15.744 -0.1627  0.0423 -0.0465
 3439POPS   C1A41525   9.129   3.718  16.004 -0.2537  0.2160  0.0028
 3439POPS   D2A41526   9.315   3.642  16.403 -0.2102 -0.1133  0.0939
 3439POPS   C3A41527   8.972   3.780  16.710 -0.4053 -0.0033  0.1005
 3439POPS   C4A41528   8.611   4.072  16.763  0.0173  0.1114  0.3431
 3439POPS   C1B41529   8.790   3.405  16.180  0.1259 -0.1750  0.2119
 3439POPS   C2B41530   8.500   3.571  16.512 -0.0143 -0.1313  0.0869
 3439POPS   C3B41531   8.262   3.762  16.812 -0.0063  0.0038 -0.0694
 3439POPS   C4B41532   8.457   3.912  17.220  0.3663  0.0576 -0.4260
 3440POPS   CNO41533   6.530   8.082  15.113 -0.2655  0.0804 -0.1490
 3440POPS   PO441534   6.492   7.735  15.273 -0.0434  0.1049 -0.0313
 3440POPS   GL141535   6.533   8.005  15.572 -0.0780 -0.2581 -0.0043
 3440POPS   GL241536   6.491   8.278  15.562  0.0666 -0.1978 -0.0017
 3440POPS   C1A41537   6.329   7.884  15.998 -0.2274 -0.3270  0.1022
 3440POPS   D2A41538   6.214   7.480  16.294  0.0164  0.0457 -0.0376
 3440POPS   C3A41539   6.180   7.496  16.784 -0.1684 -0.0779 -0.2406
 3440POPS   C4A41540   6.350   7.312  17.218  0.1650 -0.0522 -0.3558
 3440POPS   C1B41541   6.450   8.390  15.985 -0.1569 -0.1853  0.2511
 3440POPS   C2B41542   6.473   8.248  16.404  0.1693 -0.0362 -0.1324
 3440POPS   C3B41543   6.735   8.200  16.780 -0.0257 -0.0209 -0.2522
 3440POPS   C4B41544   7.067   8.057  17.114 -0.2040 -0.3332 -0.1666
 3441POPS   CNO41545  13.300  29.855  14.838 -0.0254 -0.1557 -0.0232
 3441POPS   PO441546  13.306  30.229  14.720 -0.1689  0.1888  0.0256
 3441POPS   GL141547  13.421  30.283  15.106 -0.5054  0.1020 -0.1148
 3441POPS   GL241548  13.567  30.559  15.043 -0.1062  0.2262  0.1573
 3441POPS   C1A41549  13.604  30.332  15.508 -0.0516  0.3229  0.0742
 3441POPS   D2A41550  13.638  30.023  15.891 -0.2740  0.3138  0.0517
 3441POPS   C3A41551  13.875  30.170  16.234  0.2275 -0.2806  0.0594
 3441POPS   C4A41552  13.839  30.590  16.380 -0.0044  0.0099 -0.0250
 3441POPS   C1B41553  13.678  30.827  15.442  0.0869  0.1667 -0.0758
 3441POPS   C2B41554  13.706  31.150  15.782 -0.3657 -0.1284 -0.4272
 3441POPS   C3B41555  13.893  31.531  16.087  0.1097 -0.1473  0.3727
 3441POPS   C4B41556  14.151  31.630  16.507 -0.0660  0.4205  0.1567
 3442POPS   CNO41557   7.759  30.124  14.902  0.0588 -0.0308 -0.0367
 3442POPS   PO441558   7.909  30.160  15.227 -0.1608 -0.1736 -0.1602
 3442POPS   GL141559   7.874  30.154  15.663 -0.0534 -0.1563 -0.0467
 3442POPS   GL241560   7.629  30.299  15.704 -0.0177 -0.0965 -0.3280
 3442POPS   C1A41561   8.212  30.107  16.031  0.1572 -0.0523  0.1547
 3442POPS   D2A41562   8.500  30.138  16.432  0.1020 -0.0564  0.0345
 3442POPS   C3A41563   8.646  29.700  16.611 -0.0276 -0.2418 -0.1403
 3442POPS   C4A41564   9.067  29.500  16.640 -0.0859 -0.5849  0.1037
 3442POPS   C1B41565   7.763  30.293  16.105  0.1785  0.1684  0.2936
 3442POPS   C2B41566   8.019  30.316  16.506  0.2500 -0.1592 -0.1744
 3442POPS   C3B41567   8.107  29.992  16.793  0.2469 -0.0605 -0.0459
 3442POPS   C4B41568   8.045  29.652  17.148  0.0695  0.1595  0.1387
 3443POPS   CNO41569  17.831  23.950  15.151  0.1572  0.1023  0.1667
 3443POPS   PO441570  17.576  24.167  15.301 -0.0931  0.2632 -0.1187
 3443POPS   GL141571  17.519  24.285  15.746 -0.2306 -0.0487 -0.0696
 3443POPS   GL241572  17.327  24.473  15.710 -0.0883  0.1992  0.3601
 3443POPS   C1A41573  17.412  24.185  16.198  0.0210 -0.1409 -0.0209
 3443POPS   D2A41574  17.097  24.017  16.479  0.3850 -0.0115  0.1976
 3443POPS   C3A41575  16.664  24.061  16.687  0.0091 -0.1373 -0.1328
 3443POPS   C4A41576  16.392  23.992  17.048 -0.3908 -0.0941  0.1316
 3443POPS   C1B41577  17.283  24.691  16.106 -0.0043  0.0725  0.0648
 3443POPS   C2B41578  17.283  24.534  16.554 -0.1877 -0.1818 -0.2150
 3443POPS   C3B41579  17.376  24.390  16.966 -0.2577  0.0758  0.1703
 3443POPS   C4B41580  17.667  24.207  17.271  0.0447 -0.0487 -0.0826
 3444POPS   CNO41581  11.021  20.280  14.981  0.2477 -0.3711 -0.0198
 3444POPS   PO441582  11.269  20.160  15.240 -0.0254 -0.1340  0.0724
 3444POPS   GL141583  11.105  20.232  15.518  0.0876  0.2771  0.1222
 3444POPS   GL241584  11.281  20.450  15.712  0.2426  0.2296  0.0560
 3444POPS   C1A41585  11.072  19.845  15.803  0.0859 -0.0182 -0.1546
 3444POPS   D2A41586  11.106  19.392  15.984  0.2211 -0.3096  0.3172
 3444POPS   C3A41587  11.219  19.315  16.433  0.0872 -0.0674  0.4171
 3444POPS   C4A41588  11.270  19.340  16.879 -0.0644  0.0365 -0.3488
 3444POPS   C1B41589  11.644  20.575  16.041 -0.0295  0.2497 -0.0082
 3444POPS   C2B41590  11.966  20.652  16.353 -0.2312  0.3309 -0.1104
 3444POPS   C3B41591  12.244  20.693  16.697 -0.1282 -0.0159  0.1211
 3444POPS   C4B41592  12.651  20.519  16.796 -0.0173 -0.0469 -0.1938
 3445POPS   CNO41593  30.033  16.887  15.111 -0.1105  0.4192  0.3427
 3445POPS   PO441594  30.408  16.938  15.131  0.2168  0.0263 -0.0841
 3445POPS   GL141595  30.324  16.830  15.488 -0.1271 -0.2638  0.1265
 3445POPS   GL241596  30.092  16.625  15.529 -0.4445 -0.0272  0.0564
 3445POPS   C1A41597  30.162  16.950  15.960 -0.0991 -0.0080  0.0936
 3445POPS   D2A41598  30.102  17.199  16.339  0.0613 -0.0374 -0.2636
 3445POPS   C3A41599  30.166  16.862  16.643  0.1242  0.0262  0.1503
 3445POPS   C4A41600  29.929  16.591  16.889 -0.1277 -0.4234  0.2416
 3445POPS   C1B41601  29.938  16.418  15.830  0.1710  0.0551  0.0026
 3445POPS   C2B41602  29.808  16.151  16.189  0.1417 -0.4109  0.1287
 3445POPS   C3B41603  29.602  16.257  16.584 -0.1387  0.1617  0.0700
 3445POPS   C4B41604  29.627  16.257  17.084 -0.0136  0.1560  0.0297
 3446POPS   CNO41605  30.172  28.900  15.083  0.1590 -0.0314  0.0981
 3446POPS   PO441606  30.540  28.902  15.189  0.0779  0.0816 -0.2125
 3446POPS   GL141607  30.413  28.957  15.570 -0.2179  0.1495  0.3235
 3446POPS   GL241608  30.642  28.911  15.677  0.1612 -0.1079  0.2496
 3446POPS   C1A41609  30.234  28.746  15.956 -0.1331  0.2343 -0.0267
 3446POPS   D2A41610  30.095  28.845  16.461 -0.0272 -0.1586  0.4085
 3446POPS   C3A41611  29.970  29.155  16.767 -0.2607  0.0380 -0.1571
 3446POPS   C4A41612  30.053  29.116  17.190  0.1057  0.0497  0.4232
 3446POPS   C1B41613  30.934  28.713  16.047 -0.0228  0.2494 -0.0077
 3446POPS   C2B41614  31.116  28.485  16.427  0.1864  0.2392  0.1574
 3446POPS   C3B41615  30.973  28.511  16.891  0.1403  0.0839  0.2373
 3446POPS   C4B41616  31.086  28.719  17.289 -0.1075 -0.0662  0.1031
 3447POPS   CNO41617  27.133   1.364  14.620 -0.3113 -0.3107 -0.0694
 3447POPS   PO441618  27.107   1.474  14.981 -0.2395 -0.3338  0.1912
 3447POPS   GL141619  27.122   1.362  15.313 -0.1463 -0.1304 -0.0571
 3447POPS   GL241620  27.197   1.061  15.363 -0.2149  0.2681  0.1914
 3447POPS   C1A41621  26.835   1.298  15.698  0.1886 -0.0090  0.1424
 3447POPS   D2A41622  26.809   1.195  16.202  0.1493  0.1247  0.0218
 3447POPS   C3A41623  27.206   1.210  16.409  0.3063 -0.2953  0.2627
 3447POPS   C4A41624  27.612   1.184  16.534  0.1321 -0.1773  0.1563
 3447POPS   C1B41625  27.104   0.836  15.848 -0.1785  0.4936  0.0234
 3447POPS   C2B41626  27.025   0.743  16.250  0.0052  0.1315 -0.0748
 3447POPS   C3B41627  27.172   0.762  16.699  0.0641  0.0447  0.3801
 3447POPS   C4B41628  26.932   0.779  17.087  0.0564 -0.0508 -0.0109
 3448POPS   CNO41629  31.450   2.161  14.936  0.2040  0.0832  0.1399
 3448POPS   PO441630  31.678   2.338  15.161  0.2665  0.0671 -0.0180
 3448POPS   GL141631  31.711   2.278  15.555  0.1770  0.0002 -0.0517
 3448POPS   GL241632  31.880   2.474  15.712  0.2233 -0.0862  0.3986
 3448POPS   C1A41633  32.008   1.998  15.726  0.3954  0.0911  0.0648
 3448POPS   D2A41634  32.373   1.850  15.985  0.1465 -0.2297 -0.0401
 3448POPS   C3A41635  32.473   2.054  16.360  0.0662 -0.3124  0.0653
 3448POPS   C4A41636  32.485   2.048  16.851  0.0335 -0.1133  0.1291
 3448POPS   C1B41637  31.897   2.341  16.114 -0.3847 -0.1098  0.2879
 3448POPS   C2B41638  32.067   2.248  16.499  0.1311  0.1481  0.0561
 3448POPS   C3B41639  31.875   2.108  16.864  0.3993  0.0728  0.1051
 3448POPS   C4B41640  31.652   2.093  17.266 -0.1245 -0.2188 -0.0299
 3449POPS   CNO41641   0.670  12.188  15.028 -0.0827  0.1971  0.1523
 3449POPS   PO441642   0.872  12.049  15.281 -0.1821  0.2456 -0.1664
 3449POPS   GL141643   0.842  11.818  15.641  0.2528  0.2431 -0.2202
 3449POPS   GL241644   0.940  12.016  15.831 -0.2603  0.0314 -0.0528
 3449POPS   C1A41645   0.489  11.935  15.935 -0.0206  0.1464 -0.1537
 3449POPS   D2A41646   0.200  12.170  16.173  0.2749  0.0640 -0.2907
 3449POPS   C3A41647   0.284  12.193  16.586 -0.3612 -0.0247 -0.0444
 3449POPS   C4A41648   0.053  12.010  16.877  0.3199  0.0865 -0.2859
 3449POPS   C1B41649   0.980  12.021  16.287  0.3625  0.1279 -0.1997
 3449POPS   C2B41650   1.028  11.772  16.668 -0.3042  0.1041  0.1516
 3449POPS   C3B41651   1.113  11.737  17.074 -0.1031  0.4904 -0.3973
 3449POPS   C4B41652   1.087  11.990  17.542  0.0235  0.2249 -0.0249
 3450POPS   CNO41653   3.910  15.293  14.760 -0.0608  0.3124  0.1652
 3450POPS   PO441654   3.661  15.251  15.017  0.2050  0.1432 -0.0644
 3450POPS   GL141655   3.773  15.195  15.461 -0.1939  0.0142 -0.2855
 3450POPS   GL241656   3.531  15.245  15.580  0.0836 -0.0041 -0.1437
 3450POPS   C1A41657   3.937  15.304  15.892 -0.1117 -0.1686 -0.0902
 3450POPS   D2A41658   3.882  15.514  16.286  0.3339  0.2633  0.2280
 3450POPS   C3A41659   3.881  15.741  16.644  0.2222 -0.0837 -0.3192
 3450POPS   C4A41660   3.535  15.851  16.944 -0.0143  0.0073  0.0433
 3450POPS   C1B41661   3.111  15.341  15.702 -0.1748 -0.1829  0.1252
 3450POPS   C2B41662   3.034  15.707  15.954 -0.1031  0.1038 -0.1975
 3450POPS   C3B41663   3.151  16.068  16.147  0.1727 -0.1761  0.1455
 3450POPS   C4B41664   3.178  16.217  16.503  0.1721 -0.2663 -0.0748
 3451POPS   CNO41665   9.861  13.078  15.498  0.2062 -0.0135 -0.0451
 3451POPS   PO441666   9.471  13.118  15.450 -0.0925 -0.1202 -0.0158
 3451POPS   GL141667   9.562  13.136  15.853 -0.0300 -0.2842  0.3861
 3451POPS   GL241668   9.492  12.881  15.958  0.4785  0.2123  0.0666
 3451POPS   C1A41669   9.390  13.254  16.285 -0.0448 -0.0507 -0.1080
 3451POPS   D2A41670   9.532  13.538  16.582 -0.2692  0.0549 -0.0358
 3451POPS   C3A41671   9.769  13.452  16.981  0.0970  0.1481  0.0109
 3451POPS   C4A41672   9.885  13.603  17.359  0.0082 -0.1580 -0.1596
 3451POPS   C1B41673   9.473  12.777  16.456  0.2397 -0.3253  0.1706
 3451POPS   C2B41674   9.516  12.978  16.849  0.1434 -0.0323  0.0109
 3451POPS   C3B41675   9.192  12.864  17.113 -0.2304  0.3024  0.0641
 3451POPS   C4B41676   9.094  12.666  17.561 -0.0424  0.1565 -0.0082
 3452POPS   CNO41677   7.438  28.037  15.021  0.3128 -0.1104  0.0145
 3452POPS   PO441678   7.782  27.947  14.815 -0.1001 -0.0408 -0.1943
 3452POPS   GL141679   7.882  28.030  15.199  0.3402 -0.3785 -0.0567
 3452POPS   GL241680   7.821  27.737  15.275  0.2972  0.2833  0.4553
 3452POPS   C1A41681   8.043  28.092  15.613 -0.2941  0.1662  0.0050
 3452POPS   D2A41682   8.073  28.046  16.073  0.1091 -0.2638  0.1789
 3452POPS   C3A41683   7.888  27.884  16.462  0.3397  0.1653 -0.2142
 3452POPS   C4A41684   7.620  27.710  16.726  0.0612 -0.3188 -0.1097
 3452POPS   C1B41685   7.722  27.740  15.702 -0.2304 -0.0981  0.0239
 3452POPS   C2B41686   7.500  27.614  16.122 -0.0841  0.3445 -0.0246
 3452POPS   C3B41687   7.223  27.517  16.392  0.4240  0.0229 -0.0727
 3452POPS   C4B41688   6.802  27.550  16.666 -0.1747  0.0321  0.3639
 3453POPS   CNO41689  22.554  10.783  15.432  0.0292 -0.1583  0.0779
 3453POPS   PO441690  22.437  10.932  15.077 -0.2296 -0.0042 -0.2229
 3453POPS   GL141691  22.142  11.004  15.424 -0.1878 -0.0170  0.1595
 3453POPS   GL241692  21.911  11.034  15.264  0.3095 -0.2781  0.1873
 3453POPS   C1A41693  22.330  11.039  15.860 -0.3075  0.1700 -0.0259
 3453POPS   D2A41694  22.434  10.731  16.195  0.1626 -0.0650  0.0988
 3453POPS   C3A41695  22.494  10.812  16.621 -0.3411  0.0378 -0.0152
 3453POPS   C4A41696  22.429  11.011  16.992  0.4165  0.0693  0.0169
 3453POPS   C1B41697  21.857  10.942  15.752 -0.1246 -0.0694  0.0731
 3453POPS   C2B41698  21.934  10.838  16.215 -0.0375  0.1000 -0.0350
 3453POPS   C3B41699  22.039  10.956  16.648  0.4242 -0.1129  0.1352
 3453POPS   C4B41700  21.976  10.856  17.133  0.1575  0.2301 -0.0236
 3454POPS   CNO41701   1.922  24.800  15.496 -0.0409 -0.3941 -0.1537
 3454POPS   PO441702   1.662  24.962  15.308 -0.1125  0.2615 -0.1007
 3454POPS   GL141703   1.562  25.041  15.726 -0.2097 -0.0959 -0.0857
 3454POPS   GL241704   1.304  25.016  15.861 -0.1355  0.3024  0.2466
 3454POPS   C1A41705   1.708  25.163  16.221 -0.2089  0.4459  0.0715
 3454POPS   D2A41706   1.761  24.908  16.614  0.0159 -0.0858 -0.0396
 3454POPS   C3A41707   1.639  24.978  17.070  0.0204  0.2452  0.1284
 3454POPS   C4A41708   1.576  25.128  17.464  0.1062  0.1507  0.0225
 3454POPS   C1B41709   1.009  24.658  15.955  0.1432  0.1905  0.2600
 3454POPS   C2B41710   0.887  24.455  16.334 -0.0602 -0.1880 -0.1221
 3454POPS   C3B41711   0.639  24.306  16.681  0.1614 -0.1394 -0.2100
 3454POPS   C4B41712   0.666  24.225  17.124  0.0302 -0.0629 -0.0231
 3455POPS   CNO41713  22.065   5.324  15.168  0.1385 -0.1750  0.1086
 3455POPS   PO441714  21.893   5.653  15.243 -0.0432 -0.0046  0.4586
 3455POPS   GL141715  21.855   5.584  15.551  0.1621  0.0943  0.1411
 3455POPS   GL241716  22.115   5.712  15.734 -0.1367  0.1377  0.0719
 3455POPS   C1A41717  21.914   5.142  15.731  0.0062 -0.1410 -0.1556
 3455POPS   D2A41718  22.093   4.750  15.801 -0.0804  0.0739  0.0289
 3455POPS   C3A41719  22.170   4.389  16.071 -0.0808 -0.0703 -0.1508
 3455POPS   C4A41720  22.072   4.312  16.486 -0.2868  0.1423 -0.2114
 3455POPS   C1B41721  22.335   5.760  16.162 -0.0370  0.1151 -0.0903
 3455POPS   C2B41722  22.324   5.749  16.665  0.0681 -0.1917 -0.0928
 3455POPS   C3B41723  22.573   5.612  17.011  0.1843 -0.1975  0.1852
 3455POPS   C4B41724  22.295   5.437  17.355 -0.0985  0.0575  0.2098
 3456POPS   CNO41725   2.855  28.520  14.972 -0.0210  0.1972  0.4139
 3456POPS   PO441726   3.212  28.568  15.059 -0.1662  0.0056 -0.1641
 3456POPS   GL141727   3.208  28.601  15.445 -0.1641  0.1998 -0.2775
 3456POPS   GL241728   2.949  28.769  15.449  0.0869 -0.1179 -0.1446
 3456POPS   C1A41729   3.098  28.473  15.901 -0.0015  0.1183 -0.1970
 3456POPS   D2A41730   2.830  28.612  16.198 -0.0990  0.1970  0.0501
 3456POPS   C3A41731   2.678  28.832  16.548  0.2279  0.0171  0.0969
 3456POPS   C4A41732   2.699  29.071  16.943 -0.2336 -0.0676  0.0178
 3456POPS   C1B41733   3.035  29.037  15.794 -0.0158 -0.3810  0.1433
 3456POPS   C2B41734   3.178  29.303  16.115  0.1769  0.1010  0.0036
 3456POPS   C3B41735   3.593  29.478  16.194  0.0967 -0.1699 -0.1354
 3456POPS   C4B41736   3.794  29.789  16.498 -0.1075  0.3296 -0.1360
 3457POPS   CNO41737  26.194   6.540  14.989  0.1025  0.1531  0.1642
 3457POPS   PO441738  26.310   6.293  15.235  0.0486 -0.2557 -0.0749
 3457POPS   GL141739  26.426   6.427  15.556 -0.0237 -0.0332 -0.1459
 3457POPS   GL241740  26.242   6.143  15.750 -0.5032 -0.1184  0.2633
 3457POPS   C1A41741  26.177   6.609  15.887 -0.3630 -0.2936  0.0688
 3457POPS   D2A41742  26.073   6.568  16.347  0.0456 -0.0896  0.1344
 3457POPS   C3A41743  26.460   6.583  16.555 -0.1871  0.0866 -0.2397
 3457POPS   C4A41744  26.708   6.149  16.603 -0.0506 -0.0811 -0.2744
 3457POPS   C1B41745  26.374   6.190  16.161 -0.1442  0.0813 -0.3221
 3457POPS   C2B41746  26.251   5.989  16.555 -0.0625 -0.2511 -0.1916
 3457POPS   C3B41747  26.401   5.927  16.998 -0.2263 -0.4285 -0.1209
 3457POPS   C4B41748  26.625   5.893  17.440 -0.0694  0.1007  0.0187
 3458POPS   CNO41749  25.416  13.737  15.259 -0.3201  0.2742 -0.3018
 3458POPS   PO441750  25.048  13.784  15.182 -0.4377 -0.1701 -0.1705
 3458POPS   GL141751  24.931  13.752  15.510  0.0300 -0.2310 -0.0564
 3458POPS   GL241752  25.117  13.789  15.776  0.1932  0.0483 -0.0307
 3458POPS   C1A41753  24.720  13.468  15.825 -0.3152 -0.1654  0.3399
 3458POPS   D2A41754  24.607  13.365  16.263  0.0718  0.2671 -0.1095
 3458POPS   C3A41755  24.612  13.437  16.718 -0.0472  0.2661  0.1723
 3458POPS   C4A41756  24.439  13.559  17.142 -0.1143 -0.2559  0.1658
 3458POPS   C1B41757  25.516  13.969  15.861 -0.0672  0.1552  0.1680
 3458POPS   C2B41758  25.883  13.782  16.010  0.2226 -0.0738  0.1564
 3458POPS   C3B41759  26.335  13.847  16.193 -0.0610 -0.0307  0.3147
 3458POPS   C4B41760  26.859  13.805  16.108 -0.1312  0.2897 -0.1472
 3459POPS   CNO41761  28.791  16.557  14.661 -0.1140 -0.1374 -0.0290
 3459POPS   PO441762  28.872  16.515  15.009  0.4100  0.0183 -0.0203
 3459POPS   GL141763  28.907  16.760  15.373 -0.1779  0.1990 -0.1669
 3459POPS   GL241764  28.698  16.924  15.528  0.1190 -0.0809 -0.3563
 3459POPS   C1A41765  29.178  16.750  15.784  0.0868  0.2281 -0.0332
 3459POPS   D2A41766  29.593  16.968  15.892 -0.0816  0.0670 -0.0016
 3459POPS   C3A41767  29.497  17.150  16.326 -0.2907 -0.0422  0.0712
 3459POPS   C4A41768  29.141  17.135  16.644 -0.0146 -0.1071 -0.0296
 3459POPS   C1B41769  28.419  17.023  15.889  0.2990  0.0768 -0.0632
 3459POPS   C2B41770  28.337  16.839  16.342 -0.1148  0.1546  0.0634
 3459POPS   C3B41771  28.086  16.543  16.553  0.1402 -0.0761 -0.3171
 3459POPS   C4B41772  27.941  16.721  16.997  0.0876 -0.0032 -0.0076
 3460POPS   CNO41773  12.647  14.407  14.897 -0.2353  0.1446 -0.1441
 3460POPS   PO441774  12.397  14.615  15.038  0.2876  0.0078 -0.1132
 3460POPS   GL141775  12.280  14.602  15.401 -0.1421  0.5661 -0.1212
 3460POPS   GL241776  12.481  14.375  15.518  0.1478 -0.1030  0.3684
 3460POPS   C1A41777  12.534  14.804  15.756  0.2055  0.2113  0.1723
 3460POPS   D2A41778  12.907  15.112  15.827  0.0233  0.3342  0.2013
 3460POPS   C3A41779  12.976  15.232  16.270  0.2133  0.1880  0.0912
 3460POPS   C4A41780  12.745  15.228  16.700 -0.2924 -0.2085  0.0841
 3460POPS   C1B41781  12.403  14.383  15.998 -0.1045  0.0079 -0.1243
 3460POPS   C2B41782  12.215  14.485  16.372 -0.1819 -0.0450  0.1959
 3460POPS   C3B41783  12.057  14.660  16.808 -0.0825 -0.2979 -0.0284
 3460POPS   C4B41784  11.597  14.843  16.928  0.0634 -0.2818  0.3263
 3461POPS   CNO41785  26.924   9.450  15.512  0.2348 -0.0032  0.0384
 3461POPS   PO441786  27.113   9.163  15.646 -0.2981  0.1473 -0.2015
 3461POPS   GL141787  27.254   9.104  16.049  0.0534 -0.3271 -0.2759
 3461POPS   GL241788  27.383   9.395  16.054 -0.0197  0.2443  0.1714
 3461POPS   C1A41789  27.611   8.972  16.331 -0.2212  0.1113 -0.0266
 3461POPS   D2A41790  27.801   9.072  16.750 -0.1344 -0.0552  0.2221
 3461POPS   C3A41791  27.516   8.802  17.044 -0.1016  0.0264  0.0872
 3461POPS   C4A41792  27.330   8.826  17.393  0.2521  0.0452 -0.2727
 3461POPS   C1B41793  27.414   9.466  16.507  0.1040 -0.4667  0.1028
 3461POPS   C2B41794  27.674   9.595  16.843  0.1834 -0.5967 -0.2403
 3461POPS   C3B41795  27.825  10.004  16.888 -0.1057  0.1363  0.2078
 3461POPS   C4B41796  28.148  10.203  17.107 -0.0043  0.0009  0.2620
 3462POPS   CNO41797   1.388   6.236  15.675 -0.3770  0.0802 -0.0344
 3462POPS   PO441798   1.734   6.210  15.652 -0.0497 -0.0510 -0.2046
 3462POPS   GL141799   1.727   6.080  16.118 -0.0457 -0.0564 -0.0898
 3462POPS   GL241800   1.571   6.378  16.106  0.0071  0.0673  0.3636
 3462POPS   C1A41801   1.659   6.111  16.587  0.1349 -0.2142 -0.0172
 3462POPS   D2A41802   1.612   5.943  17.054  0.1915  0.0674 -0.3493
 3462POPS   C3A41803   1.533   5.573  17.360 -0.2092 -0.0457  0.1238
 3462POPS   C4A41804   1.636   5.600  17.815 -0.3400  0.0702 -0.0242
 3462POPS   C1B41805   1.744   6.631  16.489  0.1257  0.3689  0.1270
 3462POPS   C2B41806   1.808   6.684  16.964  0.2594  0.4206  0.0469
 3462POPS   C3B41807   1.639   6.412  17.323 -0.1654  0.0892  0.1557
 3462POPS   C4B41808   1.366   6.134  17.546  0.0297 -0.2300 -0.0542
 3463POPS   CNO41809  11.142  18.104  14.836 -0.2563 -0.1492  0.1217
 3463POPS   PO441810  11.331  18.025  14.514 -0.0052  0.3526 -0.0166
 3463POPS   GL141811  11.692  17.957  14.772  0.0968 -0.1494  0.2825
 3463POPS   GL241812  11.609  18.184  14.974 -0.0977  0.0494 -0.0502
 3463POPS   C1A41813  11.827  17.546  14.725 -0.1374  0.2006  0.1424
 3463POPS   D2A41814  12.148  17.269  14.458  0.0321  0.0965 -0.1567
 3463POPS   C3A41815  12.516  17.111  14.758 -0.0350 -0.1975 -0.3574
 3463POPS   C4A41816  12.848  17.275  15.014  0.1426 -0.2923  0.3529
 3463POPS   C1B41817  11.895  17.859  15.156 -0.1081 -0.2109  0.1773
 3463POPS   C2B41818  12.092  17.873  15.612  0.0030  0.0812  0.3236
 3463POPS   C3B41819  12.253  17.850  16.073 -0.1002  0.2748 -0.1516
 3463POPS   C4B41820  12.329  17.863  16.506 -0.0093  0.0825 -0.1975
 3464POPS   CNO41821  11.680   4.176  14.934 -0.0781  0.2668  0.0915
 3464POPS   PO441822  11.945   4.180  15.187  0.0793 -0.1361 -0.0646
 3464POPS   GL141823  12.028   4.432  15.516  0.0651 -0.1697 -0.0342
 3464POPS   GL241824  12.036   4.190  15.747 -0.1522  0.0812 -0.4638
 3464POPS   C1A41825  12.449   4.485  15.704  0.1438  0.1655  0.1630
 3464POPS   D2A41826  12.595   4.810  15.960 -0.0895 -0.1405  0.1803
 3464POPS   C3A41827  12.392   4.727  16.354  0.1023  0.1698 -0.0336
 3464POPS   C4A41828  12.402   4.643  16.781  0.0624  0.0424 -0.1567
 3464POPS   C1B41829  12.250   4.298  16.124 -0.2381  0.2562 -0.0249
 3464POPS   C2B41830  12.221   4.252  16.558 -0.0125  0.3039  0.1390
 3464POPS   C3B41831  12.195   4.235  17.060  0.0751  0.1173 -0.0358
 3464POPS   C4B41832  11.919   3.977  17.323  0.1843 -0.0722 -0.1017
 3465POPS   CNO41833  29.365  18.310  14.642  0.1211 -0.0570 -0.1668
 3465POPS   PO441834  29.006  18.206  14.715  0.0017  0.0155 -0.1987
 3465POPS   GL141835  29.015  18.145  15.104 -0.2595 -0.3360  0.4145
 3465POPS   GL241836  29.208  18.376  15.138  0.1609  0.1354 -0.2023
 3465POPS   C1A41837  28.724  18.458  15.303  0.1417  0.2795  0.0586
 3465POPS   D2A41838  28.597  18.909  15.219 -0.1459 -0.0792  0.0169
 3465POPS   C3A41839  28.470  19.099  15.603  0.2118  0.3358  0.0663
 3465POPS   C4A41840  28.307  19.537  15.669  0.0236  0.0662 -0.0678
 3465POPS   C1B41841  29.330  18.599  15.535 -0.0620 -0.2012  0.1984
 3465POPS   C2B41842  29.347  18.884  15.839 -0.0771 -0.0475  0.1160
 3465POPS   C3B41843  29.339  19.181  16.218  0.2509 -0.2696  0.1958
 3465POPS   C4B41844  29.413  19.345  16.676  0.1655 -0.0309 -0.0949
 3466POPS   CNO41845  10.691   7.808  15.124 -0.0368 -0.2742  0.1002
 3466POPS   PO441846  10.377   7.624  15.172 -0.0764  0.2013 -0.2193
 3466POPS   GL141847  10.493   7.541  15.531 -0.0116 -0.1885 -0.1321
 3466POPS   GL241848  10.427   7.274  15.543  0.0367  0.0277 -0.3980
 3466POPS   C1A41849  10.216   7.599  15.906 -0.1867 -0.0514 -0.1525
 3466POPS   D2A41850   9.812   7.697  16.123  0.2345 -0.0756  0.0944
 3466POPS   C3A41851   9.612   7.473  16.464  0.2592 -0.1046 -0.1687
 3466POPS   C4A41852   9.728   7.479  16.858  0.1977  0.0507 -0.0601
 3466POPS   C1B41853  10.405   7.197  16.009 -0.0907  0.0942 -0.1415
 3466POPS   C2B41854  10.433   6.976  16.449  0.1528  0.0562 -0.2294
 3466POPS   C3B41855  10.704   6.967  16.807 -0.1068  0.0851 -0.0336
 3466POPS   C4B41856  10.713   6.901  17.303 -0.3029 -0.0317  0.1205
 3467POPS   CNO41857  13.051  20.055  14.983  0.1819  0.0448 -0.1499
 3467POPS   PO441858  13.282  19.755  14.956  0.0282  0.1450 -0.1163
 3467POPS   GL141859  13.073  19.707  15.240 -0.1023 -0.1721  0.1789
 3467POPS   GL241860  13.019  19.884  15.438  0.0681  0.1897 -0.1618
 3467POPS   C1A41861  12.791  19.392  15.127  0.0797  0.2147 -0.0978
 3467POPS   D2A41862  12.784  18.984  14.852  0.1993 -0.0912  0.0016
 3467POPS   C3A41863  13.226  18.787  14.779 -0.0700  0.0468 -0.1512
 3467POPS   C4A41864  13.342  18.369  14.529  0.2261  0.3383  0.0800
 3467POPS   C1B41865  12.881  19.831  15.858 -0.2184  0.0012 -0.3414
 3467POPS   C2B41866  12.842  19.754  16.303 -0.1569 -0.0559 -0.0858
 3467POPS   C3B41867  12.765  19.968  16.726 -0.2087  0.0636  0.1618
 3467POPS   C4B41868  12.518  19.828  17.132  0.0069 -0.1895  0.2364
 3468POPS   CNO41869   3.509  23.608  14.994  0.0799 -0.4179  0.2777
 3468POPS   PO441870   3.225  23.509  15.191  0.2948 -0.0996  0.0893
 3468POPS   GL141871   3.227  23.319  15.463  0.1692  0.0707  0.2061
 3468POPS   GL241872   3.041  23.083  15.543  0.3216 -0.0539  0.0070
 3468POPS   C1A41873   3.168  23.505  15.876  0.1816  0.1775 -0.1578
 3468POPS   D2A41874   3.171  23.378  16.287  0.0624  0.2813  0.2767
 3468POPS   C3A41875   2.965  23.367  16.681  0.0668 -0.2204 -0.1047
 3468POPS   C4A41876   2.665  23.295  17.010  0.0629  0.0359 -0.0307
 3468POPS   C1B41877   3.035  22.932  16.012 -0.2366  0.0389 -0.1012
 3468POPS   C2B41878   2.845  22.720  16.346  0.0750  0.0969 -0.5111
 3468POPS   C3B41879   2.935  22.690  16.803  0.2454 -0.1268 -0.1941
 3468POPS   C4B41880   3.102  22.454  17.112  0.2030 -0.0114 -0.0009
 3469POPS   CNO41881  20.790   4.848  14.709  0.1490  0.4344  0.0667
 3469POPS   PO441882  20.680   4.916  15.069 -0.0511  0.0502 -0.3458
 3469POPS   GL141883  20.729   4.669  15.409 -0.2166  0.0178 -0.0542
 3469POPS   GL241884  20.630   4.537  15.589  0.0887  0.0691  0.0725
 3469POPS   C1A41885  21.097   4.418  15.631 -0.2400 -0.1159 -0.0827
 3469POPS   D2A41886  21.176   4.193  16.032  0.1006 -0.1372  0.2283
 3469POPS   C3A41887  21.226   3.740  15.961 -0.4185 -0.1298 -0.1497
 3469POPS   C4A41888  20.977   3.472  16.216  0.1726  0.2252 -0.2132
 3469POPS   C1B41889  20.765   4.528  15.991 -0.1454  0.0440 -0.4346
 3469POPS   C2B41890  20.906   4.396  16.472  0.0705 -0.1541 -0.3389
 3469POPS   C3B41891  21.125   4.052  16.587 -0.0680 -0.0017 -0.1490
 3469POPS   C4B41892  21.403   3.786  16.870 -0.2071 -0.3213  0.0965
 3470POPS   CNO41893   6.881  21.500  15.354 -0.0222 -0.2298 -0.1347
 3470POPS   PO441894   7.045  21.208  15.570 -0.3124 -0.1690  0.2305
 3470POPS   GL141895   7.070  21.183  15.930  0.0352  0.0752  0.1869
 3470POPS   GL241896   7.324  21.071  15.953 -0.1801  0.0618  0.2844
 3470POPS   C1A41897   6.855  21.330  16.277 -0.2572 -0.1043 -0.0167
 3470POPS   D2A41898   7.001  21.453  16.707 -0.0822 -0.2286 -0.0845
 3470POPS   C3A41899   6.802  21.637  17.075  0.2886  0.1786  0.2676
 3470POPS   C4A41900   6.915  21.635  17.502  0.2994  0.0815  0.0272
 3470POPS   C1B41901   7.311  21.150  16.364 -0.2427 -0.1601  0.0437
 3470POPS   C2B41902   7.400  21.162  16.791  0.1263 -0.0124  0.0349
 3470POPS   C3B41903   7.465  21.028  17.242 -0.3471  0.0333  0.2354
 3470POPS   C4B41904   7.775  21.191  17.620  0.1970  0.3376  0.1304
 3471POPS   CNO41905   8.616  15.551  15.260  0.5188 -0.1091  0.1257
 3471POPS   PO441906   8.875  15.617  15.500  0.3257 -0.1053  0.1092
 3471POPS   GL141907   8.704  15.593  15.823  0.2497 -0.3238  0.2423
 3471POPS   GL241908   8.641  15.314  16.008 -0.0278  0.1918 -0.0307
 3471POPS   C1A41909   8.607  15.972  16.072  0.1566  0.1979 -0.0887
 3471POPS   D2A41910   8.446  16.077  16.482  0.0100  0.0839 -0.1921
 3471POPS   C3A41911   8.356  16.060  16.976 -0.2098  0.0477  0.1847
 3471POPS   C4A41912   8.101  15.847  17.287 -0.3399 -0.2663  0.1649
 3471POPS   C1B41913   8.784  15.604  16.374  0.1571  0.0082 -0.3473
 3471POPS   C2B41914   8.873  15.538  16.807  0.1614  0.0536 -0.3377
 3471POPS   C3B41915   8.756  15.743  17.179 -0.0246  0.1093 -0.2373
 3471POPS   C4B41916   8.488  15.994  17.527 -0.1043  0.1347  0.0109
 3472POPS   CNO41917  16.921   6.601  15.133 -0.1677 -0.3813 -0.1381
 3472POPS   PO441918  17.193   6.809  15.274 -0.2347 -0.0157 -0.0755
 3472POPS   GL141919  17.164   6.825  15.726 -0.3095  0.0697 -0.0052
 3472POPS   GL241920  17.450   6.951  15.746  0.3526  0.2073 -0.1357
 3472POPS   C1A41921  16.976   7.152  16.011 -0.1351 -0.1826 -0.2525
 3472POPS   D2A41922  16.577   7.431  15.975  0.1779  0.1249  0.1967
 3472POPS   C3A41923  16.389   7.366  16.408  0.1767 -0.1050 -0.0891
 3472POPS   C4A41924  16.180   7.455  16.792 -0.2051  0.4108 -0.2189
 3472POPS   C1B41925  17.389   6.880  16.244  0.0784 -0.0610 -0.0707
 3472POPS   C2B41926  17.067   6.882  16.635 -0.2071  0.1079 -0.0903
 3472POPS   C3B41927  16.914   6.811  17.003 -0.0692 -0.1088 -0.0150
 3472POPS   C4B41928  16.876   6.443  17.272 -0.1177  0.0126  0.1211
 3473POPS   CNO41929  17.611   9.898  14.911 -0.2677  0.0112 -0.0208
 3473POPS   PO441930  17.952   9.819  15.025  0.1730 -0.0119 -0.2473
 3473POPS   GL141931  17.645   9.842  15.370 -0.0583 -0.1152  0.0096
 3473POPS   GL241932  17.879   9.782  15.584 -0.3249  0.0787  0.0995
 3473POPS   C1A41933  17.412   9.937  15.748 -0.2764  0.2119  0.2006
 3473POPS   D2A41934  17.146   9.753  16.052  0.0479 -0.1337 -0.1523
 3473POPS   C3A41935  17.394   9.678  16.489 -0.1139 -0.1612 -0.1747
 3473POPS   C4A41936  17.696   9.864  16.804  0.1071  0.4118 -0.1876
 3473POPS   C1B41937  17.980   9.826  15.996  0.0432 -0.0130 -0.0558
 3473POPS   C2B41938  18.068   9.790  16.432  0.1710 -0.3715  0.0725
 3473POPS   C3B41939  18.134   9.640  16.881  0.0316  0.1295  0.2044
 3473POPS   C4B41940  18.331   9.473  17.261 -0.0987  0.0286  0.0112
 3474POPS   CNO41941   8.111  22.980  14.919 -0.2217  0.0859 -0.1438
 3474POPS   PO441942   8.098  23.326  15.050 -0.1171 -0.1785  0.1170
 3474POPS   GL141943   8.131  23.547  15.448 -0.4540  0.0290  0.0607
 3474POPS   GL241944   8.314  23.742  15.528  0.3890  0.1571 -0.0195
 3474POPS   C1A41945   7.836  23.645  15.771 -0.1857  0.2297  0.2433
 3474POPS   D2A41946   7.836  23.906  16.078 -0.0515  0.0770  0.1680
 3474POPS   C3A41947   8.094  23.862  16.409  0.3254  0.0762 -0.0495
 3474POPS   C4A41948   8.299  23.804  16.809  0.0841  0.1392 -0.0485
 3474POPS   C1B41949   8.369  23.758  15.969 -0.1028 -0.2388  0.1214
 3474POPS   C2B41950   8.597  23.848  16.366  0.1467 -0.0705  0.1337
 3474POPS   C3B41951   8.762  24.035  16.713  0.1301  0.0456 -0.1937
 3474POPS   C4B41952   8.802  24.219  17.119 -0.1495  0.4028  0.0842
 3475POPS   CNO41953  14.367  23.649  14.772 -0.2048  0.1326  0.0956
 3475POPS   PO441954  14.516  23.997  14.837  0.0184  0.0975 -0.0234
 3475POPS   GL141955  14.507  23.839  15.178  0.0614 -0.0880 -0.6815
 3475POPS   GL241956  14.482  23.601  15.278 -0.2639 -0.0028 -0.1427
 3475POPS   C1A41957  14.414  23.934  15.665  0.0320  0.1250  0.2229
 3475POPS   D2A41958  14.381  24.040  16.108  0.0579  0.1730  0.0398
 3475POPS   C3A41959  14.593  24.381  16.337 -0.2124 -0.1316 -0.1867
 3475POPS   C4A41960  14.935  24.486  16.668 -0.0916 -0.1197 -0.1882
 3475POPS   C1B41961  14.596  23.442  15.668 -0.1893 -0.0136  0.1133
 3475POPS   C2B41962  14.736  23.525  16.067 -0.1074 -0.0145  0.0307
 3475POPS   C3B41963  14.668  23.649  16.531  0.1622 -0.0258  0.5304
 3475POPS   C4B41964  14.442  23.931  16.751  0.3377 -0.1604 -0.2368
 3476POPS   CNO41965   3.753   8.358  14.979 -0.0369 -0.0731 -0.0361
 3476POPS   PO441966   3.611   8.716  15.030 -0.2181  0.1919  0.0744
 3476POPS   GL141967   3.804   8.786  15.351  0.4625  0.1890 -0.2789
 3476POPS   GL241968   3.984   8.579  15.371  0.1128  0.3006 -0.1228
 3476POPS   C1A41969   3.723   8.800  15.832  0.2143  0.1700 -0.1933
 3476POPS   D2A41970   3.791   8.618  16.228  0.0134  0.2097  0.0891
 3476POPS   C3A41971   3.991   8.733  16.660 -0.1876  0.1109  0.1735
 3476POPS   C4A41972   4.021   9.112  17.009 -0.1076 -0.0906  0.0631
 3476POPS   C1B41973   4.225   8.708  15.765  0.1104  0.1429  0.2702
 3476POPS   C2B41974   4.344   8.615  16.201  0.0468  0.4568 -0.1900
 3476POPS   C3B41975   4.563   8.469  16.583  0.3376  0.0963  0.0379
 3476POPS   C4B41976   4.710   8.524  17.002 -0.0704  0.1375 -0.1108
 3477POPS   CNO41977  22.690  19.052  15.315 -0.2039 -0.2077  0.0199
 3477POPS   PO441978  22.582  18.672  15.456 -0.0441  0.0505  0.0321
 3477POPS   GL141979  22.615  18.679  15.848 -0.2736 -0.0532 -0.1829
 3477POPS   GL241980  22.318  18.560  15.910  0.1883  0.1082  0.1211
 3477POPS   C1A41981  22.760  18.414  16.216  0.2843  0.0073 -0.0065
 3477POPS   D2A41982  23.025  18.383  16.553 -0.0226  0.0509 -0.3106
 3477POPS   C3A41983  22.978  18.563  16.933  0.2218  0.0629  0.1862
 3477POPS   C4A41984  22.972  18.764  17.370 -0.0604 -0.4644  0.2433
 3477POPS   C1B41985  22.305  18.788  16.272  0.0412 -0.0079 -0.0333
 3477POPS   C2B41986  22.594  18.771  16.678  0.1408  0.1847 -0.1557
 3477POPS   C3B41987  22.380  18.487  17.017  0.2467  0.0435  0.0521
 3477POPS   C4B41988  21.963  18.528  17.107 -0.1842 -0.0709  0.1102
 3478POPS   CNO41989   7.107  29.363  14.764  0.0262  0.0327 -0.2618
 3478POPS   PO441990   7.409  29.379  14.885  0.1448  0.0819 -0.0980
 3478POPS   GL141991   7.371  29.381  15.303  0.0797  0.2368  0.0332
 3478POPS   GL241992   7.678  29.315  15.348 -0.0250 -0.2196 -0.2880
 3478POPS   C1A41993   7.185  29.408  15.753 -0.3567  0.2725  0.2689
 3478POPS   D2A41994   7.142  29.664  16.088  0.1505 -0.2709 -0.3454
 3478POPS   C3A41995   7.190  29.527  16.496  0.2003  0.0173 -0.0467
 3478POPS   C4A41996   7.511  29.508  16.792  0.3220 -0.1244 -0.0044
 3478POPS   C1B41997   7.628  29.087  15.730  0.3216  0.2774  0.3018
 3478POPS   C2B41998   7.495  29.288  16.094  0.2261  0.0181 -0.2404
 3478POPS   C3B41999   7.280  29.051  16.510  0.0337 -0.0782 -0.0745
 3478POPS   C4B42000   7.146  29.170  16.933 -0.2580  0.1984  0.1201
 3479POPS   CNO42001  16.326   6.366  15.051  0.1330 -0.1514  0.2450
 3479POPS   PO442002  16.412   6.663  15.221 -0.1498  0.0209  0.3490
 3479POPS   GL142003  16.567   6.645  15.568  0.1332  0.1931  0.1220
 3479POPS   GL242004  16.721   6.884  15.660 -0.2016 -0.0770  0.1436
 3479POPS   C1A42005  16.732   6.242  15.777  0.0321 -0.0938  0.3560
 3479POPS   D2A42006  16.465   6.107  16.045  0.1640 -0.1321 -0.2620
 3479POPS   C3A42007  16.505   5.670  16.024 -0.0629 -0.0007 -0.0785
 3479POPS   C4A42008  16.535   5.365  16.361  0.2777 -0.2546  0.0993
 3479POPS   C1B42009  16.894   6.647  16.002 -0.1908 -0.0731  0.0918
 3479POPS   C2B42010  17.166   6.391  16.198  0.1358  0.2767 -0.2752
 3479POPS   C3B42011  17.273   6.080  16.505  0.1368  0.1032  0.0884
 3479POPS   C4B42012  17.544   6.132  16.874 -0.2316 -0.2871  0.1461
 3480POPS   CNO42013  31.439  14.584  15.179 -0.1769 -0.0707 -0.0497
 3480POPS   PO442014  31.780  14.752  15.234  0.2328 -0.0678  0.0843
 3480POPS   GL142015  31.571  14.769  15.594  0.0429 -0.1204  0.3141
 3480POPS   GL242016  31.726  14.870  15.785 -0.2447  0.0318 -0.1026
 3480POPS   C1A42017  31.621  14.370  15.910  0.1571  0.0025  0.1645
 3480POPS   D2A42018  31.401  14.146  16.228 -0.4078  0.0206  0.1047
 3480POPS   C3A42019  31.408  14.287  16.617 -0.0856 -0.2466  0.2257
 3480POPS   C4A42020  31.398  14.590  16.973  0.0808  0.0066 -0.0847
 3480POPS   C1B42021  31.738  14.687  16.252  0.1810 -0.0886 -0.1072
 3480POPS   C2B42022  31.833  14.585  16.726 -0.0942 -0.0861 -0.0217
 3480POPS   C3B42023  31.894  14.630  17.177  0.1897  0.0633  0.3149
 3480POPS   C4B42024  31.697  14.355  17.548  0.2230  0.0887 -0.1894
 3481POPS   CNO42025  14.039   6.701  14.721 -0.0686 -0.0990  0.1121
 3481POPS   PO442026  13.795   6.545  14.968 -0.2623  0.2909  0.2150
 3481POPS   GL142027  13.913   6.548  15.379 -0.1664  0.0227  0.5052
 3481POPS   GL242028  13.890   6.876  15.493 -0.0314  0.1618  0.0903
 3481POPS   C1A42029  13.820   6.368  15.766 -0.3822 -0.1278  0.2774
 3481POPS   D2A42030  13.611   6.404  16.161 -0.0529 -0.0603  0.3122
 3481POPS   C3A42031  13.696   6.503  16.624 -0.0824  0.1132  0.2594
 3481POPS   C4A42032  13.479   6.469  17.056  0.1431  0.1318 -0.1322
 3481POPS   C1B42033  13.493   6.826  15.812  0.1434  0.0496  0.0319
 3481POPS   C2B42034  13.521   6.925  16.282  0.0317  0.1381 -0.1314
 3481POPS   C3B42035  13.548   7.036  16.737  0.0297 -0.0320 -0.1161
 3481POPS   C4B42036  13.605   7.444  16.954  0.0115  0.1255 -0.1127
 3482POPS   CNO42037  25.367  14.945  14.651 -0.2290 -0.0272  0.0938
 3482POPS   PO442038  25.454  14.794  15.005  0.2476 -0.3861 -0.0625
 3482POPS   GL142039  25.512  14.687  15.381  0.1919 -0.2125  0.0707
 3482POPS   GL242040  25.645  14.443  15.513 -0.2494  0.0159  0.2053
 3482POPS   C1A42041  25.553  14.913  15.767  0.0492 -0.1482 -0.2492
 3482POPS   D2A42042  25.816  15.050  16.062  0.0808  0.2885 -0.2204
 3482POPS   C3A42043  25.929  14.802  16.461 -0.1124  0.1562 -0.0359
 3482POPS   C4A42044  26.236  14.793  16.811  0.1385 -0.5296  0.0043
 3482POPS   C1B42045  25.554  14.485  15.957 -0.0466 -0.1423  0.2820
 3482POPS   C2B42046  25.521  14.259  16.363  0.1237 -0.1338 -0.1025
 3482POPS   C3B42047  25.317  14.095  16.793  0.0112 -0.0926  0.0647
 3482POPS   C4B42048  25.115  14.222  17.222  0.0547  0.0316  0.1376
 3483SAP2    C142049  16.121  23.173  14.732  0.2168 -0.1163  0.3742
 3483SAP2    C242050  16.277  23.143  14.506 -0.1462 -0.4041  0.1500
 3483SAP2    C342051  15.961  23.257  14.510  0.0285  0.1078  0.5873
 3483SAP2    C442052  16.120  23.191  14.583 -0.0007 -0.0007  0.6972
 3483SAP2   PO442053  16.317  23.332  14.928 -0.0653  0.2453  0.0814
 3483SAP2    P442054  15.953  23.355  14.184 -0.0493 -0.1261  0.2683
 3483SAP2    P542055  16.223  22.928  14.332  0.3911 -0.0091 -0.2264
 3483SAP2   GL142056  16.429  23.137  15.167 -0.1344 -0.0590  0.4419
 3483SAP2   GL242057  16.178  23.223  15.358  0.4253  0.1589  0.0852
 3483SAP2   D1A42058  16.836  23.166  15.329 -0.1120 -0.0615 -0.0440
 3483SAP2   D2A42059  17.241  22.930  15.270  0.0546  0.1291 -0.1070
 3483SAP2   D3A42060  17.582  23.059  15.523  0.0030  0.2086 -0.2329
 3483SAP2   D4A42061  17.588  22.733  15.882 -0.1203  0.0758 -0.0243
 3483SAP2   C5A42062  17.177  22.875  15.773 -0.0458 -0.0791  0.1171
 3483SAP2   C1B42063  16.165  23.102  15.782 -0.2816  0.1994 -0.3468
 3483SAP2   C2B42064  15.933  23.316  16.110 -0.1731  0.1030 -0.2801
 3483SAP2   C3B42065  15.606  23.247  16.409  0.0692  0.1535  0.3435
 3483SAP2   C4B42066  15.562  23.254  16.857 -0.2115  0.5662 -0.1674
 3484SAP2    C142067   0.574  29.151  14.759  0.2441  0.0927  0.0394
 3484SAP2    C242068   0.704  28.995  14.570  0.2794  0.0843  0.0706
 3484SAP2    C342069   0.418  29.165  14.519  0.3180  0.1263 -0.0069
 3484SAP2    C442070   0.565  29.104  14.616 -0.0007 -0.0007  0.6972
 3484SAP2   PO442071   0.786  29.353  15.002 -0.1283  0.0515  0.1724
 3484SAP2    P442072   0.448  29.051  14.227  0.3971  0.0458 -0.0424
 3484SAP2    P542073   0.616  28.696  14.591 -0.2092  0.0560 -0.0035
 3484SAP2   GL142074   1.060  29.311  15.100  0.1745  0.0534 -0.3161
 3484SAP2   GL242075   0.990  29.129  15.386  0.2183  0.0405  0.1135
 3484SAP2   D1A42076   1.122  29.668  15.386 -0.0122  0.0157 -0.0869
 3484SAP2   D2A42077   0.961  29.980  15.664  0.3275 -0.0527  0.0661
 3484SAP2   D3A42078   0.907  29.982  16.099 -0.3927  0.1899  0.2780
 3484SAP2   D4A42079   0.759  29.646  16.324 -0.2662 -0.2694 -0.3899
 3484SAP2   C5A42080   1.020  29.907  16.614 -0.1528  0.2680 -0.1825
 3484SAP2   C1B42081   0.939  28.925  15.776 -0.0276  0.0806 -0.3079
 3484SAP2   C2B42082   0.964  29.028  16.186  0.0589 -0.2215  0.1694
 3484SAP2   C3B42083   1.205  28.980  16.569  0.0146 -0.2179 -0.1050
 3484SAP2   C4B42084   1.449  29.135  16.942  0.1568  0.0348 -0.0210
 3485SAP2    C142085   4.127   7.167  14.789 -0.0065  0.0199  0.0630
 3485SAP2    C242086   4.052   7.273  14.544  0.0092  0.0261  0.0608
 3485SAP2    C342087   3.909   7.008  14.693  0.2324 -0.2037 -0.1248
 3485SAP2    C442088   4.029   7.149  14.676 -0.0007 -0.0007  0.6972
 3485SAP2   PO442089   4.157   7.413  14.984  0.1139 -0.1200 -0.1980
 3485SAP2    P442090   3.702   7.014  14.479  0.1001  0.0992  0.1274
 3485SAP2    P542091   4.146   7.206  14.269  0.1467 -0.0751 -0.0323
 3485SAP2   GL142092   4.326   7.492  15.262 -0.0316  0.1769 -0.0563
 3485SAP2   GL242093   4.085   7.503  15.434 -0.0576 -0.2680 -0.1890
 3485SAP2   D1A42094   4.551   7.864  15.385  0.2586 -0.1270 -0.1762
 3485SAP2   D2A42095   4.911   7.669  15.212 -0.2590  0.0491 -0.0751
 3485SAP2   D3A42096   5.134   7.417  15.500  0.0769  0.0231 -0.1928
 3485SAP2   D4A42097   4.736   7.524  15.727  0.2429 -0.2679  0.1862
 3485SAP2   C5A42098   4.987   7.883  15.814 -0.1611  0.1887 -0.1820
 3485SAP2   C1B42099   4.255   7.505  15.848 -0.1014 -0.2619  0.1791
 3485SAP2   C2B42100   4.440   7.681  16.241 -0.4554  0.0988 -0.0237
 3485SAP2   C3B42101   4.894   7.637  16.231 -0.0546  0.2508  0.1481
 3485SAP2   C4B42102   5.225   7.682  16.570  0.1400 -0.0697  0.0821
 3486SAP2    C142103   7.571  26.050  14.350 -0.0259  0.0793 -0.1428
 3486SAP2    C242104   7.715  26.201  14.168 -0.0200 -0.1892 -0.3664
 3486SAP2    C342105   7.693  25.866  14.169 -0.1949 -0.1819  0.0028
 3486SAP2    C442106   7.660  26.039  14.229 -0.0007 -0.0007  0.6972
 3486SAP2   PO442107   7.341  26.152  14.488  0.2189 -0.0080  0.1195
 3486SAP2    P442108   7.801  25.758  13.948  0.1004 -0.1273 -0.1614
 3486SAP2    P542109   7.960  26.271  14.020  0.2150 -0.0943  0.0228
 3486SAP2   GL142110   7.484  26.060  14.840  0.0389  0.1975  0.0854
 3486SAP2   GL242111   7.733  26.067  14.833 -0.1175  0.0495 -0.1032
 3486SAP2   D1A42112   7.035  25.901  14.947 -0.1778 -0.2504  0.1605
 3486SAP2   D2A42113   6.707  25.982  15.271 -0.2846  0.0647  0.1372
 3486SAP2   D3A42114   7.063  26.252  15.333  0.1494 -0.1889  0.0381
 3486SAP2   D4A42115   7.267  26.245  15.747 -0.1292 -0.1569 -0.1013
 3486SAP2   C5A42116   7.722  26.105  15.821  0.2032  0.1769  0.1968
 3486SAP2   C1B42117   7.539  26.037  15.262  0.1396  0.0761 -0.0876
 3486SAP2   C2B42118   7.274  25.769  15.540  0.1755 -0.1300 -0.2593
 3486SAP2   C3B42119   7.169  25.337  15.618  0.0281  0.1512 -0.0349
 3486SAP2   C4B42120   7.179  25.177  16.035  0.1020 -0.2083  0.3526
 3487SAP2    C142121  21.086  18.339  15.317  0.2852 -0.2680 -0.0749
 3487SAP2    C242122  21.273  18.319  15.114  0.1151  0.2057 -0.2936
 3487SAP2    C342123  20.968  18.455  15.083  0.1180  0.3743  0.3033
 3487SAP2    C442124  21.109  18.371  15.172 -0.0007 -0.0007  0.6972
 3487SAP2   PO442125  21.181  18.497  15.614  0.0927  0.2199 -0.1990
 3487SAP2    P442126  20.978  18.426  14.772  0.0449  0.0841  0.1819
 3487SAP2    P542127  21.384  18.142  14.870 -0.1410 -0.0028  0.0158
 3487SAP2   GL142128  21.239  18.358  15.869 -0.4245  0.0771 -0.1222
 3487SAP2   GL242129  21.336  18.108  16.002  0.1730  0.1686  0.0853
 3487SAP2   D1A42130  20.838  18.183  15.973  0.0691 -0.1273  0.2365
 3487SAP2   D2A42131  20.530  18.563  16.116 -0.1276  0.1479  0.0266
 3487SAP2   D3A42132  20.486  18.216  16.459  0.0103  0.0482 -0.1237
 3487SAP2   D4A42133  20.505  18.293  16.907 -0.0265  0.3250  0.1158
 3487SAP2   C5A42134  20.882  18.229  17.161  0.0059  0.3135  0.3572
 3487SAP2   C1B42135  21.129  18.360  16.382 -0.1359 -0.1697  0.0617
 3487SAP2   C2B42136  20.874  18.512  16.739 -0.1041 -0.1220 -0.0044
 3487SAP2   C3B42137  20.938  18.808  17.062  0.0536 -0.0736 -0.0362
 3487SAP2   C4B42138  21.128  18.913  17.482  0.0972 -0.0007 -0.4394
 3488SAP2    C142139  20.295   2.068  14.281  0.0700 -0.0274  0.0006
 3488SAP2    C242140  20.314   2.080  14.005  0.0155 -0.1225 -0.0077
 3488SAP2    C342141  20.164   2.309  14.199 -0.1133 -0.1504 -0.0735
 3488SAP2    C442142  20.258   2.152  14.161 -0.0007 -0.0007  0.6972
 3488SAP2   PO442143  20.619   1.938  14.338 -0.0734 -0.0241 -0.0982
 3488SAP2    P442144  20.112   2.501  13.992 -0.3667  0.2676 -0.2648
 3488SAP2    P542145  20.121   1.972  13.763  0.0953  0.2337 -0.1190
 3488SAP2   GL142146  20.644   1.678  14.538  0.0844  0.2644 -0.0148
 3488SAP2   GL242147  20.337   1.727  14.680 -0.0451  0.3180 -0.2319
 3488SAP2   D1A42148  21.028   1.903  14.692 -0.0952  0.2706 -0.0560
 3488SAP2   D2A42149  20.649   2.104  14.816  0.0652 -0.0459 -0.0885
 3488SAP2   D3A42150  20.319   2.281  15.073  0.1726 -0.1574 -0.2495
 3488SAP2   D4A42151  20.772   2.472  15.092  0.0396 -0.0837  0.3463
 3488SAP2   C5A42152  20.796   2.706  15.453 -0.2760  0.1757  0.0529
 3488SAP2   C1B42153  20.518   1.273  14.806  0.0059  0.1658 -0.2398
 3488SAP2   C2B42154  20.570   0.942  15.168  0.2004  0.0147 -0.1986
 3488SAP2   C3B42155  20.476   0.466  15.343 -0.1075  0.1510 -0.0057
 3488SAP2   C4B42156  20.754   0.105  15.426 -0.2099  0.2990 -0.1847
 3489SAP2    C142157  25.876  10.152  14.621  0.2108 -0.0793 -0.0906
 3489SAP2    C242158  26.036   9.959  14.502  0.0223 -0.2571 -0.0602
 3489SAP2    C342159  25.778  10.116  14.355  0.0650 -0.1560 -0.0277
 3489SAP2    C442160  25.897  10.075  14.493 -0.0007 -0.0007  0.6972
 3489SAP2   PO442161  25.980  10.384  14.823 -0.1255  0.2560 -0.1375
 3489SAP2    P442162  25.786  10.036  14.051 -0.0567 -0.1443  0.1663
 3489SAP2    P542163  25.987   9.724  14.416  0.0596 -0.3113 -0.0850
 3489SAP2   GL142164  25.927  10.272  15.118 -0.3532 -0.5000  0.0688
 3489SAP2   GL242165  25.838  10.086  15.323 -0.0128 -0.0740 -0.0832
 3489SAP2   D1A42166  26.132  10.696  15.200  0.0138  0.0857 -0.0269
 3489SAP2   D2A42167  26.548  10.874  15.080  0.3894  0.0767  0.0926
 3489SAP2   D3A42168  26.379  11.100  15.496  0.2300 -0.2099 -0.3227
 3489SAP2   D4A42169  26.712  11.340  15.206 -0.0609  0.1267  0.0988
 3489SAP2   C5A42170  27.095  11.249  15.476 -0.2707  0.1439 -0.0549
 3489SAP2   C1B42171  26.038  10.407  15.603  0.1547  0.1781  0.0889
 3489SAP2   C2B42172  25.948  10.615  15.998 -0.1141  0.1700  0.0741
 3489SAP2   C3B42173  25.669  10.899  16.248  0.2546  0.0600  0.2116
 3489SAP2   C4B42174  25.391  11.119  16.558 -0.1414 -0.0135 -0.4532
 3490SAP2    C142175  11.614  23.041  14.605 -0.1423 -0.0828  0.0050
 3490SAP2    C242176  11.808  23.199  14.725 -0.1980 -0.1390  0.1724
 3490SAP2    C342177  11.645  23.273  14.440  0.1349 -0.1367 -0.0218
 3490SAP2    C442178  11.689  23.171  14.590 -0.0007 -0.0007  0.6972
 3490SAP2   PO442179  11.410  22.968  14.874  0.2924  0.0775  0.3201
 3490SAP2    P442180  11.737  23.566  14.418 -0.2292 -0.1911  0.0727
 3490SAP2    P542181  12.090  23.222  14.544 -0.1348 -0.1463  0.0467
 3490SAP2   GL142182  11.545  23.095  15.161  0.1883  0.4754  0.0001
 3490SAP2   GL242183  11.756  22.892  15.244  0.0593 -0.1927  0.0873
 3490SAP2   D1A42184  11.184  23.329  15.339  0.3749 -0.2358 -0.1074
 3490SAP2   D2A42185  11.225  23.834  15.302 -0.0127  0.1860  0.1596
 3490SAP2   D3A42186  10.801  23.884  15.187 -0.1093 -0.1549  0.0502
 3490SAP2   D4A42187  10.384  23.992  15.338 -0.2850  0.2886  0.2641
 3490SAP2   C5A42188  10.479  23.535  15.440  0.1427  0.1977  0.1204
 3490SAP2   C1B42189  11.560  23.053  15.658 -0.1288 -0.0686  0.2128
 3490SAP2   C2B42190  11.413  22.808  15.987 -0.1505  0.2373 -0.0478
 3490SAP2   C3B42191  11.427  22.632  16.372 -0.0952  0.0134 -0.0694
 3490SAP2   C4B42192  11.373  22.769  16.823 -0.2735 -0.2104 -0.0247
 3491SAP2    C142193   9.999  20.805  15.271  0.1437 -0.1918 -0.0806
 3491SAP2    C242194   9.778  20.802  15.104  0.1287 -0.0331 -0.0650
 3491SAP2    C342195  10.041  21.009  15.075  0.1267 -0.0048  0.1069
 3491SAP2    C442196   9.940  20.872  15.150 -0.0007 -0.0007  0.6972
 3491SAP2   PO442197  10.093  20.487  15.338 -0.2773 -0.0765 -0.1631
 3491SAP2    P442198  10.012  21.210  14.849 -0.0652  0.0317 -0.3702
 3491SAP2    P542199   9.639  20.887  14.870  0.1476 -0.1216  0.0739
 3491SAP2   GL142200  10.122  20.484  15.640 -0.0960 -0.1206 -0.2423
 3491SAP2   GL242201   9.943  20.512  15.866  0.0467  0.0961 -0.0206
 3491SAP2   D1A42202  10.398  20.644  16.018 -0.1738 -0.4308 -0.0168
 3491SAP2   D2A42203  10.881  20.560  15.998 -0.0888 -0.0071  0.0958
 3491SAP2   D3A42204  11.136  20.212  16.152 -0.1004 -0.2242  0.1437
 3491SAP2   D4A42205  11.329  20.437  16.522  0.1449  0.1240  0.0026
 3491SAP2   C5A42206  11.178  20.013  16.732  0.0458 -0.0696 -0.0118
 3491SAP2   C1B42207  10.000  20.407  16.304  0.1321  0.0255  0.0917
 3491SAP2   C2B42208  10.145  20.592  16.673 -0.0747  0.1367  0.1610
 3491SAP2   C3B42209  10.209  20.815  16.981  0.0429  0.1676 -0.0936
 3491SAP2   C4B42210  10.427  21.081  17.306 -0.0039  0.4376 -0.2156
 3492SAP2    C142211  27.195  30.243  13.889 -0.1314 -0.1599  0.1876
 3492SAP2    C242212  26.980  30.175  13.729  0.0469  0.1040 -0.1787
 3492SAP2    C342213  27.259  29.992  13.767 -0.0133  0.0207 -0.1355
 3492SAP2    C442214  27.145  30.137  13.795 -0.0007 -0.0007  0.6972
 3492SAP2   PO442215  27.077  30.366  14.165 -0.0755 -0.0558 -0.0599
 3492SAP2    P442216  27.148  29.770  13.571  0.1312  0.1692  0.0908
 3492SAP2    P542217  26.936  30.202  13.450 -0.0272 -0.0847  0.0397
 3492SAP2   GL142218  27.280  30.262  14.464 -0.2020 -0.2775  0.0578
 3492SAP2   GL242219  27.143  30.129  14.675 -0.2271 -0.2224  0.1801
 3492SAP2   D1A42220  27.107  30.675  14.628 -0.1160 -0.2835  0.0461
 3492SAP2   D2A42221  26.979  30.636  15.037  0.0946 -0.1873 -0.1025
 3492SAP2   D3A42222  26.600  30.717  14.764  0.0849 -0.0730 -0.2232
 3492SAP2   D4A42223  26.689  31.079  15.025 -0.3826 -0.0316 -0.0269
 3492SAP2   C5A42224  26.784  31.202  14.581 -0.0370 -0.0353  0.2449
 3492SAP2   C1B42225  27.432  30.331  15.008 -0.0241  0.2273  0.0873
 3492SAP2   C2B42226  27.485  30.744  15.170  0.2169 -0.1062  0.1183
 3492SAP2   C3B42227  27.714  30.807  15.541 -0.2002 -0.0216  0.0529
 3492SAP2   C4B42228  27.758  30.858  16.058 -0.1441  0.1592  0.0496
 3493SAP2    C142229  28.748   4.750  14.040 -0.1132  0.0164 -0.0413
 3493SAP2    C242230  28.580   4.695  13.827  0.0184  0.1711 -0.1882
 3493SAP2    C342231  28.571   4.542  14.125 -0.2352  0.0234 -0.2685
 3493SAP2    C442232  28.633   4.662  13.997 -0.0007 -0.0007  0.6972
 3493SAP2   PO442233  28.850   5.098  13.986  0.1150  0.1113 -0.0138
 3493SAP2    P442234  28.322   4.429  14.075 -0.2119 -0.0055 -0.2635
 3493SAP2    P542235  28.488   4.477  13.635 -0.1267 -0.0418  0.0549
 3493SAP2   GL142236  29.193   5.134  14.019  0.1155 -0.1242 -0.0173
 3493SAP2   GL242237  29.124   5.319  14.281 -0.1011  0.1226 -0.4698
 3493SAP2   D1A42238  29.239   5.534  13.838 -0.3809  0.2480  0.1837
 3493SAP2   D2A42239  29.379   5.732  14.224  0.1555  0.2117  0.0925
 3493SAP2   D3A42240  29.683   5.811  14.553 -0.2709  0.0224  0.1504
 3493SAP2   D4A42241  29.672   6.187  14.212  0.0938 -0.1930 -0.0439
 3493SAP2   C5A42242  29.306   6.278  13.942  0.0746  0.3419  0.1143
 3493SAP2   C1B42243  28.822   5.434  14.599 -0.1451 -0.2235 -0.0164
 3493SAP2   C2B42244  28.735   5.512  15.071 -0.3834 -0.3163 -0.0566
 3493SAP2   C3B42245  28.598   5.593  15.502 -0.0351  0.1227 -0.2331
 3493SAP2   C4B42246  28.355   5.742  15.905  0.1811 -0.1712  0.2617
 3494SAP2    C142247  26.420  26.159  15.296 -0.2552 -0.2599 -0.0856
 3494SAP2    C242248  26.367  26.250  15.040 -0.0261  0.0428 -0.0317
 3494SAP2    C342249  26.352  25.930  15.139 -0.1902 -0.0694 -0.4017
 3494SAP2    C442250  26.379  26.113  15.158 -0.0007 -0.0007  0.6972
 3494SAP2   PO442251  26.329  26.354  15.516 -0.1132 -0.0282 -0.0279
 3494SAP2    P442252  26.282  25.825  14.847  0.1268  0.2244 -0.2523
 3494SAP2    P542253  26.624  26.247  14.850 -0.2157  0.1662  0.1223
 3494SAP2   GL142254  26.231  26.196  15.783 -0.2768  0.2750  0.2855
 3494SAP2   GL242255  26.364  26.468  15.937 -0.3833 -0.2018  0.0229
 3494SAP2   D1A42256  26.511  25.882  16.026  0.0667 -0.1394 -0.1149
 3494SAP2   D2A42257  26.793  26.202  16.173  0.0228  0.0761 -0.0677
 3494SAP2   D3A42258  26.730  26.286  16.647 -0.0985 -0.1971 -0.1117
 3494SAP2   D4A42259  26.725  26.013  17.041 -0.1333  0.1942  0.0981
 3494SAP2   C5A42260  27.129  26.229  16.999  0.2842  0.2815  0.1702
 3494SAP2   C1B42261  26.353  26.282  16.331  0.0829  0.4599  0.1114
 3494SAP2   C2B42262  26.172  26.222  16.746  0.0094 -0.1170 -0.0384
 3494SAP2   C3B42263  26.149  26.391  17.186  0.1947  0.1988  0.1344
 3494SAP2   C4B42264  26.115  26.319  17.675  0.3946  0.0387 -0.0495
 3495SAP2    C142265  12.892  30.709  14.244  0.3225  0.0550  0.0567
 3495SAP2    C242266  12.989  30.483  14.118 -0.1746 -0.0156 -0.2239
 3495SAP2    C342267  12.897  30.767  13.964 -0.1926  0.1330  0.0541
 3495SAP2    C442268  12.926  30.653  14.109 -0.0007 -0.0007  0.6972
 3495SAP2   PO442269  13.157  30.649  14.499  0.0998 -0.2693  0.1379
 3495SAP2    P442270  12.993  30.732  13.678  0.1665 -0.0590 -0.1025
 3495SAP2    P542271  12.972  30.276  13.953 -0.0971  0.0970 -0.3066
 3495SAP2   GL142272  13.367  30.792  14.633 -0.1474 -0.2221  0.0851
 3495SAP2   GL242273  13.550  30.972  14.417  0.1660  0.0554  0.0020
 3495SAP2   D1A42274  13.101  31.128  14.647 -0.2086 -0.3070  0.0660
 3495SAP2   D2A42275  13.279  31.396  15.007 -0.1587  0.0037 -0.0625
 3495SAP2   D3A42276  13.291  30.951  15.152  0.1803  0.1441  0.1016
 3495SAP2   D4A42277  12.914  31.049  15.287  0.1634 -0.2882 -0.0831
 3495SAP2   C5A42278  12.736  31.154  15.762 -0.1207 -0.0454  0.2282
 3495SAP2   C1B42279  13.683  30.988  14.873  0.0382 -0.0924 -0.1879
 3495SAP2   C2B42280  13.998  31.147  15.214  0.1588 -0.2894 -0.0707
 3495SAP2   C3B42281  13.979  31.482  15.531 -0.2978  0.1824  0.1143
 3495SAP2   C4B42282  13.688  31.794  15.708 -0.5028 -0.2945 -0.0326
 3496SAP2    C142283   8.530   8.682  14.937 -0.0316 -0.3228 -0.1345
 3496SAP2    C242284   8.650   8.865  14.768 -0.0870 -0.1918 -0.0334
 3496SAP2    C342285   8.414   8.644  14.678 -0.0221 -0.2122 -0.1554
 3496SAP2    C442286   8.531   8.730  14.794 -0.0007 -0.0007  0.6972
 3496SAP2   PO442287   8.650   8.908  15.231 -0.0006  0.0524 -0.1944
 3496SAP2    P442288   8.412   8.782  14.391  0.3221 -0.1656  0.0646
 3496SAP2    P542289   8.867   8.843  14.562 -0.0861 -0.0920  0.0707
 3496SAP2   GL142290   8.432   8.940  15.409 -0.1690  0.3751 -0.2214
 3496SAP2   GL242291   8.260   8.710  15.487 -0.4775  0.3323  0.0892
 3496SAP2   D1A42292   8.475   9.359  15.509 -0.3676 -0.0485 -0.0304
 3496SAP2   D2A42293   8.088   9.601  15.594  0.0123  0.1621  0.0395
 3496SAP2   D3A42294   7.841   9.598  16.018 -0.1803 -0.1846 -0.2401
 3496SAP2   D4A42295   8.236   9.782  16.136 -0.0062 -0.3083 -0.0402
 3496SAP2   C5A42296   8.364   9.436  15.944 -0.2130  0.1094  0.0776
 3496SAP2   C1B42297   8.258   8.664  15.920 -0.1621  0.2660 -0.1010
 3496SAP2   C2B42298   8.082   8.623  16.309  0.0238  0.4373 -0.1711
 3496SAP2   C3B42299   7.965   8.568  16.793 -0.0050 -0.0922 -0.1522
 3496SAP2   C4B42300   8.259   8.536  17.142 -0.0465 -0.2682  0.1216
 3497SAP2    C142301  29.019  15.724  15.014 -0.0196  0.0077  0.2333
 3497SAP2    C242302  28.836  15.781  14.814 -0.1304  0.2523  0.3995
 3497SAP2    C342303  28.941  15.474  14.900  0.2561  0.1593 -0.3263
 3497SAP2    C442304  28.932  15.660  14.909 -0.0007 -0.0007  0.6972
 3497SAP2   PO442305  28.937  15.919  15.237  0.0265  0.0706  0.4803
 3497SAP2    P442306  28.703  15.322  14.698 -0.0948  0.0653 -0.1728
 3497SAP2    P542307  28.831  15.715  14.480  0.2742 -0.1235  0.0438
 3497SAP2   GL142308  28.804  15.893  15.378  0.0766 -0.1624  0.1538
 3497SAP2   GL242309  28.840  15.802  15.661  0.1410 -0.1132  0.0561
 3497SAP2   D1A42310  28.325  15.859  15.493 -0.0027  0.3093 -0.1507
 3497SAP2   D2A42311  28.340  15.729  15.886  0.2933  0.2917  0.1970
 3497SAP2   D3A42312  28.546  15.408  15.614  0.1345 -0.2828 -0.0964
 3497SAP2   D4A42313  28.519  15.265  16.066  0.0338  0.1047  0.0038
 3497SAP2   C5A42314  28.870  15.236  16.354 -0.2627  0.0296 -0.1250
 3497SAP2   C1B42315  28.946  16.166  15.952 -0.2872 -0.2041  0.3755
 3497SAP2   C2B42316  28.722  16.574  16.045 -0.2856  0.1802  0.2269
 3497SAP2   C3B42317  28.945  16.976  16.199  0.2787 -0.3114  0.1830
 3497SAP2   C4B42318  29.232  17.295  15.933 -0.2144 -0.2651  0.3344
 3498SAP2    C142319  12.435  27.353  14.788  0.2736  0.1037  0.1280
 3498SAP2    C242320  12.415  27.114  14.649  0.5772 -0.0264  0.2960
 3498SAP2    C342321  12.279  27.407  14.554  0.3852 -0.2132 -0.0254
 3498SAP2    C442322  12.376  27.291  14.664 -0.0007 -0.0007  0.6972
 3498SAP2   PO442323  12.752  27.351  14.853  0.0457  0.1763 -0.1695
 3498SAP2    P442324  12.204  27.398  14.281 -0.1990  0.2810  0.0358
 3498SAP2    P542325  12.330  26.935  14.381 -0.0470 -0.0208 -0.0174
 3498SAP2   GL142326  12.824  27.222  15.156  0.0665 -0.1688  0.4906
 3498SAP2   GL242327  12.932  26.938  15.268  0.0513  0.0549 -0.0372
 3498SAP2   D1A42328  12.844  27.372  15.614 -0.0302  0.1018 -0.3117
 3498SAP2   D2A42329  13.284  27.223  15.663 -0.0620  0.3705 -0.2245
 3498SAP2   D3A42330  13.176  26.792  15.713  0.0241  0.0829  0.1780
 3498SAP2   D4A42331  13.399  26.484  15.976  0.2703  0.3273  0.2165
 3498SAP2   C5A42332  13.285  26.134  16.298  0.0332  0.0257 -0.1761
 3498SAP2   C1B42333  12.925  26.489  15.448 -0.1970 -0.0677  0.0980
 3498SAP2   C2B42334  12.717  26.156  15.641  0.1414 -0.0364 -0.0555
 3498SAP2   C3B42335  12.681  26.099  16.070  0.0783 -0.0497 -0.2665
 3498SAP2   C4B42336  12.876  25.952  16.510  0.0496  0.0561  0.0851
 3499SAP2    C142337  30.020   7.269  13.509  0.1546  0.1294  0.2642
 3499SAP2    C242338  30.132   7.173  13.275  0.0120 -0.1211  0.2950
 3499SAP2    C342339  30.146   7.492  13.381  0.2077 -0.0359  0.0234
 3499SAP2    C442340  30.100   7.311  13.388 -0.0007 -0.0007  0.6972
 3499SAP2   PO442341  29.979   6.991  13.704 -0.1360  0.0742  0.1952
 3499SAP2    P442342  30.341   7.648  13.153  0.1711  0.1364 -0.2485
 3499SAP2    P542343  30.157   7.170  12.987 -0.2322  0.1662 -0.1572
 3499SAP2   GL142344  29.703   6.964  13.633 -0.1106  0.1106  0.0858
 3499SAP2   GL242345  29.495   7.085  13.512 -0.1991  0.0645  0.3180
 3499SAP2   D1A42346  29.590   6.671  13.996 -0.0559 -0.0998 -0.0043
 3499SAP2   D2A42347  29.624   6.834  14.420  0.0741 -0.0983  0.4365
 3499SAP2   D3A42348  29.306   7.181  14.403 -0.1857  0.0680 -0.0781
 3499SAP2   D4A42349  29.038   6.823  14.392  0.5282 -0.1190 -0.0409
 3499SAP2   C5A42350  28.878   7.127  14.131  0.0266  0.2961  0.1233
 3499SAP2   C1B42351  29.194   6.893  13.836 -0.0037 -0.0144  0.0993
 3499SAP2   C2B42352  28.792   6.648  13.969  0.3136  0.3800  0.0245
 3499SAP2   C3B42353  28.835   6.178  14.141  0.1428 -0.1757 -0.0182
 3499SAP2   C4B42354  28.909   5.811  14.291 -0.1032  0.0346 -0.0196
 3500SAP2    C142355   1.226   7.939  15.114  0.2261 -0.0317 -0.0073
 3500SAP2    C242356   1.304   7.816  14.879  0.1033  0.0814 -0.1085
 3500SAP2    C342357   1.121   8.097  14.899 -0.1155 -0.0737  0.1233
 3500SAP2    C442358   1.217   7.951  14.964 -0.0007 -0.0007  0.6972
 3500SAP2   PO442359   1.463   7.899  15.333  0.1047 -0.2368  0.0322
 3500SAP2    P442360   0.939   8.077  14.603  0.0510  0.1224 -0.1096
 3500SAP2    P542361   1.197   7.671  14.646  0.1561 -0.2176  0.0068
 3500SAP2   GL142362   1.373   7.765  15.488 -0.1227 -0.1326  0.0290
 3500SAP2   GL242363   1.211   7.568  15.736 -0.0360 -0.1927 -0.5466
 3500SAP2   D1A42364   1.637   7.955  15.820  0.0181  0.1443 -0.1474
 3500SAP2   D2A42365   1.490   7.776  16.208  0.2342 -0.2630 -0.0812
 3500SAP2   D3A42366   1.345   8.214  16.214  0.0363 -0.1482  0.0213
 3500SAP2   D4A42367   1.425   8.630  16.292 -0.2217 -0.0012  0.0982
 3500SAP2   C5A42368   1.880   8.832  16.121  0.2305  0.5055  0.0985
 3500SAP2   C1B42369   0.909   7.777  15.979 -0.2656  0.4122  0.0911
 3500SAP2   C2B42370   0.997   7.924  16.425 -0.0815 -0.0031  0.0332
 3500SAP2   C3B42371   1.035   7.917  16.904 -0.1202 -0.0575  0.1101
 3500SAP2   C4B42372   1.423   7.926  17.170  0.0743  0.2155  0.1334
 3501SAP2    C142373  31.477  23.681  14.162  0.0494  0.0384 -0.0519
 3501SAP2    C242374  31.241  23.623  14.029 -0.1436 -0.0941  0.3351
 3501SAP2    C342375  31.506  23.418  14.053 -0.0565 -0.0186  0.0561
 3501SAP2    C442376  31.408  23.574  14.081 -0.0007 -0.0007  0.6972
 3501SAP2   PO442377  31.462  23.836  14.453  0.1712 -0.2308 -0.1151
 3501SAP2    P442378  31.328  23.144  13.981  0.0985 -0.0904 -0.1880
 3501SAP2    P542379  31.048  23.534  13.852 -0.1618 -0.1881  0.0024
 3501SAP2   GL142380  31.311  24.127  14.626 -0.0834 -0.1934 -0.4885
 3501SAP2   GL242381  31.111  23.999  14.835 -0.0735 -0.4448  0.0140
 3501SAP2   D1A42382  31.496  24.489  14.823 -0.0173 -0.2190 -0.2945
 3501SAP2   D2A42383  31.780  24.210  15.107  0.0973 -0.1683  0.0700
 3501SAP2   D3A42384  31.415  23.938  15.260 -0.0911  0.2660 -0.1447
 3501SAP2   D4A42385  30.983  24.007  15.418  0.2527  0.3054  0.1375
 3501SAP2   C5A42386  30.695  23.703  15.563  0.0268  0.2364 -0.0823
 3501SAP2   C1B42387  31.072  24.440  15.128  0.4626 -0.1457  0.2913
 3501SAP2   C2B42388  30.794  24.450  15.502  0.1760  0.1898  0.3991
 3501SAP2   C3B42389  30.890  24.763  15.811  0.0423 -0.1177  0.0714
 3501SAP2   C4B42390  30.700  25.156  15.808 -0.1207 -0.3003 -0.3087
 3502SAP2    C142391   4.587  28.524  14.498 -0.1465  0.0215  0.1991
 3502SAP2    C242392   4.768  28.604  14.304 -0.0922  0.1212  0.2897
 3502SAP2    C342393   4.636  28.296  14.332 -0.0683  0.0945  0.1207
 3502SAP2    C442394   4.664  28.475  14.378 -0.0007 -0.0007  0.6972
 3502SAP2   PO442395   4.368  28.766  14.477 -0.0897 -0.0153 -0.1226
 3502SAP2    P442396   4.847  28.144  14.165  0.0303  0.2769 -0.1391
 3502SAP2    P542397   4.899  28.538  13.995  0.0604  0.1144 -0.1670
 3502SAP2   GL142398   4.385  29.044  14.713 -0.0010  0.2382 -0.1124
 3502SAP2   GL242399   4.529  29.281  14.657 -0.1475  0.1895 -0.0093
 3502SAP2   D1A42400   4.580  29.000  15.153  0.0425  0.1034  0.0334
 3502SAP2   D2A42401   4.736  29.227  15.489 -0.0519 -0.1210 -0.4707
 3502SAP2   D3A42402   4.522  29.124  15.923 -0.1553  0.0489 -0.0926
 3502SAP2   D4A42403   4.877  28.940  16.029  0.2285 -0.1305 -0.1966
 3502SAP2   C5A42404   4.550  28.882  16.398 -0.2799  0.1110 -0.1263
 3502SAP2   C1B42405   4.224  29.390  15.002 -0.2946  0.0186 -0.0901
 3502SAP2   C2B42406   3.878  29.453  15.306  0.4561  0.0594  0.1183
 3502SAP2   C3B42407   3.589  29.509  15.677 -0.1340  0.0054 -0.0651
 3502SAP2   C4B42408   3.182  29.379  15.448 -0.3199 -0.0006 -0.2590
 3503SAP2    C142409   5.005  11.044  14.355  0.0162 -0.0664 -0.0685
 3503SAP2    C242410   4.992  10.768  14.341 -0.1512 -0.0538 -0.2016
 3503SAP2    C342411   5.111  10.969  14.100 -0.0039 -0.0094 -0.0938
 3503SAP2    C442412   5.036  10.927  14.265 -0.0007 -0.0007  0.6972
 3503SAP2   PO442413   5.146  11.027  14.655  0.1848  0.0190 -0.0549
 3503SAP2    P442414   5.144  10.816  13.840 -0.3211 -0.2014  0.0439
 3503SAP2    P542415   4.816  10.567  14.127 -0.2014 -0.1495 -0.1572
 3503SAP2   GL142416   5.225  10.701  14.819 -0.0726  0.3508  0.0573
 3503SAP2   GL242417   5.220  10.855  15.098  0.1915  0.1012 -0.3161
 3503SAP2   D1A42418   5.680  10.750  14.848 -0.1907  0.0761 -0.1681
 3503SAP2   D2A42419   5.733  11.092  15.162 -0.2155  0.3122  0.0505
 3503SAP2   D3A42420   6.064  11.399  15.087 -0.0747 -0.1790 -0.1884
 3503SAP2   D4A42421   5.858  11.800  15.060 -0.0118 -0.0765 -0.2414
 3503SAP2   C5A42422   6.157  11.870  15.452  0.3932  0.1519  0.3399
 3503SAP2   C1B42423   5.551  10.685  15.376 -0.0266  0.4461 -0.3829
 3503SAP2   C2B42424   5.428  10.351  15.574  0.0059 -0.1046 -0.0008
 3503SAP2   C3B42425   5.266  10.451  16.019 -0.1766 -0.3290 -0.0312
 3503SAP2   C4B42426   5.355  10.796  16.315  0.2315  0.0023 -0.0749
 3504SAP2    C142427  11.858  25.178  14.524  0.1874  0.0892 -0.0382
 3504SAP2    C242428  11.626  25.071  14.417  0.0818 -0.1922  0.4412
 3504SAP2    C342429  11.923  25.088  14.260 -0.2329  0.1064 -0.1534
 3504SAP2    C442430  11.802  25.112  14.400 -0.0007 -0.0007  0.6972
 3504SAP2   PO442431  11.867  25.057  14.852 -0.2624 -0.1785 -0.0518
 3504SAP2    P442432  11.867  24.981  14.023  0.0913 -0.0738 -0.0032
 3504SAP2    P542433  11.444  25.196  14.248  0.1331 -0.0081 -0.1129
 3504SAP2   GL142434  11.751  25.321  15.013 -0.0657  0.0211  0.1085
 3504SAP2   GL242435  11.519  25.455  15.204 -0.3291  0.1520  0.0818
 3504SAP2   D1A42436  11.876  25.092  15.377  0.0177 -0.0973 -0.0677
 3504SAP2   D2A42437  11.888  25.448  15.693  0.1664 -0.1133  0.2950
 3504SAP2   D3A42438  11.481  25.244  15.860  0.0019 -0.0425  0.0912
 3504SAP2   D4A42439  11.726  25.128  16.199 -0.1449  0.0432  0.3126
 3504SAP2   C5A42440  12.083  25.376  16.175 -0.1384 -0.2275 -0.0418
 3504SAP2   C1B42441  11.389  25.653  15.587  0.1785  0.1313 -0.0400
 3504SAP2   C2B42442  11.077  25.675  15.929  0.2247  0.2197 -0.1222
 3504SAP2   C3B42443  10.704  25.719  16.144  0.0084 -0.1811  0.0863
 3504SAP2   C4B42444  10.414  25.863  16.475  0.2490  0.0857  0.3236
 3505SAP2    C142445   4.737  11.857  14.881  0.0295  0.0992 -0.1502
 3505SAP2    C242446   4.565  11.724  14.710 -0.1881  0.2551 -0.0582
 3505SAP2    C342447   4.836  11.897  14.615 -0.0877  0.0226 -0.2067
 3505SAP2    C442448   4.713  11.826  14.735 -0.0007 -0.0007  0.6972
 3505SAP2   PO442449   4.769  11.643  15.151  0.1876  0.0726 -0.0408
 3505SAP2    P442450   4.852  11.839  14.326  0.0652 -0.1311 -0.0205
 3505SAP2    P542451   4.365  11.924  14.581 -0.1259  0.0498 -0.1044
 3505SAP2   GL142452   4.862  11.983  15.255  0.3246  0.1440  0.2119
 3505SAP2   GL242453   5.009  11.879  15.503  0.0546 -0.0058 -0.1146
 3505SAP2   D1A42454   5.097  12.371  15.476 -0.1637  0.3796 -0.1841
 3505SAP2   D2A42455   5.457  12.157  15.257 -0.0816 -0.0203  0.1838
 3505SAP2   D3A42456   5.575  12.536  15.405  0.5952  0.1238  0.3457
 3505SAP2   D4A42457   5.673  12.684  15.821 -0.1380  0.2848  0.2236
 3505SAP2   C5A42458   5.423  12.288  15.811  0.0079 -0.1504 -0.1881
 3505SAP2   C1B42459   5.029  11.868  15.922 -0.5592 -0.0279  0.0880
 3505SAP2   C2B42460   5.117  11.929  16.372  0.2568 -0.2474 -0.1982
 3505SAP2   C3B42461   5.368  12.002  16.727 -0.2021 -0.1393 -0.0968
 3505SAP2   C4B42462   5.735  11.934  17.002 -0.1823  0.0121 -0.0280
 3506SAP2    C142463   0.581  22.096  14.468 -0.0886 -0.1230 -0.0414
 3506SAP2    C242464   0.362  22.093  14.299  0.0230 -0.1018 -0.1894
 3506SAP2    C342465   0.658  21.948  14.234  0.0539 -0.1301  0.0086
 3506SAP2    C442466   0.533  22.046  14.334 -0.0007 -0.0007  0.6972
 3506SAP2   PO442467   0.393  22.084  14.746 -0.0801  0.1331  0.1300
 3506SAP2    P442468   0.583  21.872  13.968  0.2041  0.0181  0.1082
 3506SAP2    P542469   0.317  22.328  14.115  0.0937  0.0645  0.2751
 3506SAP2   GL142470   0.576  22.166  15.050  0.0406 -0.2640 -0.2801
 3506SAP2   GL242471   0.876  22.114  14.916 -0.0351 -0.3122  0.0295
 3506SAP2   D1A42472   0.612  22.041  15.473 -0.1479 -0.2116  0.0847
 3506SAP2   D2A42473   0.410  22.247  15.826 -0.2994  0.0147  0.3446
 3506SAP2   D3A42474   0.837  22.113  15.950 -0.1168 -0.0707  0.1036
 3506SAP2   D4A42475   1.269  21.968  15.871 -0.3571  0.0308  0.4071
 3506SAP2   C5A42476   1.489  21.590  15.734  0.0634  0.0207 -0.1726
 3506SAP2   C1B42477   1.212  22.226  15.215 -0.0546  0.1286 -0.0089
 3506SAP2   C2B42478   1.217  22.555  15.558  0.0972  0.3597 -0.0117
 3506SAP2   C3B42479   1.445  22.722  15.895 -0.1785  0.0277 -0.2338
 3506SAP2   C4B42480   1.713  23.110  15.957  0.1391 -0.0528 -0.0499
 3507SAP2    C142481  20.204  16.469  14.482  0.2245  0.0320  0.0548
 3507SAP2    C242482  20.314  16.709  14.398 -0.0274  0.1834  0.1447
 3507SAP2    C342483  20.209  16.462  14.195 -0.0046  0.2576  0.0414
 3507SAP2    C442484  20.243  16.547  14.358 -0.0007 -0.0007  0.6972
 3507SAP2   PO442485  20.012  16.528  14.746  0.1405 -0.0368  0.0175
 3507SAP2    P442486  20.119  16.573  13.896 -0.4029 -0.0013  0.1265
 3507SAP2    P542487  20.567  16.718  14.246  0.1479 -0.2448 -0.2645
 3507SAP2   GL142488  19.993  16.245  15.014  0.1390 -0.1945  0.3749
 3507SAP2   GL242489  20.124  16.469  15.102 -0.0398 -0.2456  0.1623
 3507SAP2   D1A42490  20.128  15.837  15.087  0.1616 -0.3131  0.0551
 3507SAP2   D2A42491  19.786  15.959  15.390 -0.0186  0.0256  0.1265
 3507SAP2   D3A42492  19.303  15.925  15.416  0.0153 -0.1288 -0.1318
 3507SAP2   D4A42493  19.588  15.558  15.679  0.2763  0.0599  0.1182
 3507SAP2   C5A42494  19.475  15.567  16.134 -0.0291  0.0690  0.2371
 3507SAP2   C1B42495  20.281  16.220  15.482 -0.3125  0.0483 -0.2309
 3507SAP2   C2B42496  20.119  15.867  15.761 -0.0009 -0.1527 -0.2103
 3507SAP2   C3B42497  20.034  15.486  15.917  0.1476  0.1290  0.0190
 3507SAP2   C4B42498  20.314  15.057  15.993  0.1186 -0.0408  0.1869
 3508SAP2    C142499  12.712   5.576  14.585 -0.0882 -0.0971  0.0495
 3508SAP2    C242500  12.901   5.376  14.616  0.0756  0.0365 -0.0711
 3508SAP2    C342501  12.871   5.575  14.347 -0.0448  0.2167  0.0734
 3508SAP2    C442502  12.828   5.509  14.516 -0.0007 -0.0007  0.6972
 3508SAP2   PO442503  12.605   5.728  14.828 -0.1431  0.2532 -0.0841
 3508SAP2    P442504  13.091   5.433  14.156 -0.1181  0.0425  0.0051
 3508SAP2    P542505  12.934   5.097  14.451  0.0925 -0.0929  0.2228
 3508SAP2   GL142506  12.739   5.757  15.115  0.3549 -0.1379  0.1273
 3508SAP2   GL242507  12.651   5.765  15.333  0.0426  0.2053 -0.0046
 3508SAP2   D1A42508  13.037   6.096  15.223  0.0749  0.4751 -0.2509
 3508SAP2   D2A42509  12.615   6.230  15.399  0.1094  0.0682 -0.0455
 3508SAP2   D3A42510  12.709   6.507  15.746 -0.1563  0.3442 -0.2448
 3508SAP2   D4A42511  13.133   6.506  15.666  0.1508  0.3373  0.1694
 3508SAP2   C5A42512  13.089   6.623  16.107  0.1244 -0.3137  0.0115
 3508SAP2   C1B42513  12.518   5.557  15.717 -0.1007  0.5131  0.0376
 3508SAP2   C2B42514  12.552   5.666  16.151 -0.1032 -0.0356  0.1508
 3508SAP2   C3B42515  12.897   5.925  16.384 -0.2441  0.0890 -0.0410
 3508SAP2   C4B42516  13.234   6.237  16.503 -0.2271 -0.0781 -0.3335
 3509SAP2    C142517  27.317  19.891  14.113 -0.1153 -0.0167  0.2253
 3509SAP2    C242518  27.302  20.154  14.026  0.0074  0.0050  0.2679
 3509SAP2    C342519  27.049  19.979  14.160 -0.1358  0.0282  0.0344
 3509SAP2    C442520  27.223  20.008  14.100 -0.0007 -0.0007  0.6972
 3509SAP2   PO442521  27.632  19.975  14.240  0.4281 -0.2063 -0.0969
 3509SAP2    P442522  26.828  20.179  14.256 -0.0944  0.0973 -0.0882
 3509SAP2    P542523  27.107  20.251  13.782 -0.2145 -0.0885  0.0599
 3509SAP2   GL142524  27.751  19.775  14.510 -0.3027 -0.1308  0.2809
 3509SAP2   GL242525  27.949  19.971  14.586 -0.3168 -0.0442 -0.1109
 3509SAP2   D1A42526  27.488  19.954  14.849  0.0401  0.0299  0.0782
 3509SAP2   D2A42527  27.574  19.535  14.934 -0.0450 -0.0091 -0.1728
 3509SAP2   D3A42528  27.911  19.491  15.212 -0.0853 -0.2895  0.1121
 3509SAP2   D4A42529  28.003  19.091  15.429  0.0366 -0.0649 -0.1553
 3509SAP2   C5A42530  27.828  19.217  15.865 -0.4389  0.2293  0.2404
 3509SAP2   C1B42531  27.961  19.959  15.049 -0.1592 -0.3622 -0.1371
 3509SAP2   C2B42532  28.280  19.937  15.335 -0.1695  0.3136  0.5089
 3509SAP2   C3B42533  28.258  20.043  15.832 -0.2068  0.0028 -0.0288
 3509SAP2   C4B42534  28.140  20.390  16.156  0.0949  0.0719  0.1195
 3510SAP2    C142535   4.006  18.765  14.108 -0.1153  0.2484 -0.1378
 3510SAP2    C242536   4.279  18.808  14.130 -0.0695  0.0071 -0.2063
 3510SAP2    C342537   4.057  19.028  14.006  0.1190  0.1363 -0.3198
 3510SAP2    C442538   4.114  18.867  14.082 -0.0007 -0.0007  0.6972
 3510SAP2   PO442539   3.940  18.517  14.322  0.1813  0.1858 -0.0720
 3510SAP2    P442540   4.198  19.276  13.887  0.0899 -0.3240  0.0913
 3510SAP2    P542541   4.491  18.949  13.887  0.1987  0.4042 -0.5206
 3510SAP2   GL142542   3.602  18.565  14.429  0.1743  0.1201 -0.0969
 3510SAP2   GL242543   3.473  18.740  14.293  0.0075 -0.1223  0.1245
 3510SAP2   D1A42544   3.503  18.291  14.815  0.1406  0.0697  0.2708
 3510SAP2   D2A42545   3.036  18.432  14.842 -0.2032  0.2497  0.1708
 3510SAP2   D3A42546   3.275  18.784  14.982 -0.1703 -0.1967 -0.0632
 3510SAP2   D4A42547   3.283  18.397  15.265  0.3041 -0.1391  0.1348
 3510SAP2   C5A42548   2.936  18.158  15.385 -0.1359  0.0130 -0.1351
 3510SAP2   C1B42549   3.245  18.311  14.365 -0.2724  0.3425  0.3824
 3510SAP2   C2B42550   3.303  17.802  14.352 -0.0342  0.1365  0.2024
 3510SAP2   C3B42551   3.318  17.484  14.039  0.4244  0.0176  0.0343
 3510SAP2   C4B42552   3.603  17.342  13.690 -0.0120 -0.2860 -0.0865
 3511SAP2    C142553  29.531  24.839  13.897 -0.1468  0.2640 -0.0232
 3511SAP2    C242554  29.710  25.046  13.858 -0.1812  0.2942 -0.0223
 3511SAP2    C342555  29.493  24.931  13.628  0.0857  0.0209 -0.1438
 3511SAP2    C442556  29.578  24.939  13.794 -0.0007 -0.0007  0.6972
 3511SAP2   PO442557  29.468  24.887  14.206  0.1829  0.0068  0.0095
 3511SAP2    P442558  29.594  25.100  13.396  0.1192 -0.0407  0.0661
 3511SAP2    P542559  29.953  25.210  13.822  0.2977  0.0125  0.2143
 3511SAP2   GL142560  29.423  24.599  14.446  0.0878  0.1305 -0.2798
 3511SAP2   GL242561  29.452  24.861  14.659  0.1612 -0.0097 -0.0364
 3511SAP2   D1A42562  29.897  24.496  14.487 -0.3526 -0.1467  0.2560
 3511SAP2   D2A42563  30.324  24.677  14.416 -0.0360 -0.3119  0.1930
 3511SAP2   D3A42564  30.488  24.382  14.722  0.1256  0.0599  0.0289
 3511SAP2   D4A42565  30.683  24.764  14.950  0.0295  0.1533 -0.1334
 3511SAP2   C5A42566  30.560  25.217  14.944 -0.2144  0.1787 -0.1823
 3511SAP2   C1B42567  29.567  25.101  15.086  0.0330 -0.3798 -0.0324
 3511SAP2   C2B42568  29.561  25.032  15.559  0.0304 -0.1802 -0.0071
 3511SAP2   C3B42569  29.746  24.959  15.966  0.1106  0.0003  0.2090
 3511SAP2   C4B42570  29.923  24.908  16.358 -0.0122  0.2041 -0.1159
 3512SAP2    C142571  16.510   4.648  14.697  0.0450 -0.0800 -0.0187
 3512SAP2    C242572  16.722   4.772  14.570  0.0297 -0.1130 -0.0765
 3512SAP2    C342573  16.418   4.724  14.436 -0.0532  0.0482  0.0524
 3512SAP2    C442574  16.550   4.715  14.568 -0.0007 -0.0007  0.6972
 3512SAP2   PO442575  16.548   4.784  15.047  0.1195 -0.1588  0.3457
 3512SAP2    P442576  16.515   4.863  14.209  0.1194 -0.2201 -0.2085
 3512SAP2    P542577  16.879   4.620  14.391 -0.0164  0.2233  0.1829
 3512SAP2   GL142578  16.448   5.052  15.222  0.0021 -0.1930 -0.2583
 3512SAP2   GL242579  16.526   5.173  15.517  0.3606  0.1700  0.1059
 3512SAP2   D1A42580  16.282   4.700  15.464  0.2557 -0.1687  0.1690
 3512SAP2   D2A42581  16.418   4.516  15.808  0.1005 -0.1403 -0.1729
 3512SAP2   D3A42582  16.440   4.469  16.317  0.3053 -0.0522  0.0093
 3512SAP2   D4A42583  16.526   4.245  16.678  0.2479  0.0223  0.1797
 3512SAP2   C5A42584  16.918   4.193  16.425 -0.1627  0.0389 -0.2098
 3512SAP2   C1B42585  16.795   5.035  15.866 -0.0926 -0.1108 -0.1675
 3512SAP2   C2B42586  16.798   4.952  16.319 -0.1585  0.0396 -0.1955
 3512SAP2   C3B42587  16.743   4.676  16.639 -0.3789  0.0690 -0.1655
 3512SAP2   C4B42588  16.637   4.773  17.119 -0.0841  0.2371 -0.2675
 3513SAP2    C142589   3.650   0.385  14.802 -0.1758  0.1390 -0.1440
 3513SAP2    C242590   3.581   0.575  14.612 -0.1730  0.0415 -0.2439
 3513SAP2    C342591   3.773   0.305  14.556 -0.0092  0.1163 -0.0545
 3513SAP2    C442592   3.668   0.422  14.657 -0.0007 -0.0007  0.6972
 3513SAP2   PO442593   3.382   0.378  14.979  0.3412 -0.3644 -0.1998
 3513SAP2    P442594   3.687   0.323  14.226 -0.1610  0.0003 -0.2867
 3513SAP2    P542595   3.608   0.783  14.433 -0.3680 -0.0213 -0.0736
 3513SAP2   GL142596   3.409   0.269  15.292 -0.0413  0.2604 -0.5342
 3513SAP2   GL242597   3.332  -0.016  15.369  0.2522 -0.0571 -0.0180
 3513SAP2   D1A42598   3.131   0.331  15.660 -0.1460  0.1959 -0.2034
 3513SAP2   D2A42599   2.862   0.520  15.311  0.0589  0.0339 -0.0966
 3513SAP2   D3A42600   2.950   0.929  15.580  0.2017 -0.4332 -0.1277
 3513SAP2   D4A42601   3.191   1.376  15.648  0.1298  0.1978  0.3170
 3513SAP2   C5A42602   3.078   1.317  16.125 -0.2600  0.0621 -0.0972
 3513SAP2   C1B42603   3.493  -0.087  15.775 -0.0892  0.0898  0.0850
 3513SAP2   C2B42604   3.346  -0.373  16.196 -0.1032 -0.4277 -0.0453
 3513SAP2   C3B42605   3.017  -0.374  16.488  0.1648  0.0436 -0.0174
 3513SAP2   C4B42606   2.775  -0.472  16.894 -0.1228 -0.0197 -0.0657
 3514SAP2    C142607  31.572  31.219  15.056  0.1966  0.1003  0.0824
 3514SAP2    C242608  31.449  31.138  14.821  0.1480 -0.0023  0.1425
 3514SAP2    C342609  31.532  31.455  14.898 -0.5299  0.1529  0.3058
 3514SAP2    C442610  31.517  31.271  14.925 -0.0007 -0.0007  0.6972
 3514SAP2   PO442611  31.737  30.949  15.149  0.2511  0.2821  0.0693
 3514SAP2    P442612  31.471  31.500  14.588  0.2686 -0.2487  0.1371
 3514SAP2    P542613  31.234  31.200  14.637 -0.0096 -0.1641  0.1027
 3514SAP2   GL142614  31.568  30.860  15.437 -0.3620  0.3175  0.1014
 3514SAP2   GL242615  31.821  31.013  15.592  0.0780 -0.1771 -0.1070
 3514SAP2   D1A42616  31.324  31.174  15.556  0.0973  0.1016  0.0817
 3514SAP2   D2A42617  31.422  30.935  15.962  0.1394  0.2146 -0.3006
 3514SAP2   D3A42618  31.553  31.015  16.400  0.0859  0.0819  0.3817
 3514SAP2   D4A42619  31.429  30.848  16.852  0.3262  0.1247 -0.0683
 3514SAP2   C5A42620  30.997  30.716  16.852  0.0696  0.0648 -0.1047
 3514SAP2   C1B42621  31.817  31.254  15.946  0.0371  0.1565  0.3553
 3514SAP2   C2B42622  31.935  31.430  16.315  0.0887 -0.1787 -0.1740
 3514SAP2   C3B42623  31.794  31.282  16.741 -0.0612  0.1078 -0.1294
 3514SAP2   C4B42624  31.597  31.613  17.055 -0.3088  0.0826  0.0304
 3515SAP2    C142625  12.894  15.994  13.714 -0.2035  0.1244 -0.0009
 3515SAP2    C242626  13.164  15.934  13.713 -0.1317  0.4343 -0.0501
 3515SAP2    C342627  12.969  15.958  13.440 -0.2572  0.0228 -0.0028
 3515SAP2    C442628  13.009  15.962  13.622 -0.0007 -0.0007  0.6972
 3515SAP2   PO442629  12.848  16.220  13.929 -0.1406  0.1552 -0.1985
 3515SAP2    P442630  13.161  15.832  13.235 -0.3132 -0.0672 -0.0968
 3515SAP2    P542631  13.284  15.604  13.590  0.1170  0.1840  0.0864
 3515SAP2   GL142632  12.819  16.202  14.205  0.0015 -0.0012 -0.2008
 3515SAP2   GL242633  12.732  15.888  14.240  0.1510  0.1852 -0.1230
 3515SAP2   D1A42634  13.081  16.449  14.493  0.0679 -0.1456 -0.0996
 3515SAP2   D2A42635  12.935  16.882  14.658  0.2242  0.5549 -0.0016
 3515SAP2   D3A42636  12.716  16.758  15.101 -0.2913 -0.4597  0.2032
 3515SAP2   D4A42637  12.580  16.485  14.810 -0.1942 -0.1496 -0.0383
 3515SAP2   C5A42638  12.223  16.711  14.853  0.2800  0.1567  0.0270
 3515SAP2   C1B42639  12.690  16.013  14.688 -0.0392 -0.0302 -0.0573
 3515SAP2   C2B42640  12.412  16.037  15.110 -0.1926  0.2257 -0.2099
 3515SAP2   C3B42641  12.468  16.184  15.536  0.0819 -0.2649  0.0728
 3515SAP2   C4B42642  12.714  16.599  15.651  0.0953 -0.1854 -0.0320
 3516SAP2    C142643  15.750   4.644  14.664 -0.2183  0.1849  0.1135
 3516SAP2    C242644  15.624   4.843  14.517 -0.0888  0.0750 -0.1535
 3516SAP2    C342645  15.694   4.534  14.405 -0.0991 -0.0553  0.1869
 3516SAP2    C442646  15.689   4.674  14.529 -0.0007 -0.0007  0.6972
 3516SAP2   PO442647  15.685   4.712  14.958 -0.0177  0.1421  0.2439
 3516SAP2    P442648  15.649   4.566  14.137 -0.1004 -0.0942  0.3006
 3516SAP2    P542649  15.578   4.987  14.258  0.3214 -0.3939 -0.3120
 3516SAP2   GL142650  15.686   4.472  15.277  0.4358 -0.4244 -0.3284
 3516SAP2   GL242651  15.560   4.644  15.482  0.5718 -0.0137  0.1361
 3516SAP2   D1A42652  15.976   4.145  15.476  0.1156  0.3990  0.3692
 3516SAP2   D2A42653  15.911   4.506  15.732  0.0885 -0.1646  0.1381
 3516SAP2   D3A42654  15.963   4.636  16.160 -0.2818  0.2885  0.1965
 3516SAP2   D4A42655  15.778   4.454  16.507 -0.2650  0.2419 -0.0025
 3516SAP2   C5A42656  15.982   4.421  16.894 -0.0953 -0.2178 -0.0984
 3516SAP2   C1B42657  15.471   4.748  15.903  0.1763 -0.0852 -0.1706
 3516SAP2   C2B42658  15.550   4.892  16.356  0.0247  0.0590  0.0406
 3516SAP2   C3B42659  15.599   4.852  16.803 -0.0421  0.0065 -0.0245
 3516SAP2   C4B42660  15.540   5.130  17.173  0.1641  0.0035  0.2268
 3517SAP2    C142661  12.134  16.556  13.549  0.0780  0.0101 -0.0162
 3517SAP2    C242662  12.088  16.585  13.277 -0.2736  0.3673  0.0714
 3517SAP2    C342663  12.165  16.297  13.432 -0.1701  0.1393 -0.3873
 3517SAP2    C442664  12.129  16.479  13.419 -0.0007 -0.0007  0.6972
 3517SAP2   PO442665  11.988  16.782  13.684  0.3486  0.2531  0.1694
 3517SAP2    P442666  12.196  16.081  13.251 -0.1063 -0.2220  0.0998
 3517SAP2    P542667  12.364  16.490  13.054 -0.1500 -0.0418  0.1033
 3517SAP2   GL142668  12.116  16.690  13.981 -0.1683 -0.3888 -0.3025
 3517SAP2   GL242669  12.094  16.932  14.150  0.2451 -0.2547 -0.2978
 3517SAP2   D1A42670  12.426  16.661  14.376  0.0072 -0.2441  0.2604
 3517SAP2   D2A42671  12.324  16.213  14.413 -0.0721 -0.0837  0.0336
 3517SAP2   D3A42672  11.983  16.260  14.694 -0.1683 -0.2253  0.0288
 3517SAP2   D4A42673  12.067  15.829  14.852 -0.0826  0.0456  0.1901
 3517SAP2   C5A42674  12.359  15.627  14.579 -0.1942  0.0376  0.3628
 3517SAP2   C1B42675  11.879  16.761  14.510 -0.0288 -0.0438  0.1567
 3517SAP2   C2B42676  11.754  16.612  14.936  0.1932 -0.1205  0.1314
 3517SAP2   C3B42677  11.792  16.857  15.295  0.3191  0.1816 -0.0111
 3517SAP2   C4B42678  11.986  17.332  15.458  0.2790  0.2919  0.2470
 3518SAP2    C142679   3.105  21.850  15.115  0.0335  0.1225 -0.1030
 3518SAP2    C242680   3.072  21.647  14.930 -0.0322 -0.0221  0.0647
 3518SAP2    C342681   3.325  21.868  14.933  0.0153 -0.0713 -0.1456
 3518SAP2    C442682   3.167  21.788  14.992 -0.0007 -0.0007  0.6972
 3518SAP2   PO442683   3.053  21.651  15.387 -0.1963 -0.1853 -0.2755
 3518SAP2    P442684   3.523  21.784  14.677  0.0016 -0.1652  0.1122
 3518SAP2    P542685   3.086  21.625  14.622 -0.0888 -0.2004  0.0477
 3518SAP2   GL142686   2.903  21.758  15.729  0.0307 -0.1087 -0.1778
 3518SAP2   GL242687   3.142  21.956  15.648 -0.0816 -0.3309 -0.0664
 3518SAP2   D1A42688   2.800  21.418  16.007 -0.1322  0.2105  0.2379
 3518SAP2   D2A42689   2.762  21.183  16.374  0.1939  0.0791 -0.0325
 3518SAP2   D3A42690   2.483  20.769  16.388  0.2607  0.3338 -0.1992
 3518SAP2   D4A42691   2.454  20.484  16.028  0.0989 -0.0780  0.1119
 3518SAP2   C5A42692   2.724  20.902  15.993  0.0243  0.1472  0.1532
 3518SAP2   C1B42693   3.035  21.920  16.100  0.3456  0.1143 -0.2092
 3518SAP2   C2B42694   2.926  21.747  16.482  0.1367 -0.1547 -0.2313
 3518SAP2   C3B42695   2.593  21.529  16.817  0.0864 -0.0677 -0.1022
 3518SAP2   C4B42696   2.330  21.433  17.170 -0.1704  0.1493  0.3921
 3519SAP2    C142697   7.485  20.346  15.233 -0.2974  0.0883  0.1444
 3519SAP2    C242698   7.415  20.588  15.118 -0.5590  0.0390  0.1928
 3519SAP2    C342699   7.340  20.285  14.994 -0.0752 -0.0264  0.0358
 3519SAP2    C442700   7.413  20.406  15.115 -0.0007 -0.0007  0.6972
 3519SAP2   PO442701   7.471  20.413  15.573  0.1246  0.0867 -0.2686
 3519SAP2    P442702   7.213  20.344  14.743  0.1178  0.0148 -0.1331
 3519SAP2    P542703   7.384  20.760  14.913 -0.0923  0.0394 -0.0168
 3519SAP2   GL142704   7.401  20.164  15.746 -0.4733 -0.2148 -0.2987
 3519SAP2   GL242705   7.308  20.340  15.936  0.1395 -0.3036 -0.1305
 3519SAP2   D1A42706   7.188  19.807  15.912 -0.0354 -0.0891  0.3799
 3519SAP2   D2A42707   7.282  19.559  16.296  0.4168 -0.2520 -0.1640
 3519SAP2   D3A42708   7.316  19.217  16.010  0.2477  0.0356  0.1508
 3519SAP2   D4A42709   6.874  19.379  15.836 -0.0325 -0.0323 -0.0135
 3519SAP2   C5A42710   6.806  19.667  16.192 -0.0111 -0.3033 -0.1269
 3519SAP2   C1B42711   7.299  20.070  16.290  0.0563 -0.0750 -0.2279
 3519SAP2   C2B42712   7.006  19.863  16.553 -0.3132 -0.0965 -0.0617
 3519SAP2   C3B42713   6.821  19.696  16.970  0.1322 -0.0754  0.2346
 3519SAP2   C4B42714   6.721  19.703  17.432 -0.2546 -0.1838  0.0881
 3520SAP2    C142715  13.551  10.802  13.368 -0.3767 -0.4260 -0.1406
 3520SAP2    C242716  13.580  10.670  13.126 -0.1284  0.0314 -0.3742
 3520SAP2    C342717  13.418  10.961  13.169 -0.1535 -0.0350  0.0127
 3520SAP2    C442718  13.516  10.811  13.221 -0.0007 -0.0007  0.6972
 3520SAP2   PO442719  13.882  10.727  13.484  0.0699 -0.1275 -0.2001
 3520SAP2    P442720  13.344  11.015  12.846  0.1099  0.1010 -0.0625
 3520SAP2    P542721  13.441  10.540  12.829 -0.1069  0.0878 -0.0199
 3520SAP2   GL142722  13.956  10.884  13.841 -0.0100  0.3617  0.2447
 3520SAP2   GL242723  14.225  10.772  13.729  0.1487 -0.2153  0.1072
 3520SAP2   D1A42724  13.826  10.673  14.272  0.1619 -0.2603  0.3092
 3520SAP2   D2A42725  14.258  10.581  14.248 -0.0172  0.1265 -0.1168
 3520SAP2   D3A42726  14.411  10.251  14.078 -0.2931  0.2064 -0.0108
 3520SAP2   D4A42727  14.853  10.248  13.981 -0.2405  0.1427 -0.0254
 3520SAP2   C5A42728  15.203  10.528  14.170 -0.1402  0.2973 -0.3726
 3520SAP2   C1B42729  14.278  11.063  14.088 -0.1489 -0.1881 -0.2705
 3520SAP2   C2B42730  14.522  11.126  14.447  0.1743 -0.2858  0.1092
 3520SAP2   C3B42731  14.606  10.771  14.738  0.1560 -0.5698 -0.1048
 3520SAP2   C4B42732  14.442  10.692  15.147 -0.1819 -0.0377 -0.0319
 3521SAP2    C142733   1.739  16.368  13.846 -0.1145 -0.0081  0.3041
 3521SAP2    C242734   1.602  16.130  13.880 -0.0894  0.0035  0.4990
 3521SAP2    C342735   1.869  16.174  13.681 -0.3020 -0.0445  0.1963
 3521SAP2    C442736   1.737  16.224  13.802 -0.0007 -0.0007  0.6972
 3521SAP2   PO442737   1.717  16.512  14.111  0.0120 -0.0142  0.0366
 3521SAP2    P442738   1.860  15.983  13.492 -0.2074  0.0118  0.1458
 3521SAP2    P542739   1.556  15.870  13.800 -0.0344  0.4083 -0.1010
 3521SAP2   GL142740   1.898  16.646  14.419 -0.0454  0.1389 -0.2388
 3521SAP2   GL242741   2.057  16.469  14.385 -0.0687 -0.4195  0.1612
 3521SAP2   D1A42742   1.670  16.550  14.798 -0.3472 -0.0567 -0.2526
 3521SAP2   D2A42743   1.884  16.876  15.085 -0.1776 -0.0922 -0.0928
 3521SAP2   D3A42744   1.492  16.693  15.257 -0.0982 -0.0042 -0.0458
 3521SAP2   D4A42745   1.687  17.058  15.582  0.0438  0.2922  0.2494
 3521SAP2   C5A42746   2.126  17.216  15.502  0.1259  0.0008  0.1512
 3521SAP2   C1B42747   2.208  16.791  14.690 -0.2558  0.0547 -0.1694
 3521SAP2   C2B42748   2.461  17.009  15.064 -0.1023  0.2140  0.2440
 3521SAP2   C3B42749   2.604  17.303  15.406  0.1407  0.1176  0.0849
 3521SAP2   C4B42750   2.911  17.630  15.241 -0.4989  0.2128  0.1773
 3522SAP2    C142751  29.928   5.056  14.484 -0.1205 -0.3395 -0.2247
 3522SAP2    C242752  29.950   5.009  14.212  0.0137  0.1734 -0.3131
 3522SAP2    C342753  30.179   5.166  14.401 -0.1621 -0.0096  0.0634
 3522SAP2    C442754  30.019   5.077  14.366 -0.0007 -0.0007  0.6972
 3522SAP2   PO442755  29.724   4.844  14.625 -0.3694  0.0066 -0.2339
 3522SAP2    P442756  30.459   5.273  14.302 -0.1030  0.1095  0.1483
 3522SAP2    P542757  30.033   5.064  13.937 -0.2005  0.1211 -0.5722
 3522SAP2   GL142758  29.606   5.014  14.880  0.1097 -0.3101 -0.0151
 3522SAP2   GL242759  29.493   5.151  15.030  0.1728  0.1614  0.3843
 3522SAP2   D1A42760  29.225   4.715  14.944 -0.0983 -0.1683  0.1476
 3522SAP2   D2A42761  29.019   5.126  14.942  0.0958  0.3413 -0.1115
 3522SAP2   D3A42762  28.684   5.068  15.267  0.1673 -0.0948 -0.2351
 3522SAP2   D4A42763  28.701   4.689  14.973  0.1270 -0.0818 -0.2246
 3522SAP2   C5A42764  28.639   4.986  14.615 -0.0450 -0.2108 -0.2305
 3522SAP2   C1B42765  29.156   5.292  15.360  0.0538  0.1709  0.0872
 3522SAP2   C2B42766  29.020   5.452  15.751  0.1159  0.2276  0.1388
 3522SAP2   C3B42767  28.915   5.575  16.154  0.3457 -0.1884 -0.0638
 3522SAP2   C4B42768  28.809   5.613  16.602  0.0363 -0.0517 -0.2594
 3523SAP2    C142769  24.771  24.347  14.291 -0.0416  0.0831  0.1619
 3523SAP2    C242770  25.047  24.333  14.312 -0.0186 -0.1347 -0.2166
 3523SAP2    C342771  24.878  24.553  14.123 -0.1133  0.0794  0.1112
 3523SAP2    C442772  24.899  24.411  14.242 -0.0007 -0.0007  0.6972
 3523SAP2   PO442773  24.631  24.317  14.571 -0.0112 -0.1158  0.2418
 3523SAP2    P442774  25.182  24.684  14.041  0.1813 -0.2465 -0.0154
 3523SAP2    P542775  25.252  24.244  14.051 -0.1787 -0.2545 -0.1898
 3523SAP2   GL142776  24.756  24.396  14.826 -0.2647  0.4574  0.0060
 3523SAP2   GL242777  24.714  24.113  14.933  0.1814 -0.2523  0.0423
 3523SAP2   D1A42778  24.634  24.523  15.278 -0.1416  0.3447 -0.1217
 3523SAP2   D2A42779  24.180  24.495  15.374 -0.1123  0.1081  0.0815
 3523SAP2   D3A42780  23.808  24.627  15.583  0.0957 -0.2721  0.2835
 3523SAP2   D4A42781  23.812  25.022  15.677 -0.0734 -0.1656 -0.0337
 3523SAP2   C5A42782  23.680  25.320  16.029 -0.4459  0.1455  0.2737
 3523SAP2   C1B42783  24.489  24.033  15.319  0.2130  0.0232 -0.3338
 3523SAP2   C2B42784  24.316  24.159  15.689  0.1374  0.2155  0.0435
 3523SAP2   C3B42785  23.999  24.409  15.962 -0.1010  0.3228 -0.0196
 3523SAP2   C4B42786  24.065  24.760  16.259 -0.0032 -0.0217 -0.2740
 3524SAP2    C142787   9.618  29.441  14.712 -0.2856  0.0338 -0.1557
 3524SAP2    C242788   9.717  29.185  14.679  0.1505  0.1757 -0.0231
 3524SAP2    C342789   9.753  29.437  14.459  0.0655  0.2268  0.0210
 3524SAP2    C442790   9.696  29.354  14.617 -0.0007 -0.0007  0.6972
 3524SAP2   PO442791   9.674  29.582  15.027  0.1789  0.0180 -0.1976
 3524SAP2    P442792   9.866  29.337  14.265  0.2103 -0.1306  0.1348
 3524SAP2    P542793   9.823  28.910  14.586  0.2469 -0.2663 -0.1741
 3524SAP2   GL142794   9.603  29.482  15.381  0.3327  0.0508 -0.3132
 3524SAP2   GL242795   9.399  29.292  15.427 -0.0054 -0.0023 -0.2178
 3524SAP2   D1A42796   9.858  29.281  15.741  0.0851 -0.1239  0.1111
 3524SAP2   D2A42797   9.453  29.185  15.973 -0.0790 -0.3622 -0.0161
 3524SAP2   D3A42798   9.402  29.089  16.452 -0.0485 -0.2337 -0.1697
 3524SAP2   D4A42799   9.483  29.067  16.879  0.2306  0.0814 -0.0416
 3524SAP2   C5A42800   9.078  28.858  16.806  0.0444 -0.0123 -0.0831
 3524SAP2   C1B42801   9.044  29.057  15.678  0.1916  0.0685  0.1037
 3524SAP2   C2B42802   9.068  28.719  15.978  0.0013 -0.0576  0.0847
 3524SAP2   C3B42803   9.275  28.594  16.379 -0.0590 -0.0661 -0.1523
 3524SAP2   C4B42804   9.611  28.642  16.715  0.0273 -0.1194  0.3142
 3525SAP2    C142805  10.227   0.761  15.020  0.0761 -0.3326  0.0891
 3525SAP2    C242806  10.340   0.931  14.833  0.3070 -0.3670  0.1943
 3525SAP2    C342807  10.134   0.675  14.763  0.0349 -0.1082  0.0271
 3525SAP2    C442808  10.234   0.789  14.872 -0.0007 -0.0007  0.6972
 3525SAP2   PO442809  10.094   0.955  15.238 -0.0908  0.1527  0.3646
 3525SAP2    P442810  10.184   0.730  14.484  0.0731 -0.2604  0.1424
 3525SAP2    P542811  10.608   0.939  14.542  0.0720 -0.2874 -0.1190
 3525SAP2   GL142812  10.146   0.841  15.596  0.2230  0.1716  0.2757
 3525SAP2   GL242813  10.363   0.849  15.782 -0.1862  0.0483 -0.1791
 3525SAP2   D1A42814   9.723   0.707  15.476  0.2464 -0.2003  0.2187
 3525SAP2   D2A42815   9.593   0.355  15.731 -0.1331 -0.1043 -0.0533
 3525SAP2   D3A42816   9.557  -0.052  15.879  0.0695 -0.2897  0.1960
 3525SAP2   D4A42817   9.989  -0.033  16.047  0.0835 -0.1316  0.2516
 3525SAP2   C5A42818   9.771   0.292  16.293  0.2399  0.0027 -0.2993
 3525SAP2   C1B42819  10.227   1.083  16.196  0.1747 -0.3143 -0.0591
 3525SAP2   C2B42820  10.206   1.124  16.669 -0.3246  0.1086  0.2310
 3525SAP2   C3B42821  10.213   1.095  17.102 -0.0716  0.1310  0.2321
 3525SAP2   C4B42822   9.996   1.262  17.501  0.0444  0.3143  0.0808
 3526SAP2    C142823  14.565   1.185  13.924  0.1319  0.0205  0.0573
 3526SAP2    C242824  14.824   1.247  13.849  0.0406  0.0007 -0.2929
 3526SAP2    C342825  14.576   1.164  13.639 -0.2394 -0.0353  0.0423
 3526SAP2    C442826  14.655   1.199  13.804 -0.0007 -0.0007  0.6972
 3526SAP2   PO442827  14.511   1.356  14.203 -0.0984  0.1013 -0.1977
 3526SAP2    P442828  14.747   1.053  13.373  0.1075 -0.1067  0.0696
 3526SAP2    P542829  15.025   1.071  13.680  0.3830  0.2348  0.1657
 3526SAP2   GL142830  14.800   1.166  14.257  0.2200  0.0721 -0.3692
 3526SAP2   GL242831  14.917   1.362  14.463  0.0163  0.0013 -0.0149
 3526SAP2   D1A42832  14.851   0.761  14.508  0.1296  0.0218 -0.0065
 3526SAP2   D2A42833  15.095   0.462  14.494 -0.1937  0.0284 -0.1187
 3526SAP2   D3A42834  15.440   0.370  14.820  0.1693  0.0784  0.2100
 3526SAP2   D4A42835  15.340   0.792  14.982 -0.2027  0.0528 -0.3111
 3526SAP2   C5A42836  15.299   1.000  14.575 -0.0401  0.1841 -0.0252
 3526SAP2   C1B42837  14.871   1.107  14.871  0.0706  0.0148 -0.3345
 3526SAP2   C2B42838  14.797   0.643  14.967 -0.0803  0.1759  0.1051
 3526SAP2   C3B42839  14.684   0.250  15.211 -0.0589  0.4422 -0.1030
 3526SAP2   C4B42840  14.673  -0.130  15.510  0.1720  0.2752  0.1818
 3527POPC   NC342841  11.010   3.974   7.614  0.1268  0.1197  0.0345
 3527POPC   PO442842  11.406   3.974   7.668  0.0582 -0.0960 -0.3892
 3527POPC   GL142843  11.378   4.023   7.300  0.1304 -0.1503 -0.3215
 3527POPC   GL242844  11.529   4.251   7.086 -0.0537 -0.0060  0.2081
 3527POPC   C1A42845  11.375   3.792   6.926 -0.1035  0.2731 -0.0242
 3527POPC   D2A42846  11.390   3.553   6.575  0.0544  0.0187 -0.1387
 3527POPC   C3A42847  11.124   3.216   6.460 -0.2308  0.0129 -0.2141
 3527POPC   C4A42848  10.813   2.885   6.343  0.0858  0.1894  0.0130
 3527POPC   C1B42849  11.290   4.317   6.686 -0.3432  0.2561 -0.1757
 3527POPC   C2B42850  11.241   4.441   6.192 -0.3427  0.2366 -0.2084
 3527POPC   C3B42851  11.250   4.339   5.673 -0.1145 -0.0879 -0.2420
 3527POPC   C4B42852  11.362   4.122   5.314  0.3558 -0.0286  0.1842
 3528POPC   NC342853  18.048   0.143   8.173 -0.1377  0.0909  0.0485
 3528POPC   PO442854  17.950   0.345   7.876  0.2040  0.0751  0.0717
 3528POPC   GL142855  18.118   0.347   7.509  0.1518  0.0840  0.1443
 3528POPC   GL242856  18.342   0.519   7.465 -0.0267  0.0529 -0.0673
 3528POPC   C1A42857  18.031   0.393   7.066  0.3157 -0.2385  0.0365
 3528POPC   D2A42858  18.201   0.635   6.727  0.0344  0.1844  0.1272
 3528POPC   C3A42859  18.092   1.062   6.685 -0.2807  0.2888  0.1500
 3528POPC   C4A42860  18.215   1.500   6.637  0.0212  0.0271 -0.0178
 3528POPC   C1B42861  18.277   0.887   7.133  0.1114  0.1893  0.2861
 3528POPC   C2B42862  18.484   1.319   7.144  0.1746  0.1489 -0.2563
 3528POPC   C3B42863  18.532   1.690   6.951 -0.2043  0.1937  0.4075
 3528POPC   C4B42864  18.612   1.880   6.554 -0.1587  0.3574  0.1738
 3529POPC   NC342865  18.029   3.010   8.175 -0.1700  0.2770 -0.1215
 3529POPC   PO442866  18.372   2.942   7.965 -0.1274 -0.2766  0.0685
 3529POPC   GL142867  18.250   2.862   7.662 -0.0638 -0.0044  0.0425
 3529POPC   GL242868  17.978   2.797   7.607  0.1314 -0.1791  0.1124
 3529POPC   C1A42869  18.426   3.048   7.287  0.3378  0.0509 -0.0447
 3529POPC   D2A42870  18.599   3.354   6.934 -0.0931  0.1600 -0.2683
 3529POPC   C3A42871  18.899   3.420   6.650  0.0255 -0.3378 -0.0578
 3529POPC   C4A42872  19.103   3.319   6.285  0.0075 -0.0527 -0.0561
 3529POPC   C1B42873  18.234   2.562   7.246  0.2662  0.0556  0.3249
 3529POPC   C2B42874  18.411   2.710   6.819  0.1161  0.3476  0.0327
 3529POPC   C3B42875  18.580   2.495   6.434 -0.0426  0.1752  0.2869
 3529POPC   C4B42876  18.914   2.346   6.077  0.0131  0.2929 -0.2537
 3530POPC   NC342877  22.712   5.215   7.545  0.1518 -0.2784 -0.1413
 3530POPC   PO442878  22.893   5.529   7.730 -0.2367 -0.2035  0.0323
 3530POPC   GL142879  22.596   5.659   7.478  0.2161 -0.0609  0.4578
 3530POPC   GL242880  22.426   5.550   7.297  0.0665  0.2333 -0.0765
 3530POPC   C1A42881  22.752   5.822   6.994 -0.0579  0.0386  0.1194
 3530POPC   D2A42882  22.708   5.801   6.504 -0.0486  0.0728  0.1380
 3530POPC   C3A42883  22.972   5.539   6.327  0.0154  0.4884  0.0857
 3530POPC   C4A42884  23.369   5.566   6.160 -0.1722  0.1925  0.0150
 3530POPC   C1B42885  22.373   6.027   7.255  0.0952  0.2866  0.0308
 3530POPC   C2B42886  22.202   6.224   6.856 -0.1941  0.1146 -0.2731
 3530POPC   C3B42887  21.982   6.490   6.564 -0.1153 -0.1234  0.2301
 3530POPC   C4B42888  21.935   6.654   6.096 -0.1148 -0.0328 -0.0134
 3531POPC   NC342889  13.141  19.053   7.389 -0.1438 -0.2736 -0.0253
 3531POPC   PO442890  12.894  18.752   7.268  0.5450 -0.0777  0.0410
 3531POPC   GL142891  13.043  18.824   6.919  0.2703  0.3560 -0.2206
 3531POPC   GL242892  13.305  18.944   6.898  0.0505 -0.1110  0.1842
 3531POPC   C1A42893  13.063  19.082   6.514  0.0783  0.0489 -0.1341
 3531POPC   D2A42894  13.190  19.208   6.107  0.0576 -0.1666 -0.1237
 3531POPC   C3A42895  13.412  19.400   5.790  0.0752 -0.1349 -0.1935
 3531POPC   C4A42896  13.804  19.457   5.704  0.0032 -0.3349  0.1143
 3531POPC   C1B42897  13.559  18.908   6.526 -0.2456 -0.0069  0.2710
 3531POPC   C2B42898  13.703  19.100   6.112 -0.0960 -0.0433 -0.0136
 3531POPC   C3B42899  13.608  18.930   5.722 -0.2465  0.3007 -0.0654
 3531POPC   C4B42900  13.362  19.055   5.351 -0.0161 -0.4349 -0.2498
 3532POPC   NC342901  24.450   1.964   7.925 -0.0001  0.0421 -0.0390
 3532POPC   PO442902  24.187   1.745   7.738  0.1213 -0.0599  0.2683
 3532POPC   GL142903  24.411   1.670   7.412 -0.1382 -0.4196  0.0155
 3532POPC   GL242904  24.268   1.516   7.272  0.3636 -0.1479 -0.4544
 3532POPC   C1A42905  24.680   1.708   6.985 -0.1979 -0.0201 -0.0082
 3532POPC   D2A42906  24.606   1.859   6.560  0.2966 -0.2153 -0.0086
 3532POPC   C3A42907  24.844   2.264   6.477 -0.3287 -0.1836  0.1251
 3532POPC   C4A42908  25.061   2.650   6.507  0.0881 -0.0200 -0.1733
 3532POPC   C1B42909  24.155   1.442   6.834  0.2199  0.3289  0.0573
 3532POPC   C2B42910  24.138   1.554   6.388  0.1580 -0.2229  0.1107
 3532POPC   C3B42911  23.749   1.619   6.133  0.0171 -0.0870  0.0596
 3532POPC   C4B42912  23.319   1.686   5.951  0.1078  0.5058  0.2749
 3533POPC   NC342913   3.120  12.960   8.972  0.1517 -0.1226  0.0975
 3533POPC   PO442914   3.495  12.847   8.852  0.2276  0.0714 -0.0520
 3533POPC   GL142915   3.510  12.859   8.464 -0.1082  0.1899 -0.2008
 3533POPC   GL242916   3.195  12.928   8.460  0.1990 -0.3009  0.0252
 3533POPC   C1A42917   3.360  12.533   8.148  0.1211  0.3728  0.3606
 3533POPC   D2A42918   3.505  12.259   7.790  0.3418  0.1674  0.1564
 3533POPC   C3A42919   3.556  12.404   7.278  0.1599  0.0001 -0.1252
 3533POPC   C4A42920   3.653  12.545   6.892  0.3305  0.2598  0.0718
 3533POPC   C1B42921   3.031  12.976   8.005 -0.0474 -0.0841  0.0350
 3533POPC   C2B42922   2.794  13.054   7.593 -0.2584 -0.1335  0.2775
 3533POPC   C3B42923   2.694  12.974   7.126  0.1237  0.0061  0.1786
 3533POPC   C4B42924   2.436  12.827   6.773 -0.0905 -0.0992  0.2479
 3534POPC   NC342925  22.492  18.820   8.096  0.1903 -0.0941  0.1674
 3534POPC   PO442926  22.743  18.547   8.189  0.0441 -0.0307 -0.3452
 3534POPC   GL142927  22.804  18.219   7.988  0.2467  0.0281  0.1249
 3534POPC   GL242928  22.700  18.205   7.677  0.2904  0.2263  0.4699
 3534POPC   C1A42929  23.108  17.934   7.942  0.0828 -0.0514  0.2524
 3534POPC   D2A42930  23.187  17.478   7.792  0.3036 -0.1405 -0.0967
 3534POPC   C3A42931  23.384  17.176   7.567 -0.1973  0.1019  0.1539
 3534POPC   C4A42932  23.650  16.796   7.499 -0.1560 -0.1745  0.1109
 3534POPC   C1B42933  22.890  18.248   7.313  0.0440 -0.0017 -0.3137
 3534POPC   C2B42934  23.167  18.107   7.004 -0.1648 -0.0913  0.1684
 3534POPC   C3B42935  23.351  17.897   6.641  0.0320  0.2676 -0.2527
 3534POPC   C4B42936  23.621  18.121   6.291 -0.0786 -0.0817  0.0958
 3535POPC   NC342937   4.101   0.452   8.243 -0.1571  0.2141 -0.2041
 3535POPC   PO442938   4.053   0.061   8.154 -0.2330  0.0686 -0.0685
 3535POPC   GL142939   4.115   0.035   7.797  0.0140  0.0757 -0.1356
 3535POPC   GL242940   3.887   0.038   7.589 -0.0794  0.0843  0.1879
 3535POPC   C1A42941   4.346   0.121   7.372 -0.0401  0.0327 -0.1955
 3535POPC   D2A42942   4.426   0.161   6.975 -0.0949 -0.1596  0.0281
 3535POPC   C3A42943   4.336   0.492   6.755 -0.0324 -0.1156  0.1126
 3535POPC   C4A42944   3.973   0.725   6.695 -0.0092  0.2323  0.0675
 3535POPC   C1B42945   3.825  -0.131   7.173 -0.1102  0.1494 -0.0582
 3535POPC   C2B42946   3.745  -0.363   6.815 -0.1310  0.0363 -0.0603
 3535POPC   C3B42947   3.910  -0.626   6.470 -0.2840 -0.3364 -0.1201
 3535POPC   C4B42948   3.934  -0.634   6.035  0.0928 -0.1230 -0.0358
 3536POPC   NC342949   2.662   3.757   8.516  0.0020  0.0643 -0.1216
 3536POPC   PO442950   2.537   3.444   8.311 -0.1189 -0.0180 -0.3591
 3536POPC   GL142951   2.345   3.608   7.985  0.2029  0.4540 -0.2095
 3536POPC   GL242952   2.432   3.702   7.681  0.0288 -0.2051  0.0792
 3536POPC   C1A42953   2.007   3.506   7.721 -0.1696  0.0692 -0.0635
 3536POPC   D2A42954   1.919   3.479   7.284  0.3502  0.0604 -0.1529
 3536POPC   C3A42955   2.061   3.453   6.871  0.0054 -0.1504 -0.0977
 3536POPC   C4A42956   2.214   3.534   6.449 -0.0261  0.2218 -0.0784
 3536POPC   C1B42957   2.232   3.833   7.288  0.0204 -0.0025  0.1228
 3536POPC   C2B42958   2.253   3.899   6.779 -0.2218 -0.1287  0.0150
 3536POPC   C3B42959   2.233   4.115   6.397 -0.2594  0.4208  0.3207
 3536POPC   C4B42960   2.108   4.336   6.011  0.3163  0.1608  0.0645
 3537POPC   NC342961  28.140   1.250   8.277 -0.1762  0.3213 -0.4032
 3537POPC   PO442962  28.384   1.052   8.026  0.1590  0.2742  0.3613
 3537POPC   GL142963  28.381   0.884   7.600 -0.4117  0.0552 -0.3982
 3537POPC   GL242964  28.182   1.068   7.489 -0.3995  0.0786  0.0146
 3537POPC   C1A42965  28.114   0.587   7.321 -0.0685  0.0206 -0.2237
 3537POPC   D2A42966  27.746   0.500   7.092 -0.1621 -0.0814 -0.0790
 3537POPC   C3A42967  27.805   0.519   6.639 -0.0390  0.4437  0.3539
 3537POPC   C4A42968  28.009   0.623   6.230  0.1772 -0.2011  0.2358
 3537POPC   C1B42969  28.059   1.083   7.032  0.1264 -0.3536  0.1403
 3537POPC   C2B42970  28.003   1.104   6.576 -0.0536 -0.2086  0.1999
 3537POPC   C3B42971  27.969   1.394   6.227  0.0604 -0.3121  0.0613
 3537POPC   C4B42972  28.061   1.761   5.919  0.0855  0.1820 -0.0590
 3538POPC   NC342973  31.287  23.247   7.697 -0.3436  0.1933 -0.2507
 3538POPC   PO442974  31.069  23.110   7.439 -0.2306  0.0790 -0.1096
 3538POPC   GL142975  31.246  22.873   7.113 -0.1100  0.1122  0.1685
 3538POPC   GL242976  31.171  22.573   7.254 -0.0512  0.0348 -0.1332
 3538POPC   C1A42977  31.347  23.017   6.708 -0.2163 -0.2047  0.2133
 3538POPC   D2A42978  31.579  23.167   6.326 -0.1508  0.0770 -0.3178
 3538POPC   C3A42979  31.801  22.856   6.088  0.1395 -0.0031 -0.0846
 3538POPC   C4A42980  31.857  22.743   5.622  0.1491  0.2934  0.1340
 3538POPC   C1B42981  30.984  22.441   6.837  0.0500 -0.2234  0.1335
 3538POPC   C2B42982  30.805  22.271   6.481 -0.0871 -0.3772  0.0331
 3538POPC   C3B42983  30.567  22.069   6.128 -0.0695  0.2001 -0.0890
 3538POPC   C4B42984  30.253  22.149   5.803 -0.2311  0.2125 -0.1512
 3539POPC   NC342985  29.713  11.839   7.879 -0.0084  0.0100  0.0443
 3539POPC   PO442986  29.358  11.966   7.776  0.2843  0.1358 -0.2254
 3539POPC   GL142987  29.353  12.015   7.302 -0.1711  0.0279 -0.4027
 3539POPC   GL242988  29.493  11.743   7.376 -0.0406  0.1697 -0.2925
 3539POPC   C1A42989  29.470  11.726   6.891  0.1609  0.0237  0.0616
 3539POPC   D2A42990  29.436  11.433   6.580 -0.1729 -0.1474 -0.1965
 3539POPC   C3A42991  29.491  11.621   6.136  0.0620 -0.0159 -0.0388
 3539POPC   C4A42992  29.270  11.949   5.966  0.0270  0.0446  0.1194
 3539POPC   C1B42993  29.850  11.579   7.152 -0.2502 -0.0830 -0.1629
 3539POPC   C2B42994  29.934  11.555   6.707  0.3126  0.2335  0.0815
 3539POPC   C3B42995  29.990  11.669   6.279 -0.1235  0.1432  0.0581
 3539POPC   C4B42996  29.876  11.846   5.863 -0.2030 -0.1737 -0.2696
 3540POPC   NC342997  11.989   5.621   7.472 -0.0829 -0.1151  0.1245
 3540POPC   PO442998  11.744   5.316   7.581  0.2555 -0.3600  0.1440
 3540POPC   GL142999  11.576   5.298   7.181 -0.0816 -0.2544  0.0559
 3540POPC   GL243000  11.362   5.115   7.286 -0.1636 -0.1493  0.2232
 3540POPC   C1A43001  11.540   5.237   6.718  0.1284  0.1608  0.1392
 3540POPC   D2A43002  11.574   5.135   6.301  0.2550 -0.1239  0.0749
 3540POPC   C3A43003  11.402   4.851   6.002  0.3444  0.0895  0.1338
 3540POPC   C4A43004  11.003   4.943   5.716 -0.0073  0.1570 -0.0221
 3540POPC   C1B43005  11.065   5.143   6.959 -0.2093  0.0421  0.4927
 3540POPC   C2B43006  11.107   5.398   6.570 -0.0505 -0.1146 -0.1890
 3540POPC   C3B43007  11.161   5.391   6.076  0.0912  0.1697 -0.2496
 3540POPC   C4B43008  11.436   5.292   5.715 -0.0552  0.2107  0.0709
 3541POPC   NC343009  31.004  11.444   8.049  0.2200 -0.0711  0.1124
 3541POPC   PO443010  31.335  11.660   8.043  0.1608 -0.2589 -0.2268
 3541POPC   GL143011  31.494  11.701   7.697 -0.2556 -0.2224  0.2448
 3541POPC   GL243012  31.698  11.916   7.653 -0.1392  0.0425 -0.1293
 3541POPC   C1A43013  31.408  11.986   7.301  0.1954 -0.1380 -0.0906
 3541POPC   D2A43014  31.528  11.968   6.909 -0.2735  0.1022 -0.1803
 3541POPC   C3A43015  31.432  12.192   6.542  0.1777  0.4605 -0.1193
 3541POPC   C4A43016  31.566  12.416   6.197  0.2250 -0.1931 -0.1155
 3541POPC   C1B43017  31.966  12.069   7.259  0.0316 -0.0994 -0.0650
 3541POPC   C2B43018  32.017  12.198   6.803  0.0146 -0.0732 -0.2420
 3541POPC   C3B43019  32.041  12.387   6.418 -0.2224  0.1198 -0.0983
 3541POPC   C4B43020  31.931  12.774   6.235 -0.0978  0.1558 -0.0897
 3542POPC   NC343021   8.234  23.982   7.987 -0.4225 -0.3599 -0.2102
 3542POPC   PO443022   8.291  24.158   7.667 -0.2975 -0.1006  0.0864
 3542POPC   GL143023   8.214  24.006   7.348  0.1202 -0.0370  0.0517
 3542POPC   GL243024   8.465  23.990   7.207 -0.0778  0.3254  0.1336
 3542POPC   C1A43025   8.141  23.589   7.036  0.1105 -0.1184 -0.2705
 3542POPC   D2A43026   7.798  23.356   6.811  0.4175  0.0514  0.0289
 3542POPC   C3A43027   7.962  23.148   6.426 -0.1821 -0.1006 -0.3068
 3542POPC   C4A43028   8.356  23.058   6.194 -0.2047  0.1068  0.0130
 3542POPC   C1B43029   8.486  23.816   6.820  0.1332  0.0691 -0.0621
 3542POPC   C2B43030   8.358  23.646   6.453  0.0503  0.0550 -0.1470
 3542POPC   C3B43031   8.143  23.873   6.098 -0.1522 -0.0461 -0.0205
 3542POPC   C4B43032   7.913  23.985   5.767  0.2009 -0.0236  0.3024
 3543POPC   NC343033  12.103  10.966   7.396 -0.0919 -0.1414  0.0333
 3543POPC   PO443034  11.908  10.655   7.369 -0.3094  0.1602 -0.3058
 3543POPC   GL143035  11.787  10.666   7.029 -0.0197 -0.0635  0.2610
 3543POPC   GL243036  11.981  10.926   6.915  0.2144  0.1477 -0.3913
 3543POPC   C1A43037  11.821  10.649   6.512 -0.0542 -0.1058 -0.1323
 3543POPC   D2A43038  11.627  10.398   6.151 -0.0520 -0.1278  0.1755
 3543POPC   C3A43039  11.379  10.610   5.852 -0.0534 -0.3474  0.0132
 3543POPC   C4A43040  11.035  10.591   5.635  0.2957  0.1413  0.3747
 3543POPC   C1B43041  11.813  11.264   6.689  0.2373  0.4941 -0.0354
 3543POPC   C2B43042  11.742  11.466   6.242  0.0795 -0.2000  0.2552
 3543POPC   C3B43043  11.455  11.625   5.960  0.1243 -0.1903  0.0825
 3543POPC   C4B43044  11.132  11.860   5.763  0.1914 -0.2413 -0.0105
 3544POPC   NC343045  14.898  17.824   7.986 -0.0155  0.1874  0.1978
 3544POPC   PO443046  14.788  17.716   7.608 -0.3878  0.1126  0.1149
 3544POPC   GL143047  14.701  17.750   7.149  0.1854  0.0228  0.1974
 3544POPC   GL243048  14.950  17.700   7.157 -0.1704  0.0342  0.1192
 3544POPC   C1A43049  14.687  17.985   6.759  0.1981  0.0183 -0.2887
 3544POPC   D2A43050  14.918  18.190   6.417  0.1985 -0.0156 -0.0749
 3544POPC   C3A43051  15.053  18.337   6.029  0.1024 -0.2024 -0.0100
 3544POPC   C4A43052  15.281  18.699   5.913 -0.1928 -0.3250 -0.0221
 3544POPC   C1B43053  14.885  17.490   6.814  0.0297 -0.2757  0.1504
 3544POPC   C2B43054  14.954  17.637   6.387 -0.0535  0.1070  0.2506
 3544POPC   C3B43055  15.165  17.861   6.031 -0.1896  0.0453 -0.1605
 3544POPC   C4B43056  15.572  18.116   5.997  0.6034 -0.3877 -0.4847
 3545POPC   NC343057   2.000  26.322   8.036  0.0895  0.1350  0.1454
 3545POPC   PO443058   2.389  26.380   7.918 -0.1206 -0.2300  0.3887
 3545POPC   GL143059   2.483  26.661   7.587  0.2605 -0.0008 -0.3637
 3545POPC   GL243060   2.634  26.496   7.483  0.1466 -0.1110  0.0396
 3545POPC   C1A43061   2.510  27.054   7.307 -0.1105 -0.1541 -0.1714
 3545POPC   D2A43062   2.278  27.386   7.112  0.0884  0.0723  0.4161
 3545POPC   C3A43063   2.381  27.656   6.815  0.2483  0.0533 -0.1728
 3545POPC   C4A43064   2.767  27.752   6.559  0.1025 -0.1203  0.1885
 3545POPC   C1B43065   2.869  26.724   7.143 -0.0029 -0.0786 -0.1532
 3545POPC   C2B43066   3.225  26.755   6.816 -0.2533  0.0163  0.0371
 3545POPC   C3B43067   3.422  26.727   6.387  0.0821 -0.0321  0.2651
 3545POPC   C4B43068   3.430  26.732   5.977  0.0778  0.2820 -0.0221
 3546POPC   NC343069   6.210   4.678   7.402 -0.0556  0.2054  0.0956
 3546POPC   PO443070   6.115   4.833   7.777  0.2087  0.1565 -0.1366
 3546POPC   GL143071   6.134   5.113   7.403  0.2489 -0.0231 -0.0637
 3546POPC   GL243072   5.777   5.060   7.428  0.2694  0.1575 -0.1620
 3546POPC   C1A43073   5.920   5.248   6.993  0.0308 -0.0844 -0.3124
 3546POPC   D2A43074   5.646   5.590   6.869  0.3260 -0.1152  0.0895
 3546POPC   C3A43075   5.658   5.786   6.446  0.2759 -0.1733  0.0980
 3546POPC   C4A43076   5.405   5.903   6.084 -0.0483  0.1944 -0.0507
 3546POPC   C1B43077   5.742   4.772   7.077  0.0276  0.0210  0.2658
 3546POPC   C2B43078   5.633   4.574   6.670  0.1274  0.0727  0.0241
 3546POPC   C3B43079   5.562   4.522   6.210  0.0209  0.2521 -0.1286
 3546POPC   C4B43080   5.740   4.610   5.799  0.1121 -0.0200  0.2213
 3547POPC   NC343081  10.736   2.138   7.697 -0.0453 -0.1802 -0.2835
 3547POPC   PO443082  10.987   2.247   7.941  0.1486 -0.1870 -0.3122
 3547POPC   GL143083  11.181   2.289   7.546 -0.0382  0.2830  0.0507
 3547POPC   GL243084  11.360   2.502   7.467  0.1835  0.0167 -0.2641
 3547POPC   C1A43085  10.997   2.364   7.173  0.2737 -0.3039  0.0507
 3547POPC   D2A43086  10.993   2.191   6.711  0.3257  0.0515  0.0802
 3547POPC   C3A43087  10.906   1.700   6.514 -0.2559 -0.0173 -0.1911
 3547POPC   C4A43088  11.015   1.239   6.698 -0.2117  0.2869  0.0018
 3547POPC   C1B43089  11.459   2.616   7.060  0.3658 -0.2638 -0.1918
 3547POPC   C2B43090  11.394   2.541   6.609 -0.5872  0.2612 -0.0656
 3547POPC   C3B43091  11.397   2.724   6.251  0.2233 -0.0780  0.0447
 3547POPC   C4B43092  11.285   3.084   6.030  0.0661 -0.1478  0.0620
 3548POPC   NC343093  26.709  20.751   8.426 -0.1679  0.0152 -0.3160
 3548POPC   PO443094  27.098  20.916   8.358 -0.1037 -0.0403 -0.0161
 3548POPC   GL143095  26.892  21.107   8.097 -0.2826 -0.0718  0.0338
 3548POPC   GL243096  26.723  20.979   7.876 -0.1984 -0.1356  0.0495
 3548POPC   C1A43097  27.130  21.271   7.723  0.0398 -0.3237 -0.3580
 3548POPC   D2A43098  27.293  21.363   7.340 -0.3926 -0.1802 -0.3814
 3548POPC   C3A43099  27.676  21.556   7.193  0.1707  0.1020 -0.1319
 3548POPC   C4A43100  27.930  21.930   7.006 -0.0268 -0.1420 -0.0088
 3548POPC   C1B43101  26.886  20.900   7.416  0.2389 -0.1963  0.3868
 3548POPC   C2B43102  27.129  20.972   7.040 -0.2077 -0.0047  0.0976
 3548POPC   C3B43103  27.322  21.344   6.787 -0.0998 -0.3972 -0.0140
 3548POPC   C4B43104  27.462  21.700   6.797 -0.2265  0.0013  0.0376
 3549POPC   NC343105  17.704   1.928   7.979  0.1770 -0.2611 -0.3035
 3549POPC   PO443106  17.678   1.768   7.620  0.0380 -0.1026  0.0669
 3549POPC   GL143107  17.465   1.983   7.385 -0.0846 -0.4884 -0.0559
 3549POPC   GL243108  17.269   1.767   7.358  0.1637  0.2734 -0.0336
 3549POPC   C1A43109  17.516   2.002   6.935 -0.1797 -0.0668  0.4470
 3549POPC   D2A43110  17.428   2.189   6.517  0.0718 -0.1050  0.2985
 3549POPC   C3A43111  17.628   1.978   6.145  0.1134 -0.0282  0.1358
 3549POPC   C4A43112  17.699   1.583   5.900  0.3407  0.2703 -0.0656
 3549POPC   C1B43113  16.981   1.636   7.009 -0.3445  0.3509 -0.3797
 3549POPC   C2B43114  16.868   1.449   6.581 -0.0845  0.0263 -0.1855
 3549POPC   C3B43115  16.730   1.271   6.180 -0.0448 -0.1634 -0.2334
 3549POPC   C4B43116  16.652   1.323   5.713 -0.1610 -0.5631 -0.5196
 3550POPC   NC343117  29.170   1.251   7.825 -0.0835  0.1572  0.1465
 3550POPC   PO443118  28.837   1.096   7.897 -0.0492  0.1037 -0.0775
 3550POPC   GL143119  28.803   0.973   7.494  0.0145  0.1620  0.1458
 3550POPC   GL243120  28.881   1.169   7.335  0.1329  0.4257 -0.1791
 3550POPC   C1A43121  28.523   0.890   7.125 -0.0839 -0.2274  0.1824
 3550POPC   D2A43122  28.263   0.700   6.741  0.1216 -0.1943  0.1401
 3550POPC   C3A43123  28.396   0.927   6.329  0.1358  0.0823 -0.0144
 3550POPC   C4A43124  28.413   0.882   5.874 -0.0446 -0.2118 -0.1021
 3550POPC   C1B43125  28.966   1.320   6.881  0.1397  0.0063 -0.0855
 3550POPC   C2B43126  29.221   1.322   6.543  0.1249  0.2807 -0.2394
 3550POPC   C3B43127  29.341   1.261   6.101  0.1813  0.1780  0.2784
 3550POPC   C4B43128  29.226   1.073   5.722 -0.2583 -0.1100  0.4450
 3551POPC   NC343129   6.651  15.132   8.021  0.2181 -0.1567  0.0460
 3551POPC   PO443130   6.311  14.894   7.918 -0.1440 -0.0902  0.0165
 3551POPC   GL143131   6.343  14.762   7.583 -0.1946  0.5438  0.1970
 3551POPC   GL243132   6.578  14.525   7.536 -0.1863  0.1159  0.0441
 3551POPC   C1A43133   6.088  14.977   7.263  0.2842 -0.0692 -0.3041
 3551POPC   D2A43134   6.111  15.312   6.955  0.0527 -0.0054 -0.1713
 3551POPC   C3A43135   5.851  15.605   6.795 -0.0324 -0.0064 -0.1558
 3551POPC   C4A43136   5.780  15.751   6.366  0.0241  0.0875  0.0854
 3551POPC   C1B43137   6.372  14.550   7.136  0.0668  0.3670  0.2190
 3551POPC   C2B43138   6.269  14.381   6.700 -0.0414 -0.3055  0.0600
 3551POPC   C3B43139   6.331  14.569   6.262 -0.0525  0.0271  0.0277
 3551POPC   C4B43140   6.690  14.664   5.950 -0.1350  0.0659 -0.2483
 3552POPC   NC343141   6.975   0.329   7.781  0.0064  0.1003  0.2737
 3552POPC   PO443142   7.072   0.654   7.964  0.0583  0.1575 -0.0025
 3552POPC   GL143143   6.901   0.920   7.711  0.3065 -0.0180 -0.2164
 3552POPC   GL243144   6.678   0.692   7.648 -0.3228 -0.0209 -0.0652
 3552POPC   C1A43145   6.822   0.979   7.271  0.2749  0.3886 -0.1191
 3552POPC   D2A43146   6.742   1.212   6.890 -0.5056  0.1129  0.1161
 3552POPC   C3A43147   6.783   1.133   6.411 -0.1131 -0.0590 -0.0093
 3552POPC   C4A43148   7.129   1.265   6.127  0.0142 -0.0566 -0.0856
 3552POPC   C1B43149   6.357   0.981   7.504 -0.1732  0.1764 -0.1061
 3552POPC   C2B43150   6.265   1.182   7.108  0.0288 -0.0461  0.1302
 3552POPC   C3B43151   6.276   1.225   6.629 -0.0081  0.1311  0.0120
 3552POPC   C4B43152   6.282   1.235   6.231 -0.0370 -0.2404  0.1640
 3553POPC   NC343153  27.545  27.124   7.694 -0.1790 -0.1537  0.1867
 3553POPC   PO443154  27.866  27.367   7.771  0.1112  0.1701  0.1702
 3553POPC   GL143155  27.858  27.313   7.430 -0.0130 -0.1580 -0.1795
 3553POPC   GL243156  27.857  27.647   7.358  0.1065  0.0084 -0.4131
 3553POPC   C1A43157  28.179  27.229   7.130  0.0389 -0.2200  0.0251
 3553POPC   D2A43158  28.350  27.145   6.700  0.1039 -0.0535  0.1234
 3553POPC   C3A43159  28.076  27.372   6.477 -0.2300  0.2836  0.2342
 3553POPC   C4A43160  27.931  27.738   6.275 -0.3793 -0.0587  0.2537
 3553POPC   C1B43161  28.032  27.638   6.882  0.0434  0.3629 -0.2518
 3553POPC   C2B43162  28.349  27.738   6.571 -0.3292 -0.0169 -0.1125
 3553POPC   C3B43163  28.398  27.679   6.109  0.1307 -0.3495 -0.2264
 3553POPC   C4B43164  28.453  27.802   5.658  0.0412  0.0320 -0.0173
 3554POPC   NC343165   0.946  11.899   8.005  0.0668 -0.4989  0.1404
 3554POPC   PO443166   0.886  11.541   7.953  0.3538 -0.1890 -0.2086
 3554POPC   GL143167   0.865  11.614   7.562  0.0839 -0.0615  0.2683
 3554POPC   GL243168   0.772  11.895   7.546 -0.1404 -0.1407 -0.0852
 3554POPC   C1A43169   1.230  11.753   7.261 -0.0181 -0.0789  0.0976
 3554POPC   D2A43170   1.600  11.709   6.979 -0.0319  0.1643 -0.0080
 3554POPC   C3A43171   1.554  11.804   6.508  0.0932  0.3438 -0.1144
 3554POPC   C4A43172   1.416  11.603   6.131 -0.0386  0.2464  0.0908
 3554POPC   C1B43173   0.626  11.692   7.110 -0.1114  0.0521  0.2147
 3554POPC   C2B43174   0.577  11.790   6.654 -0.3584  0.4140 -0.0756
 3554POPC   C3B43175   0.645  11.949   6.196 -0.2712 -0.1882  0.0850
 3554POPC   C4B43176   0.640  11.938   5.735  0.0777  0.0681  0.0183
 3555POPC   NC343177   7.538  21.787   7.825  0.0574  0.1923 -0.0488
 3555POPC   PO443178   7.342  22.114   7.878 -0.0096  0.0691 -0.1253
 3555POPC   GL143179   7.143  22.016   7.542  0.4090 -0.1301  0.1674
 3555POPC   GL243180   7.353  21.995   7.378 -0.4666  0.1407 -0.0194
 3555POPC   C1A43181   7.000  22.271   7.228 -0.1530  0.1226 -0.0917
 3555POPC   D2A43182   6.892  22.338   6.777 -0.1078 -0.1970  0.0119
 3555POPC   C3A43183   6.609  22.153   6.447  0.1079 -0.1357  0.3398
 3555POPC   C4A43184   6.251  21.898   6.341 -0.3419  0.2943 -0.2799
 3555POPC   C1B43185   7.403  21.928   6.916 -0.1111 -0.2782  0.0719
 3555POPC   C2B43186   7.412  22.028   6.481 -0.1418 -0.0025  0.1625
 3555POPC   C3B43187   7.413  22.129   6.024 -0.0127  0.1416  0.4818
 3555POPC   C4B43188   7.079  21.880   5.720  0.2854 -0.0116  0.2314
 3556POPC   NC343189  11.918  19.310   7.407 -0.0447 -0.1501 -0.1504
 3556POPC   PO443190  12.239  19.284   7.182 -0.2458 -0.0764 -0.1444
 3556POPC   GL143191  12.343  19.335   6.866  0.3729  0.0572 -0.1406
 3556POPC   GL243192  12.201  19.116   6.716  0.0023 -0.1730  0.2100
 3556POPC   C1A43193  12.622  19.278   6.469  0.2983  0.0636  0.0047
 3556POPC   D2A43194  12.637  18.901   6.187 -0.2393 -0.3189 -0.2124
 3556POPC   C3A43195  12.729  19.115   5.773 -0.1684 -0.2062 -0.0951
 3556POPC   C4A43196  12.951  19.428   5.499  0.0942 -0.0583  0.0835
 3556POPC   C1B43197  12.126  19.179   6.298  0.2595  0.3265  0.1698
 3556POPC   C2B43198  12.009  18.929   5.915  0.0534 -0.0514 -0.4840
 3556POPC   C3B43199  11.723  18.599   5.805 -0.3932 -0.1758 -0.0482
 3556POPC   C4B43200  11.331  18.355   5.626 -0.0635  0.4619  0.1904
 3557POPC   NC343201  25.969  25.938   7.366 -0.3115 -0.1572  0.1773
 3557POPC   PO443202  25.655  25.788   7.463 -0.0108 -0.0758 -0.0675
 3557POPC   GL143203  25.594  25.570   7.111  0.0038  0.1439 -0.2357
 3557POPC   GL243204  25.564  25.335   6.984  0.1756  0.0121  0.2425
 3557POPC   C1A43205  25.666  25.728   6.659 -0.1712  0.1267  0.3069
 3557POPC   D2A43206  25.776  25.609   6.225 -0.1634  0.0265 -0.1430
 3557POPC   C3A43207  25.471  25.721   5.911 -0.2330 -0.2194  0.0002
 3557POPC   C4A43208  25.117  25.885   5.711  0.3891  0.2001 -0.2090
 3557POPC   C1B43209  25.400  25.243   6.526  0.1398  0.0987 -0.0429
 3557POPC   C2B43210  25.164  25.300   6.100 -0.0640 -0.0406  0.1192
 3557POPC   C3B43211  24.858  25.375   5.753  0.0641 -0.1419 -0.2822
 3557POPC   C4B43212  24.397  25.418   5.631 -0.1832 -0.1822  0.0703
 3558POPC   NC343213  20.632   5.490   7.617 -0.0721 -0.0482  0.1848
 3558POPC   PO443214  20.651   5.790   7.901  0.3097 -0.0045 -0.0363
 3558POPC   GL143215  20.640   5.909   7.442  0.1562  0.1284 -0.1933
 3558POPC   GL243216  20.360   5.905   7.365 -0.3925  0.1282 -0.2372
 3558POPC   C1A43217  20.936   5.822   7.107 -0.2292  0.3410  0.1310
 3558POPC   D2A43218  21.169   5.510   6.838 -0.2173  0.0117  0.0755
 3558POPC   C3A43219  20.999   5.433   6.426  0.1099 -0.1765 -0.0594
 3558POPC   C4A43220  20.788   5.734   6.129  0.2135 -0.1575  0.2205
 3558POPC   C1B43221  20.358   5.547   7.024  0.0318  0.1335 -0.4469
 3558POPC   C2B43222  20.571   5.700   6.626 -0.0340  0.0521 -0.0770
 3558POPC   C3B43223  20.694   6.118   6.461 -0.0307 -0.1101  0.1417
 3558POPC   C4B43224  21.055   6.307   6.204 -0.1078 -0.1430 -0.1718
 3559POPC   NC343225  16.605  25.565   8.002 -0.1992 -0.0112 -0.2148
 3559POPC   PO443226  16.708  25.375   7.678  0.1239 -0.0978  0.3703
 3559POPC   GL143227  16.939  25.349   7.457 -0.6167  0.3130  0.0884
 3559POPC   GL243228  17.111  25.525   7.472 -0.0449  0.4862 -0.1357
 3559POPC   C1A43229  17.026  25.009   7.184  0.1245  0.3859 -0.0510
 3559POPC   D2A43230  17.243  24.772   6.811 -0.2042  0.1487  0.2581
 3559POPC   C3A43231  17.376  24.925   6.392  0.1382  0.1433  0.2496
 3559POPC   C4A43232  17.443  25.006   5.916  0.1260 -0.0636 -0.1254
 3559POPC   C1B43233  17.236  25.690   7.074 -0.0036  0.0270  0.2532
 3559POPC   C2B43234  17.213  25.822   6.612 -0.1553  0.1163 -0.1011
 3559POPC   C3B43235  17.410  25.884   6.242 -0.2699 -0.1111  0.0887
 3559POPC   C4B43236  17.731  25.899   5.943 -0.1900 -0.1021 -0.1239
 3560POPC   NC343237   0.658  10.593   7.836  0.1254 -0.2578 -0.3386
 3560POPC   PO443238   1.056  10.656   7.890  0.4065 -0.1391  0.2920
 3560POPC   GL143239   0.975  10.835   7.508 -0.1018 -0.0472  0.1017
 3560POPC   GL243240   0.834  11.043   7.672  0.0788 -0.1701 -0.0578
 3560POPC   C1A43241   1.113  10.760   7.090 -0.0942 -0.1356  0.0914
 3560POPC   D2A43242   1.106  10.861   6.611 -0.1116  0.1345  0.3070
 3560POPC   C3A43243   1.180  10.635   6.157  0.1887 -0.1768 -0.1556
 3560POPC   C4A43244   1.253  10.530   5.707 -0.3421  0.1519 -0.0972
 3560POPC   C1B43245   0.922  11.276   7.230 -0.1828  0.1049  0.2119
 3560POPC   C2B43246   0.815  11.298   6.729 -0.1930  0.0499 -0.3293
 3560POPC   C3B43247   0.616  11.420   6.308 -0.1090 -0.0296 -0.1507
 3560POPC   C4B43248   0.371  11.529   5.911  0.0268  0.2867 -0.1847
 3561POPC   NC343249   1.663  29.738   7.576 -0.2198  0.0434  0.2830
 3561POPC   PO443250   1.707  30.129   7.735 -0.3758 -0.1000  0.3480
 3561POPC   GL143251   1.660  30.182   7.394  0.0583 -0.2176 -0.0103
 3561POPC   GL243252   1.790  30.420   7.194 -0.1835  0.0768  0.4251
 3561POPC   C1A43253   1.857  29.932   7.054 -0.0813 -0.0316  0.0029
 3561POPC   D2A43254   1.945  29.944   6.632 -0.1471 -0.0671 -0.0290
 3561POPC   C3A43255   1.751  29.842   6.269  0.1802  0.1103 -0.1796
 3561POPC   C4A43256   1.838  29.453   5.985  0.0728 -0.2587 -0.1855
 3561POPC   C1B43257   1.567  30.288   6.788  0.1752 -0.0916 -0.2677
 3561POPC   C2B43258   1.425  30.259   6.399 -0.1055  0.1050  0.2235
 3561POPC   C3B43259   1.499  30.363   5.985 -0.1303  0.4378  0.1077
 3561POPC   C4B43260   1.662  30.466   5.578  0.0957 -0.0000  0.1110
 3562POPC   NC343261  16.037  30.144   7.638  0.0085  0.1753 -0.0805
 3562POPC   PO443262  15.797  30.301   7.356 -0.0357 -0.1924 -0.2436
 3562POPC   GL143263  15.692  30.167   7.014 -0.3340 -0.2523  0.1591
 3562POPC   GL243264  15.436  30.188   7.085 -0.0881  0.1274 -0.0648
 3562POPC   C1A43265  15.919  29.994   6.677 -0.2950 -0.2344  0.2403
 3562POPC   D2A43266  15.815  29.644   6.417 -0.0713  0.0372 -0.2198
 3562POPC   C3A43267  15.564  29.701   6.012  0.1789 -0.0560  0.1549
 3562POPC   C4A43268  15.335  29.735   5.633 -0.0798 -0.0538  0.2177
 3562POPC   C1B43269  15.347  29.781   6.800  0.0218 -0.1009  0.0365
 3562POPC   C2B43270  15.187  29.584   6.407 -0.1921 -0.0667 -0.1726
 3562POPC   C3B43271  15.010  29.522   6.004  0.1146 -0.0396 -0.0700
 3562POPC   C4B43272  14.752  29.193   5.803  0.0007  0.2877 -0.0336
 3563POPC   NC343273  26.814  27.543   7.934  0.2187  0.4464 -0.2491
 3563POPC   PO443274  26.592  27.398   7.697 -0.2126 -0.0507 -0.3203
 3563POPC   GL143275  26.702  27.578   7.332  0.1013  0.1545 -0.3308
 3563POPC   GL243276  26.854  27.861   7.356 -0.0559 -0.0763 -0.0361
 3563POPC   C1A43277  26.803  27.492   6.828  0.0637  0.5113  0.2089
 3563POPC   D2A43278  26.794  27.287   6.405  0.1259 -0.1800 -0.0916
 3563POPC   C3A43279  26.814  27.274   5.920 -0.0900  0.2674  0.0065
 3563POPC   C4A43280  27.158  27.529   5.802  0.0889  0.0542 -0.2122
 3563POPC   C1B43281  26.993  27.955   6.926  0.0860 -0.2248  0.0484
 3563POPC   C2B43282  26.753  28.145   6.560 -0.1356  0.1063 -0.0985
 3563POPC   C3B43283  26.573  28.333   6.149 -0.0126 -0.0681  0.2428
 3563POPC   C4B43284  26.440  28.346   5.716 -0.2261  0.0437  0.0801
 3564POPC   NC343285   7.206  26.899   7.777  0.2225  0.2288 -0.2423
 3564POPC   PO443286   7.474  27.102   7.988 -0.1491  0.2716  0.1100
 3564POPC   GL143287   7.747  26.898   7.718  0.0234 -0.1183  0.2270
 3564POPC   GL243288   7.610  26.858   7.473 -0.1890  0.2779 -0.0911
 3564POPC   C1A43289   8.091  26.677   7.392 -0.1175  0.0595  0.2404
 3564POPC   D2A43290   8.200  26.343   7.110 -0.0267  0.0475  0.2229
 3564POPC   C3A43291   8.010  26.352   6.635  0.0942  0.0971  0.2237
 3564POPC   C4A43292   7.928  26.653   6.303 -0.1836  0.0863 -0.0820
 3564POPC   C1B43293   7.754  26.910   7.061  0.2191  0.0407  0.3229
 3564POPC   C2B43294   7.755  27.095   6.598  0.1774  0.1524  0.0174
 3564POPC   C3B43295   7.796  27.185   6.193 -0.1415 -0.0126 -0.0566
 3564POPC   C4B43296   7.738  27.380   5.801  0.0981 -0.1128 -0.1945
 3565POPC   NC343297  21.209  21.815   7.702  0.0560  0.1405  0.2700
 3565POPC   PO443298  20.968  21.992   7.907 -0.0605  0.0449 -0.4458
 3565POPC   GL143299  20.974  22.268   7.610  0.1910  0.0523 -0.0233
 3565POPC   GL243300  21.164  22.230   7.348 -0.0253  0.0485  0.4001
 3565POPC   C1A43301  20.700  22.325   7.217 -0.0271 -0.0811  0.3365
 3565POPC   D2A43302  20.466  22.347   6.837  0.2621  0.1544  0.0657
 3565POPC   C3A43303  20.045  22.146   6.823 -0.2201  0.1850  0.0817
 3565POPC   C4A43304  19.857  21.775   7.017 -0.1038  0.1296  0.4620
 3565POPC   C1B43305  20.941  21.925   7.063 -0.1551  0.0153  0.0202
 3565POPC   C2B43306  20.814  21.892   6.675 -0.2978  0.1165  0.0804
 3565POPC   C3B43307  20.749  21.882   6.223 -0.0187  0.1532  0.0029
 3565POPC   C4B43308  20.924  21.660   5.848  0.0959 -0.0622 -0.0066
 3566POPC   NC343309  12.860  10.909   7.424 -0.0162  0.1890 -0.1541
 3566POPC   PO443310  13.155  10.743   7.200 -0.2613  0.0328 -0.4647
 3566POPC   GL143311  13.038  11.026   6.974  0.0540  0.0293 -0.0904
 3566POPC   GL243312  12.755  10.874   6.912 -0.2440  0.1032  0.3022
 3566POPC   C1A43313  12.803  11.421   6.906 -0.2348 -0.0531 -0.1185
 3566POPC   D2A43314  12.563  11.693   6.726  0.2065 -0.3355  0.0461
 3566POPC   C3A43315  12.448  11.598   6.313 -0.2118 -0.0832 -0.0895
 3566POPC   C4A43316  12.445  11.522   5.874 -0.1949 -0.2653 -0.1286
 3566POPC   C1B43317  12.796  11.092   6.467 -0.1262  0.1498 -0.0354
 3566POPC   C2B43318  12.887  11.453   6.201 -0.1669 -0.0420 -0.1687
 3566POPC   C3B43319  12.991  11.671   5.779  0.0938 -0.1888  0.0183
 3566POPC   C4B43320  13.012  12.021   5.492 -0.0347 -0.2418 -0.0036
 3567POPC   NC343321  28.682   6.419   7.659  0.0118 -0.5921 -0.0203
 3567POPC   PO443322  28.523   6.066   7.744  0.2267 -0.0442  0.0819
 3567POPC   GL143323  28.821   6.014   7.377  0.2184 -0.3351 -0.0663
 3567POPC   GL243324  28.591   5.803   7.235  0.0070  0.0577  0.0757
 3567POPC   C1A43325  28.873   6.051   6.926  0.3111 -0.1041  0.1965
 3567POPC   D2A43326  28.718   6.336   6.590  0.2291  0.1415  0.0017
 3567POPC   C3A43327  28.987   6.231   6.284 -0.5527 -0.2767  0.0704
 3567POPC   C4A43328  29.271   6.220   5.900  0.0288 -0.2138  0.0668
 3567POPC   C1B43329  28.384   5.987   6.858 -0.1120  0.0808 -0.1452
 3567POPC   C2B43330  28.162   6.127   6.518 -0.2747  0.0334 -0.2434
 3567POPC   C3B43331  28.132   5.995   6.060  0.1356  0.0667  0.1283
 3567POPC   C4B43332  28.148   5.616   5.820 -0.1827  0.0324  0.0018
 3568POPC   NC343333   1.266   7.432   7.441 -0.0195 -0.1878  0.0593
 3568POPC   PO443334   1.567   7.678   7.579 -0.0080  0.3188  0.1641
 3568POPC   GL143335   1.654   7.804   7.258  0.4581  0.2874 -0.0321
 3568POPC   GL243336   1.455   7.725   7.072 -0.2087 -0.0649  0.0150
 3568POPC   C1A43337   1.688   8.203   7.037 -0.0863 -0.1875  0.0175
 3568POPC   D2A43338   1.655   8.656   6.885 -0.1531 -0.0876 -0.0250
 3568POPC   C3A43339   1.687   9.087   7.064 -0.0818  0.0870  0.0031
 3568POPC   C4A43340   1.634   9.508   7.312 -0.1872 -0.0391  0.1541
 3568POPC   C1B43341   1.608   7.765   6.630  0.1509  0.0732 -0.2222
 3568POPC   C2B43342   1.777   7.918   6.247  0.0932  0.2526 -0.2227
 3568POPC   C3B43343   2.057   8.255   6.014 -0.0351  0.0110 -0.1031
 3568POPC   C4B43344   2.063   8.572   5.710  0.1517  0.0610 -0.1562
 3569POPC   NC343345  18.364   0.045   7.722 -0.0454  0.0562  0.3571
 3569POPC   PO443346  18.125  -0.238   7.863 -0.0985  0.1983  0.0547
 3569POPC   GL143347  18.249  -0.365   7.508  0.6646  0.0466 -0.0356
 3569POPC   GL243348  18.163  -0.685   7.495 -0.2366  0.1903  0.0989
 3569POPC   C1A43349  18.210  -0.101   7.112  0.0822  0.2487 -0.0144
 3569POPC   D2A43350  18.274   0.107   6.700  0.2117  0.0331 -0.0799
 3569POPC   C3A43351  18.584  -0.040   6.394 -0.0755 -0.2117  0.2966
 3569POPC   C4A43352  18.595  -0.212   5.919  0.2601 -0.2412 -0.0411
 3569POPC   C1B43353  18.317  -0.668   7.050 -0.1350  0.1792  0.1930
 3569POPC   C2B43354  18.371  -0.447   6.653  0.2690  0.3363 -0.0307
 3569POPC   C3B43355  18.123  -0.341   6.237 -0.0482  0.1179  0.1641
 3569POPC   C4B43356  17.765  -0.119   6.020  0.1913 -0.0900  0.0239
 3570POPC   NC343357  24.168   0.157   7.298  0.1824  0.0075 -0.1824
 3570POPC   PO443358  24.109  -0.141   7.588 -0.1743  0.1154  0.2789
 3570POPC   GL143359  23.807  -0.394   7.307 -0.0234  0.1457 -0.3628
 3570POPC   GL243360  23.753  -0.141   7.191  0.1866  0.2647  0.0937
 3570POPC   C1A43361  23.637  -0.726   6.972  0.2410 -0.2019  0.2200
 3570POPC   D2A43362  23.965  -1.032   6.904 -0.2053  0.1688  0.0806
 3570POPC   C3A43363  23.858  -1.045   6.433  0.1902  0.0421 -0.1210
 3570POPC   C4A43364  23.738  -1.378   6.151  0.0510  0.4503  0.2622
 3570POPC   C1B43365  23.862  -0.339   6.794  0.1623  0.1318  0.0660
 3570POPC   C2B43366  23.933  -0.363   6.374 -0.3185 -0.2048  0.0797
 3570POPC   C3B43367  23.816  -0.158   5.918  0.1101  0.1875  0.0899
 3570POPC   C4B43368  24.030   0.157   5.735 -0.0697  0.1036  0.2218
 3571POPC   NC343369   5.306  10.754   7.387  0.1634 -0.1607  0.3458
 3571POPC   PO443370   5.589  11.003   7.373 -0.0861  0.0309 -0.1296
 3571POPC   GL143371   5.844  10.923   7.058  0.0913  0.1625  0.1380
 3571POPC   GL243372   5.650  10.987   6.830 -0.3125 -0.0504  0.0649
 3571POPC   C1A43373   6.122  10.817   6.673  0.1471 -0.0294  0.0277
 3571POPC   D2A43374   6.120  10.770   6.194 -0.1328  0.0928 -0.2902
 3571POPC   C3A43375   6.198  10.623   5.766 -0.0987 -0.1773 -0.0993
 3571POPC   C4A43376   6.290  10.583   5.336 -0.0149  0.0883  0.2609
 3571POPC   C1B43377   5.619  10.845   6.358 -0.3449 -0.1336  0.1144
 3571POPC   C2B43378   5.339  10.792   5.926 -0.1165  0.3784 -0.0056
 3571POPC   C3B43379   5.098  10.790   5.525  0.0989  0.1405  0.2523
 3571POPC   C4B43380   5.064  10.765   5.122  0.1234 -0.0611  0.0041
 3572POPC   NC343381   3.701  14.338   8.742 -0.2403 -0.0015  0.1705
 3572POPC   PO443382   3.653  14.718   8.491 -0.0163 -0.3264 -0.2433
 3572POPC   GL143383   3.410  14.648   8.111  0.1330  0.0802 -0.1346
 3572POPC   GL243384   3.612  14.725   7.928 -0.1301 -0.1834 -0.3146
 3572POPC   C1A43385   3.269  14.283   7.880  0.1959 -0.1677  0.1113
 3572POPC   D2A43386   3.300  13.950   7.648  0.0954  0.0020 -0.0078
 3572POPC   C3A43387   3.157  13.727   7.278  0.3218  0.1355  0.1128
 3572POPC   C4A43388   2.872  13.778   6.925  0.0620 -0.1453 -0.1077
 3572POPC   C1B43389   4.036  14.617   7.733  0.0220 -0.1272 -0.0292
 3572POPC   C2B43390   4.185  14.586   7.329 -0.2508  0.5196  0.3761
 3572POPC   C3B43391   3.996  14.435   6.941 -0.2501 -0.0326  0.1999
 3572POPC   C4B43392   3.864  14.054   6.722  0.1266 -0.2003  0.2437
 3573POPC   NC343393   5.250  27.135   7.755 -0.0877 -0.1403 -0.2066
 3573POPC   PO443394   5.094  26.766   7.893 -0.1841  0.0120  0.0787
 3573POPC   GL143395   5.200  26.742   7.539 -0.0875  0.0549 -0.1874
 3573POPC   GL243396   5.499  26.588   7.515 -0.0518 -0.2810 -0.0217
 3573POPC   C1A43397   5.082  26.612   7.052  0.4366  0.1507 -0.0344
 3573POPC   D2A43398   5.052  26.480   6.603  0.6036  0.0271  0.1770
 3573POPC   C3A43399   5.197  26.816   6.236  0.1106  0.2963 -0.0960
 3573POPC   C4A43400   5.371  27.033   5.862 -0.0064  0.0490  0.3418
 3573POPC   C1B43401   5.594  26.548   7.020 -0.3285  0.0895 -0.0490
 3573POPC   C2B43402   5.628  26.685   6.631 -0.2152  0.1821 -0.2005
 3573POPC   C3B43403   5.677  26.940   6.310  0.0702 -0.2455 -0.1334
 3573POPC   C4B43404   5.737  27.407   6.144  0.1976  0.0619  0.2982
 3574POPC   NC343405  22.308  29.958   7.439 -0.2447 -0.0264 -0.1435
 3574POPC   PO443406  22.575  29.837   7.697 -0.0233 -0.3969 -0.1810
 3574POPC   GL143407  22.746  29.678   7.348 -0.0672 -0.1015 -0.0320
 3574POPC   GL243408  22.836  29.919   7.272 -0.2545 -0.4108  0.0073
 3574POPC   C1A43409  23.223  29.535   7.204 -0.0532  0.0115  0.0675
 3574POPC   D2A43410  23.681  29.389   7.081  0.1956  0.1496 -0.0584
 3574POPC   C3A43411  23.889  29.398   6.707 -0.0991  0.1912  0.2398
 3574POPC   C4A43412  24.209  29.196   6.403  0.3423  0.3506  0.1921
 3574POPC   C1B43413  22.785  29.599   6.924 -0.0104 -0.1009 -0.3013
 3574POPC   C2B43414  23.012  29.173   6.937 -0.1534  0.0155 -0.1693
 3574POPC   C3B43415  22.903  28.844   6.630 -0.1421 -0.2285 -0.3137
 3574POPC   C4B43416  22.712  28.801   6.165  0.0655  0.0900  0.0949
 3575POPC   NC343417  21.555  20.507   7.704  0.2148 -0.4293  0.0980
 3575POPC   PO443418  21.244  20.713   7.531 -0.2483  0.1020 -0.0118
 3575POPC   GL143419  21.295  20.744   7.196  0.1618 -0.1718 -0.2564
 3575POPC   GL243420  21.266  21.000   7.083 -0.0828  0.1907  0.1461
 3575POPC   C1A43421  21.540  20.667   6.792 -0.1812 -0.1842  0.2902
 3575POPC   D2A43422  21.859  20.396   6.610 -0.1090  0.1019  0.2346
 3575POPC   C3A43423  21.859  20.342   6.170  0.0996 -0.0855 -0.3150
 3575POPC   C4A43424  21.886  20.569   5.721  0.2697  0.1363 -0.1528
 3575POPC   C1B43425  21.424  21.223   6.648 -0.0832 -0.3959  0.0809
 3575POPC   C2B43426  21.498  21.204   6.238 -0.1024  0.0262  0.1414
 3575POPC   C3B43427  21.536  21.057   5.785  0.1500 -0.1480  0.3111
 3575POPC   C4B43428  21.407  20.750   5.497  0.4412  0.3437 -0.1220
 3576POPC   NC343429  26.706   1.805   8.683 -0.0193  0.0454  0.1135
 3576POPC   PO443430  26.849   2.126   8.481 -0.0608 -0.2974 -0.1974
 3576POPC   GL143431  26.810   2.298   8.154 -0.1798 -0.2938 -0.0521
 3576POPC   GL243432  26.660   2.173   7.921 -0.1078  0.2945 -0.4594
 3576POPC   C1A43433  27.137   2.484   7.829 -0.0117  0.4091 -0.0467
 3576POPC   D2A43434  27.240   2.479   7.424 -0.2445 -0.0600 -0.1778
 3576POPC   C3A43435  26.853   2.562   7.097  0.0223  0.0916  0.0530
 3576POPC   C4A43436  26.738   2.828   6.755  0.1163  0.0930 -0.1367
 3576POPC   C1B43437  26.750   2.283   7.501 -0.0198 -0.4182  0.1079
 3576POPC   C2B43438  26.379   2.437   7.183  0.1279  0.2054 -0.1222
 3576POPC   C3B43439  26.158   2.638   6.771 -0.4023 -0.0263 -0.1846
 3576POPC   C4B43440  26.180   3.010   6.477  0.0913 -0.1813  0.0034
 3577POPC   NC343441  10.862  23.851   7.833  0.0173 -0.1871 -0.0236
 3577POPC   PO443442  11.122  24.154   7.753 -0.0832 -0.1853 -0.1711
 3577POPC   GL143443  10.968  24.023   7.327  0.2712  0.1067 -0.1261
 3577POPC   GL243444  11.001  23.732   7.251  0.0308  0.1057 -0.1482
 3577POPC   C1A43445  10.851  24.019   6.875  0.0023  0.3836 -0.0667
 3577POPC   D2A43446  10.808  24.083   6.386 -0.3790  0.1234  0.0703
 3577POPC   C3A43447  10.709  24.320   5.993 -0.0418 -0.1024  0.1581
 3577POPC   C4A43448  10.467  24.586   5.669 -0.1422 -0.0872  0.0979
 3577POPC   C1B43449  11.102  23.476   6.857 -0.1494  0.0068 -0.0102
 3577POPC   C2B43450  11.243  23.332   6.426  0.2070 -0.1793 -0.1208
 3577POPC   C3B43451  11.518  22.955   6.227  0.0788 -0.0004 -0.1024
 3577POPC   C4B43452  11.662  22.611   6.023 -0.1007  0.0258 -0.2618
 3578POPC   NC343453  17.602  22.483   7.482  0.0187  0.1202  0.1114
 3578POPC   PO443454  17.215  22.472   7.559 -0.1346 -0.0661  0.0220
 3578POPC   GL143455  17.084  22.404   7.084 -0.0728  0.0495 -0.5310
 3578POPC   GL243456  17.268  22.214   7.146 -0.1331  0.1010  0.1669
 3578POPC   C1A43457  17.026  22.648   6.668 -0.3468  0.0010  0.0099
 3578POPC   D2A43458  17.283  23.056   6.640 -0.0397 -0.1475  0.3352
 3578POPC   C3A43459  17.668  22.845   6.495 -0.0439 -0.0030  0.1787
 3578POPC   C4A43460  17.849  22.721   6.078  0.2513 -0.0386 -0.0737
 3578POPC   C1B43461  17.124  22.187   6.707  0.0126  0.0193  0.0160
 3578POPC   C2B43462  16.930  22.255   6.283  0.0677  0.1134  0.4922
 3578POPC   C3B43463  17.017  22.598   5.927  0.3733 -0.1848 -0.2205
 3578POPC   C4B43464  16.776  22.974   5.805 -0.0706 -0.1615 -0.2497
 3579POPC   NC343465  14.773  11.188   8.016  0.0234  0.0136  0.0442
 3579POPC   PO443466  14.530  11.322   7.730  0.3224 -0.1640 -0.0092
 3579POPC   GL143467  14.808  11.190   7.503 -0.2398  0.2220 -0.1522
 3579POPC   GL243468  14.804  10.895   7.507  0.0145  0.1644  0.1003
 3579POPC   C1A43469  15.124  11.360   7.263 -0.1171 -0.2869  0.0822
 3579POPC   D2A43470  14.986  11.651   6.961 -0.1021 -0.0011 -0.1053
 3579POPC   C3A43471  15.086  11.713   6.528  0.0313  0.1330  0.1970
 3579POPC   C4A43472  15.017  11.553   6.076 -0.3081  0.0059  0.0829
 3579POPC   C1B43473  14.842  10.995   7.061 -0.3133  0.2069  0.1853
 3579POPC   C2B43474  14.808  10.869   6.564  0.1338  0.4150 -0.0107
 3579POPC   C3B43475  14.779  10.833   6.142 -0.1062 -0.0060  0.1810
 3579POPC   C4B43476  14.683  10.647   5.695 -0.0856 -0.0444 -0.1217
 3580POPC   NC343477   6.493  13.709   7.964 -0.0684  0.0655 -0.0947
 3580POPC   PO443478   6.865  13.709   8.101  0.1359  0.2696  0.0155
 3580POPC   GL143479   6.864  13.774   7.673  0.2485 -0.1104 -0.5241
 3580POPC   GL243480   7.096  13.673   7.605 -0.2252 -0.0553 -0.1767
 3580POPC   C1A43481   6.750  14.037   7.312 -0.2670  0.0616 -0.0480
 3580POPC   D2A43482   6.835  14.012   6.864 -0.0237  0.0536 -0.0016
 3580POPC   C3A43483   7.137  14.218   6.617  0.1153 -0.2092  0.0391
 3580POPC   C4A43484   7.491  14.214   6.363  0.0561 -0.0724 -0.0522
 3580POPC   C1B43485   7.078  13.680   7.112  0.1226  0.1970 -0.3435
 3580POPC   C2B43486   7.229  13.738   6.681 -0.0907 -0.1503 -0.0703
 3580POPC   C3B43487   7.203  13.823   6.232 -0.0305  0.1325 -0.0468
 3580POPC   C4B43488   7.539  13.595   5.987  0.2008  0.1824 -0.1894
 3581POPC   NC343489   5.791  29.080   7.391  0.1271  0.1044 -0.1263
 3581POPC   PO443490   5.876  28.708   7.371  0.0037  0.2059 -0.0264
 3581POPC   GL143491   5.907  28.636   6.977 -0.1237  0.0069  0.0067
 3581POPC   GL243492   6.138  28.437   7.032 -0.1418 -0.0812 -0.0156
 3581POPC   C1A43493   5.856  28.801   6.504  0.2427  0.0078 -0.0357
 3581POPC   D2A43494   5.995  28.616   6.105 -0.3337 -0.2408  0.4240
 3581POPC   C3A43495   5.944  28.218   6.090  0.0345 -0.0019 -0.0184
 3581POPC   C4A43496   5.667  27.930   5.872 -0.1371  0.0653 -0.2126
 3581POPC   C1B43497   6.453  28.167   7.011 -0.0802  0.4034 -0.0452
 3581POPC   C2B43498   6.741  28.080   6.658 -0.1799  0.0242  0.1934
 3581POPC   C3B43499   6.647  28.014   6.203  0.1292 -0.0672 -0.0226
 3581POPC   C4B43500   6.447  27.859   5.824 -0.2447  0.0766  0.4211
 3582POPC   NC343501   1.103  17.861   7.257 -0.4365 -0.0910 -0.2605
 3582POPC   PO443502   1.354  18.131   7.312 -0.0466 -0.2867  0.0262
 3582POPC   GL143503   1.408  18.238   7.015  0.3420  0.1870 -0.0148
 3582POPC   GL243504   1.293  18.087   6.829  0.2049 -0.1249  0.0205
 3582POPC   C1A43505   1.700  18.314   6.634 -0.0822  0.0202  0.0379
 3582POPC   D2A43506   2.025  18.381   6.337 -0.0337 -0.2356  0.1267
 3582POPC   C3A43507   1.934  18.542   5.904 -0.0599  0.1933 -0.0987
 3582POPC   C4A43508   1.954  18.765   5.506  0.1866  0.0381 -0.1274
 3582POPC   C1B43509   1.227  18.297   6.354  0.0849 -0.0204  0.0970
 3582POPC   C2B43510   1.078  18.054   5.950  0.1071  0.0196  0.1032
 3582POPC   C3B43511   0.719  18.006   5.627 -0.2171 -0.0371 -0.5732
 3582POPC   C4B43512   0.697  18.310   5.258  0.0105 -0.1414 -0.0356
 3583POPC   NC343513  13.382   0.991   7.170 -0.1612  0.1002 -0.1084
 3583POPC   PO443514  13.026   0.916   7.332 -0.0721 -0.2283  0.2467
 3583POPC   GL143515  13.057   0.747   6.979 -0.2919  0.0589 -0.1814
 3583POPC   GL243516  12.962   1.050   6.847  0.1219 -0.0618  0.0279
 3583POPC   C1A43517  13.420   0.821   6.688  0.0051 -0.1671  0.0319
 3583POPC   D2A43518  13.748   0.672   6.423  0.3388 -0.1486  0.2961
 3583POPC   C3A43519  13.710   0.632   6.005  0.2461 -0.0352 -0.0709
 3583POPC   C4A43520  13.500   0.400   5.629 -0.2261 -0.3085 -0.0627
 3583POPC   C1B43521  12.873   0.804   6.509  0.1494  0.1199  0.0726
 3583POPC   C2B43522  12.812   0.372   6.287 -0.0303 -0.0491 -0.0176
 3583POPC   C3B43523  13.024   0.160   5.903 -0.0965  0.0512  0.2972
 3583POPC   C4B43524  13.067   0.140   5.465 -0.2536 -0.1433 -0.0223
 3584POPC   NC343525   9.239  30.687   7.826 -0.1189  0.0747 -0.0837
 3584POPC   PO443526   9.548  30.457   7.807  0.0422 -0.1336  0.1665
 3584POPC   GL143527   9.713  30.547   7.416  0.1494  0.1676  0.0503
 3584POPC   GL243528   9.544  30.826   7.452 -0.2703  0.1406 -0.0642
 3584POPC   C1A43529   9.887  30.648   6.983 -0.2627 -0.0339 -0.0476
 3584POPC   D2A43530  10.141  30.946   6.761  0.4019  0.2186  0.0752
 3584POPC   C3A43531  10.045  31.099   6.317 -0.0739 -0.2749 -0.0610
 3584POPC   C4A43532   9.798  31.435   6.116 -0.0004  0.0806 -0.0689
 3584POPC   C1B43533   9.398  30.734   7.009  0.1040 -0.2748 -0.1626
 3584POPC   C2B43534   9.499  30.524   6.647  0.1604  0.0607 -0.1191
 3584POPC   C3B43535   9.392  30.429   6.235 -0.2491  0.0171  0.0115
 3584POPC   C4B43536   9.105  30.060   6.073  0.0225 -0.0678 -0.2805
 3585POPC   NC343537  23.911  25.878   7.561  0.0547 -0.0654 -0.2230
 3585POPC   PO443538  23.719  25.630   7.317 -0.1556 -0.0909 -0.2030
 3585POPC   GL143539  23.828  25.560   6.946  0.1089 -0.3620  0.3459
 3585POPC   GL243540  23.911  25.246   6.953 -0.0819 -0.5756  0.1983
 3585POPC   C1A43541  24.225  25.630   6.725 -0.3240 -0.0547  0.1880
 3585POPC   D2A43542  24.476  26.013   6.543 -0.2514  0.3850 -0.3290
 3585POPC   C3A43543  24.421  26.178   6.104  0.0808  0.0521 -0.0498
 3585POPC   C4A43544  24.230  26.325   5.725  0.0218  0.0748 -0.1339
 3585POPC   C1B43545  23.828  24.930   6.605  0.3019 -0.2211 -0.1279
 3585POPC   C2B43546  23.895  25.004   6.148 -0.4594  0.2237 -0.2684
 3585POPC   C3B43547  23.904  24.669   5.879 -0.3025  0.1545 -0.3819
 3585POPC   C4B43548  23.709  24.610   5.455 -0.1633 -0.1152 -0.0888
 3586POPC   NC343549  20.943  16.239   7.729 -0.0379 -0.1298  0.0444
 3586POPC   PO443550  20.839  16.001   7.414  0.1991 -0.2024  0.2204
 3586POPC   GL143551  20.970  15.979   6.996  0.3078 -0.3005  0.4393
 3586POPC   GL243552  21.029  16.224   6.937 -0.0265 -0.1177  0.0031
 3586POPC   C1A43553  21.328  15.767   6.841  0.0871  0.0615  0.1794
 3586POPC   D2A43554  21.625  15.801   6.480 -0.3186 -0.2891 -0.3874
 3586POPC   C3A43555  21.664  15.408   6.256  0.4411  0.2065  0.0069
 3586POPC   C4A43556  21.979  15.296   5.940  0.3728 -0.0144  0.0636
 3586POPC   C1B43557  21.030  16.047   6.523  0.0240 -0.4239  0.2513
 3586POPC   C2B43558  21.050  16.167   6.047 -0.1245  0.1819 -0.0399
 3586POPC   C3B43559  21.040  16.272   5.595 -0.3133  0.0115  0.1245
 3586POPC   C4B43560  21.187  16.038   5.289 -0.1696  0.0221 -0.2593
 3587POPC   NC343561  31.498  26.438   7.779  0.2661  0.0703  0.0618
 3587POPC   PO443562  31.872  26.531   7.835 -0.1814 -0.1461  0.0301
 3587POPC   GL143563  32.071  26.493   7.430 -0.1077  0.1225  0.3031
 3587POPC   GL243564  32.169  26.736   7.362 -0.0694  0.1167  0.1656
 3587POPC   C1A43565  31.966  26.427   7.033  0.1614  0.0508  0.0899
 3587POPC   D2A43566  31.805  26.086   6.766  0.0048  0.0101 -0.0255
 3587POPC   C3A43567  31.867  25.996   6.359 -0.0663  0.2713  0.1370
 3587POPC   C4A43568  32.112  25.956   5.951 -0.2872 -0.2187  0.1908
 3587POPC   C1B43569  32.389  26.797   6.979  0.0845  0.0124  0.1421
 3587POPC   C2B43570  32.183  26.789   6.522  0.0159 -0.0604 -0.2463
 3587POPC   C3B43571  31.873  26.775   6.181  0.0151  0.0130 -0.2400
 3587POPC   C4B43572  31.874  26.740   5.695 -0.1920 -0.5239 -0.1479
 3588POPC   NC343573   6.521  11.377   7.597 -0.1524  0.1356  0.2844
 3588POPC   PO443574   6.442  11.515   7.232 -0.0628 -0.2523 -0.2332
 3588POPC   GL143575   6.420  11.332   6.878  0.2959  0.2112 -0.0424
 3588POPC   GL243576   6.120  11.352   6.855 -0.1212  0.0414  0.0189
 3588POPC   C1A43577   6.594  11.117   6.536  0.2016 -0.1942  0.1625
 3588POPC   D2A43578   6.607  11.104   6.069  0.1517 -0.2199 -0.1480
 3588POPC   C3A43579   6.212  11.212   5.793 -0.0146 -0.1114 -0.4777
 3588POPC   C4A43580   5.976  11.141   5.387 -0.2734 -0.4403 -0.1512
 3588POPC   C1B43581   5.821  11.586   6.540  0.1674  0.2927  0.0223
 3588POPC   C2B43582   5.665  11.730   6.128 -0.1493 -0.0238 -0.0711
 3588POPC   C3B43583   5.299  11.996   5.923 -0.1578  0.2574  0.0324
 3588POPC   C4B43584   5.037  12.318   5.699  0.0444 -0.3119 -0.0855
 3589POPC   NC343585  28.224  19.075   7.292  0.1717 -0.2219  0.0204
 3589POPC   PO443586  28.555  18.908   7.366  0.2130 -0.2614 -0.2590
 3589POPC   GL143587  28.719  18.984   7.039  0.0223 -0.0830 -0.0081
 3589POPC   GL243588  29.002  18.983   7.133 -0.0368  0.2750  0.0264
 3589POPC   C1A43589  28.710  18.911   6.616  0.0821  0.1729  0.2518
 3589POPC   D2A43590  28.599  18.603   6.361 -0.0886  0.3077  0.0501
 3589POPC   C3A43591  28.718  18.506   5.960  0.0561  0.0912  0.1658
 3589POPC   C4A43592  28.941  18.436   5.574 -0.0589  0.0411 -0.2595
 3589POPC   C1B43593  29.005  19.223   6.756  0.0119 -0.2644  0.0230
 3589POPC   C2B43594  29.269  19.353   6.391  0.1594 -0.0130  0.2333
 3589POPC   C3B43595  29.147  19.458   5.974  0.1138  0.0433 -0.2250
 3589POPC   C4B43596  28.959  19.684   5.648 -0.2695 -0.2884 -0.0276
 3590POPC   NC343597  29.079  18.598   6.864 -0.0375  0.0639  0.0811
 3590POPC   PO443598  28.803  18.507   7.109 -0.1663 -0.1161  0.0084
 3590POPC   GL143599  28.678  18.188   6.914 -0.0645  0.2315 -0.1970
 3590POPC   GL243600  28.416  18.272   6.710 -0.3740 -0.0495 -0.0512
 3590POPC   C1A43601  28.897  18.208   6.564 -0.1072  0.0425  0.3171
 3590POPC   D2A43602  29.255  18.155   6.335 -0.1689 -0.3737 -0.0612
 3590POPC   C3A43603  29.116  18.111   5.910 -0.3351 -0.0117 -0.2351
 3590POPC   C4A43604  28.826  17.975   5.519 -0.0767  0.2011 -0.2191
 3590POPC   C1B43605  28.557  18.047   6.283 -0.0162 -0.2037  0.0323
 3590POPC   C2B43606  28.480  17.873   5.892 -0.0580  0.0731 -0.0091
 3590POPC   C3B43607  28.038  17.901   5.756  0.1124  0.2435 -0.0317
 3590POPC   C4B43608  27.595  17.816   5.592  0.3108 -0.0244 -0.1110
 3591POPC   NC343609   5.144  30.317   7.908  0.0579  0.0565  0.2175
 3591POPC   PO443610   5.267  30.575   7.615 -0.1074  0.4565 -0.0583
 3591POPC   GL143611   5.257  30.400   7.284 -0.0264  0.2252 -0.2625
 3591POPC   GL243612   5.046  30.209   7.181 -0.1956  0.3164 -0.2548
 3591POPC   C1A43613   5.519  30.265   6.928 -0.1010 -0.2439  0.1127
 3591POPC   D2A43614   5.866  30.303   6.608  0.1675 -0.1451 -0.4372
 3591POPC   C3A43615   5.636  30.283   6.199 -0.1043  0.0807  0.1306
 3591POPC   C4A43616   5.705  30.360   5.728  0.0068 -0.0931 -0.0026
 3591POPC   C1B43617   5.043  30.196   6.742  0.0349  0.0192  0.2160
 3591POPC   C2B43618   4.798  30.182   6.367 -0.1107  0.1724 -0.1512
 3591POPC   C3B43619   4.589  30.021   6.033 -0.0360 -0.1786  0.1081
 3591POPC   C4B43620   4.324  30.197   5.703  0.1330  0.0853 -0.2655
 3592POPC   NC343621  27.427   6.253   7.578 -0.1604 -0.0440  0.3904
 3592POPC   PO443622  27.627   6.555   7.722 -0.2024  0.0363  0.0349
 3592POPC   GL143623  27.709   6.763   7.386  0.1933  0.0502 -0.4519
 3592POPC   GL243624  27.594   6.540   7.178 -0.1387 -0.1912 -0.0011
 3592POPC   C1A43625  27.923   7.094   7.201  0.1851  0.0962 -0.0564
 3592POPC   D2A43626  28.002   7.161   6.744  0.1123  0.0085 -0.1917
 3592POPC   C3A43627  27.922   6.986   6.309  0.0407  0.0178  0.0145
 3592POPC   C4A43628  27.558   6.894   6.060 -0.1164  0.2250 -0.3218
 3592POPC   C1B43629  27.360   6.502   6.848  0.0094 -0.1045 -0.0186
 3592POPC   C2B43630  27.351   6.539   6.392 -0.3405 -0.2953 -0.1295
 3592POPC   C3B43631  27.105   6.647   6.020  0.1894  0.0036 -0.3852
 3592POPC   C4B43632  26.641   6.853   6.027  0.0490  0.3125 -0.0905
 3593POPC   NC343633   8.646  10.758   7.962  0.3923 -0.0895  0.2029
 3593POPC   PO443634   8.443  10.639   7.687 -0.1304 -0.1357  0.2321
 3593POPC   GL143635   8.298  10.679   7.428  0.3082 -0.0399  0.1507
 3593POPC   GL243636   8.243  10.956   7.322  0.0514  0.2477  0.0949
 3593POPC   C1A43637   8.190  10.364   7.065  0.1467  0.0472  0.2032
 3593POPC   D2A43638   8.215  10.274   6.591  0.1018 -0.0689  0.0453
 3593POPC   C3A43639   8.322  10.090   6.213 -0.0104 -0.2979  0.1781
 3593POPC   C4A43640   8.549  10.122   5.738 -0.4385  0.0109 -0.1603
 3593POPC   C1B43641   8.472  10.844   6.933 -0.1622  0.1387 -0.0077
 3593POPC   C2B43642   8.474  10.686   6.490 -0.1201 -0.0704  0.3216
 3593POPC   C3B43643   8.477  10.643   5.966 -0.0932  0.0259 -0.2535
 3593POPC   C4B43644   8.346  10.482   5.519 -0.0094 -0.1649 -0.1085
 3594POPC   NC343645   3.748  16.633   7.435 -0.2792 -0.0825 -0.1409
 3594POPC   PO443646   3.537  16.342   7.598  0.0763  0.0879 -0.1406
 3594POPC   GL143647   3.651  16.256   7.172  0.1641  0.1433  0.0544
 3594POPC   GL243648   3.450  16.349   7.091 -0.0265  0.1464 -0.3122
 3594POPC   C1A43649   3.669  16.194   6.683 -0.2571  0.1276 -0.0266
 3594POPC   D2A43650   3.539  15.961   6.259 -0.1716  0.0264  0.0819
 3594POPC   C3A43651   3.832  15.713   6.097 -0.1367 -0.2755 -0.1942
 3594POPC   C4A43652   3.982  15.391   5.841  0.0877 -0.3239  0.1001
 3594POPC   C1B43653   3.243  16.745   6.862 -0.0175 -0.1905 -0.0196
 3594POPC   C2B43654   3.110  16.852   6.408  0.0076  0.2818  0.1101
 3594POPC   C3B43655   3.067  16.816   5.862  0.1219 -0.1866 -0.2382
 3594POPC   C4B43656   3.041  16.446   5.566 -0.0281 -0.1290 -0.2953
 3595POPC   NC343657   9.011  16.290   7.647 -0.1014  0.0237  0.0902
 3595POPC   PO443658   8.706  16.541   7.542  0.1058 -0.0661 -0.1392
 3595POPC   GL143659   8.730  16.294   7.237 -0.2422 -0.1475 -0.0183
 3595POPC   GL243660   9.050  16.367   7.100 -0.0169 -0.3389  0.3284
 3595POPC   C1A43661   8.530  16.166   6.866 -0.0411  0.1810  0.0839
 3595POPC   D2A43662   8.452  15.758   6.594 -0.0603 -0.3318 -0.2018
 3595POPC   C3A43663   8.290  16.061   6.263 -0.0802  0.2945 -0.2238
 3595POPC   C4A43664   7.938  16.259   6.000 -0.0919 -0.0482 -0.3875
 3595POPC   C1B43665   9.246  16.420   6.721 -0.3299 -0.1999 -0.2457
 3595POPC   C2B43666   9.393  16.299   6.344 -0.2730 -0.1021  0.0467
 3595POPC   C3B43667   9.558  16.535   6.005 -0.3052 -0.0538 -0.1521
 3595POPC   C4B43668   9.306  16.755   5.749  0.1992  0.0516  0.0074
 3596POPC   NC343669  28.429   0.370   8.390 -0.0842 -0.3615 -0.3847
 3596POPC   PO443670  28.644   0.161   8.164  0.0331  0.0398 -0.1348
 3596POPC   GL143671  28.821   0.145   7.787 -0.1770 -0.0989 -0.1340
 3596POPC   GL243672  28.901   0.455   7.719 -0.1743 -0.0789  0.0224
 3596POPC   C1A43673  29.012   0.124   7.366  0.4039 -0.1306 -0.1908
 3596POPC   D2A43674  29.063  -0.174   7.006  0.0575 -0.0018  0.0376
 3596POPC   C3A43675  29.295  -0.565   7.013  0.0464  0.2396 -0.0566
 3596POPC   C4A43676  29.515  -0.864   6.718  0.0381  0.0815  0.0529
 3596POPC   C1B43677  28.548   0.387   7.415  0.1272 -0.1196  0.2767
 3596POPC   C2B43678  28.667   0.482   6.949 -0.0920  0.1769  0.4234
 3596POPC   C3B43679  28.782   0.799   6.684  0.1217  0.2116  0.0948
 3596POPC   C4B43680  28.922   1.001   6.310  0.1519  0.0327 -0.0138
 3597POPC   NC343681   5.528   2.655   8.385 -0.0029 -0.1013  0.2237
 3597POPC   PO443682   5.422   2.723   7.999 -0.2359  0.0693 -0.0278
 3597POPC   GL143683   5.280   2.642   7.623  0.1902  0.1070  0.1422
 3597POPC   GL243684   5.297   2.426   7.377 -0.0607  0.1970 -0.3100
 3597POPC   C1A43685   5.008   2.891   7.243 -0.0628 -0.1226  0.1692
 3597POPC   D2A43686   4.749   2.932   6.865  0.1522 -0.0481 -0.2246
 3597POPC   C3A43687   4.559   3.217   6.435  0.4036 -0.1232  0.3462
 3597POPC   C4A43688   4.787   3.590   6.223 -0.1689 -0.5110  0.2933
 3597POPC   C1B43689   5.061   2.114   7.126 -0.2873 -0.0864 -0.1248
 3597POPC   C2B43690   5.005   1.898   6.693  0.0396  0.2566  0.1023
 3597POPC   C3B43691   4.992   1.749   6.257  0.0443 -0.4098  0.0088
 3597POPC   C4B43692   4.758   1.622   5.889 -0.0049 -0.0298 -0.5772
 3598POPC   NC343693  22.998  27.033   7.990  0.3251  0.2902  0.0812
 3598POPC   PO443694  22.800  26.765   7.834  0.0418  0.5272 -0.0971
 3598POPC   GL143695  23.062  26.902   7.508  0.0471 -0.1452  0.4092
 3598POPC   GL243696  22.947  27.255   7.525  0.0722  0.1540 -0.0140
 3598POPC   C1A43697  23.234  27.091   7.129 -0.3340 -0.0090 -0.2661
 3598POPC   D2A43698  23.292  27.428   6.828  0.2470  0.3184 -0.0398
 3598POPC   C3A43699  23.557  27.648   6.514  0.0384 -0.0151 -0.0653
 3598POPC   C4A43700  23.815  27.314   6.204 -0.0144 -0.0291 -0.1635
 3598POPC   C1B43701  23.032  27.651   7.290  0.0735 -0.3082  0.0964
 3598POPC   C2B43702  22.932  27.740   6.835 -0.2446  0.0031 -0.2363
 3598POPC   C3B43703  23.040  27.747   6.389 -0.0201 -0.0146 -0.0233
 3598POPC   C4B43704  22.889  27.738   5.916  0.0482 -0.0780 -0.0848
 3599POPC   NC343705  15.551  27.142   7.480  0.2379  0.0069  0.0099
 3599POPC   PO443706  15.948  27.103   7.500  0.0112  0.2143  0.0033
 3599POPC   GL143707  16.060  27.146   7.177  0.3389 -0.1395  0.0702
 3599POPC   GL243708  15.887  27.052   6.959 -0.0966 -0.0252  0.3517
 3599POPC   C1A43709  16.353  27.434   6.943  0.0371  0.1775  0.2153
 3599POPC   D2A43710  16.406  27.612   6.541  0.1581  0.1613  0.0192
 3599POPC   C3A43711  16.325  27.424   6.158  0.1630 -0.2299 -0.1836
 3599POPC   C4A43712  16.406  27.022   5.968 -0.0118  0.0503  0.3452
 3599POPC   C1B43713  15.602  26.991   6.571 -0.1123 -0.1445 -0.0250
 3599POPC   C2B43714  15.478  27.096   6.153  0.1415  0.0225  0.2654
 3599POPC   C3B43715  15.216  27.365   5.849 -0.2563  0.0118 -0.2407
 3599POPC   C4B43716  14.953  27.470   5.456  0.0111  0.3113  0.4326
 3600POPC   NC343717  14.717  12.808   7.485 -0.1133  0.1409  0.0511
 3600POPC   PO443718  14.420  12.578   7.672 -0.1877 -0.1982  0.0044
 3600POPC   GL143719  14.120  12.453   7.330 -0.0092  0.1940  0.0098
 3600POPC   GL243720  14.220  12.195   7.362 -0.2623  0.3090  0.0308
 3600POPC   C1A43721  13.760  12.409   7.025 -0.2150 -0.2892 -0.0066
 3600POPC   D2A43722  13.447  12.294   6.615  0.0238  0.0685  0.0578
 3600POPC   C3A43723  13.635  12.247   6.223 -0.3094 -0.1010 -0.1164
 3600POPC   C4A43724  14.074  12.284   6.034  0.0737  0.1346  0.0320
 3600POPC   C1B43725  14.347  12.321   6.931  0.0787  0.1970  0.2081
 3600POPC   C2B43726  14.438  12.390   6.449  0.1264 -0.3236 -0.3386
 3600POPC   C3B43727  14.563  12.269   6.028 -0.1555  0.0627  0.2572
 3600POPC   C4B43728  14.610  12.455   5.643  0.3167 -0.1775 -0.1964
 3601POPC   NC343729  14.159  29.349   7.561 -0.1985  0.2012 -0.2283
 3601POPC   PO443730  14.147  29.038   7.798  0.1059  0.0654  0.1090
 3601POPC   GL143731  14.141  28.920   7.419  0.1373 -0.2498 -0.0831
 3601POPC   GL243732  14.403  28.865   7.362 -0.1769 -0.0558  0.3248
 3601POPC   C1A43733  14.028  29.231   7.058  0.0638 -0.1276 -0.2630
 3601POPC   D2A43734  13.690  29.392   6.855 -0.2431  0.1826 -0.0208
 3601POPC   C3A43735  13.779  29.413   6.387  0.1912  0.0722 -0.1356
 3601POPC   C4A43736  13.939  29.137   6.017  0.0227 -0.1532  0.3394
 3601POPC   C1B43737  14.320  28.829   6.956 -0.1394  0.1881 -0.0457
 3601POPC   C2B43738  14.342  28.684   6.531 -0.3772 -0.2378 -0.1108
 3601POPC   C3B43739  14.272  28.616   6.035  0.0210  0.0843 -0.2780
 3601POPC   C4B43740  14.549  28.698   5.648 -0.1387  0.2616 -0.0565
 3602POPC   NC343741  16.067  17.538   7.959  0.0700 -0.5103  0.1320
 3602POPC   PO443742  15.968  17.922   7.993  0.0719  0.1070 -0.2044
 3602POPC   GL143743  15.758  17.809   7.743  0.1248 -0.4939 -0.0869
 3602POPC   GL243744  15.892  18.038   7.515 -0.2961 -0.2217  0.1652
 3602POPC   C1A43745  15.622  17.595   7.371  0.0844 -0.0264  0.1639
 3602POPC   D2A43746  15.490  17.493   6.957 -0.0160 -0.4764  0.3163
 3602POPC   C3A43747  15.664  17.756   6.611 -0.1587  0.0698 -0.2618
 3602POPC   C4A43748  15.920  17.885   6.213 -0.1259  0.0086  0.0373
 3602POPC   C1B43749  15.952  17.871   7.081  0.1606  0.0176 -0.0159
 3602POPC   C2B43750  16.022  18.116   6.674 -0.4150 -0.3782  0.1906
 3602POPC   C3B43751  15.798  18.368   6.426  0.0408 -0.1239 -0.2372
 3602POPC   C4B43752  15.406  18.509   6.331 -0.1468 -0.3867  0.0233
 3603POPC   NC343753   2.885  14.646   7.971 -0.2528  0.0343 -0.1776
 3603POPC   PO443754   2.994  14.983   7.937 -0.1613 -0.2604  0.0255
 3603POPC   GL143755   3.115  15.000   7.538 -0.0155 -0.2454  0.2952
 3603POPC   GL243756   3.355  14.853   7.544  0.1963 -0.0411 -0.2191
 3603POPC   C1A43757   3.191  15.017   7.042  0.1157 -0.1167  0.2339
 3603POPC   D2A43758   3.292  14.846   6.605  0.1750 -0.1329 -0.1672
 3603POPC   C3A43759   3.050  15.016   6.172 -0.1454 -0.3280  0.2427
 3603POPC   C4A43760   2.753  14.802   6.015 -0.3886 -0.1134 -0.1831
 3603POPC   C1B43761   3.826  14.927   7.394  0.2606  0.4385 -0.0005
 3603POPC   C2B43762   4.098  15.031   7.039 -0.0869 -0.3171  0.0098
 3603POPC   C3B43763   4.050  15.284   6.679 -0.0415 -0.0332 -0.0814
 3603POPC   C4B43764   4.175  15.392   6.303 -0.0980 -0.0051 -0.0664
 3604POPC   NC343765  27.419  16.509   7.630  0.0677 -0.1263  0.1230
 3604POPC   PO443766  27.100  16.303   7.640  0.2431 -0.0335  0.2043
 3604POPC   GL143767  26.861  16.220   7.388  0.1519 -0.2371  0.0130
 3604POPC   GL243768  26.830  15.875   7.302 -0.1734  0.2809 -0.0658
 3604POPC   C1A43769  26.611  16.287   7.015  0.0410  0.0166  0.1550
 3604POPC   D2A43770  26.477  16.620   6.782  0.0179  0.1703  0.0077
 3604POPC   C3A43771  26.069  16.488   6.595  0.0955 -0.4534 -0.1217
 3604POPC   C4A43772  25.682  16.445   6.388 -0.0371  0.2649 -0.0759
 3604POPC   C1B43773  26.607  15.674   6.955 -0.1815 -0.0006  0.2048
 3604POPC   C2B43774  26.462  15.574   6.481 -0.0040  0.0568 -0.0059
 3604POPC   C3B43775  26.413  15.602   6.027 -0.3645  0.4192  0.3258
 3604POPC   C4B43776  26.150  15.583   5.742  0.0390 -0.0708 -0.2393
 3605POPC   NC343777  29.265   2.888   7.784 -0.2152 -0.0227 -0.1431
 3605POPC   PO443778  28.944   2.742   7.685  0.1370  0.1003  0.1929
 3605POPC   GL143779  29.097   2.878   7.332  0.2305  0.2710  0.1592
 3605POPC   GL243780  28.997   2.664   7.155 -0.0831 -0.0872  0.2068
 3605POPC   C1A43781  28.939   3.154   6.974 -0.1003  0.0450 -0.0293
 3605POPC   D2A43782  28.580   3.327   6.704 -0.0200 -0.0473  0.3934
 3605POPC   C3A43783  28.261   3.315   6.299 -0.1701 -0.1321 -0.3294
 3605POPC   C4A43784  27.910   3.388   6.009 -0.5557  0.0024  0.1588
 3605POPC   C1B43785  28.767   2.706   6.719  0.1827  0.1303  0.1105
 3605POPC   C2B43786  28.680   2.950   6.346 -0.4051  0.0797 -0.0846
 3605POPC   C3B43787  28.754   3.348   6.100  0.1051  0.0031  0.1738
 3605POPC   C4B43788  28.767   3.589   5.663  0.1125 -0.0185 -0.0671
 3606POPC   NC343789  18.280  19.027   8.317  0.0161  0.1823 -0.3110
 3606POPC   PO443790  18.217  19.182   7.963 -0.1173  0.0645  0.2299
 3606POPC   GL143791  18.287  19.255   7.578  0.1997  0.3362 -0.0094
 3606POPC   GL243792  18.005  19.245   7.513  0.0572 -0.0015 -0.3273
 3606POPC   C1A43793  18.469  19.347   7.178  0.0746  0.0063 -0.0385
 3606POPC   D2A43794  18.751  19.560   6.857  0.2918  0.0928  0.2949
 3606POPC   C3A43795  18.733  19.468   6.464 -0.0898 -0.1762  0.0187
 3606POPC   C4A43796  18.793  19.111   6.130 -0.0781  0.4933  0.1156
 3606POPC   C1B43797  17.806  19.318   7.057 -0.3350 -0.1080  0.0231
 3606POPC   C2B43798  17.528  19.350   6.704 -0.1400 -0.0815 -0.0407
 3606POPC   C3B43799  17.238  19.604   6.473 -0.3463  0.0535  0.0186
 3606POPC   C4B43800  16.942  19.732   6.145 -0.3187  0.1566  0.2050
 3607POPC   NC343801  29.729  29.713   7.757  0.0421 -0.3555  0.1293
 3607POPC   PO443802  29.450  29.444   7.742 -0.0351  0.2504  0.0255
 3607POPC   GL143803  29.490  29.407   7.353  0.1801 -0.2008 -0.2924
 3607POPC   GL243804  29.698  29.509   7.278 -0.1174 -0.2710  0.1539
 3607POPC   C1A43805  29.362  29.530   6.888  0.1248 -0.3008  0.1949
 3607POPC   D2A43806  29.510  29.761   6.467 -0.2353  0.1224 -0.0016
 3607POPC   C3A43807  29.471  29.655   6.036 -0.1261 -0.0226  0.2792
 3607POPC   C4A43808  29.380  29.450   5.662 -0.2545 -0.0945 -0.0582
 3607POPC   C1B43809  29.776  29.294   6.861 -0.0081 -0.0096  0.0721
 3607POPC   C2B43810  29.659  29.249   6.383 -0.1126 -0.0062 -0.0537
 3607POPC   C3B43811  29.349  29.088   6.131  0.1894 -0.2609  0.0514
 3607POPC   C4B43812  28.936  28.989   6.022 -0.0015  0.1254 -0.1297
 3608POPC   NC343813   4.454   3.446   7.998  0.1014  0.0064  0.1173
 3608POPC   PO443814   4.749   3.284   8.213  0.2117 -0.0054 -0.1385
 3608POPC   GL143815   4.634   2.966   7.969  0.2191 -0.1268  0.0052
 3608POPC   GL243816   4.337   2.959   7.910 -0.2502 -0.2248  0.2382
 3608POPC   C1A43817   4.677   2.776   7.504  0.0601  0.0926 -0.1220
 3608POPC   D2A43818   4.663   2.422   7.156 -0.0137 -0.1349 -0.0367
 3608POPC   C3A43819   4.816   2.380   6.720  0.4212 -0.0511 -0.1367
 3608POPC   C4A43820   4.794   2.214   6.294  0.1499 -0.0917 -0.1009
 3608POPC   C1B43821   4.254   3.169   7.510 -0.0491  0.0233  0.0831
 3608POPC   C2B43822   4.308   3.189   7.043 -0.1189  0.0587  0.0300
 3608POPC   C3B43823   4.277   3.554   6.736 -0.0769 -0.2959  0.0037
 3608POPC   C4B43824   4.083   3.900   6.544  0.1507  0.0211 -0.0357
 3609POPC   NC343825  24.259  11.259   8.284  0.0079 -0.1973 -0.1417
 3609POPC   PO443826  24.115  11.313   7.954 -0.0515  0.1126  0.1103
 3609POPC   GL143827  24.036  11.487   7.661  0.1227  0.0981  0.0907
 3609POPC   GL243828  23.734  11.419   7.533  0.1547 -0.0573 -0.1343
 3609POPC   C1A43829  24.058  11.515   7.168  0.1116  0.0286  0.2693
 3609POPC   D2A43830  24.093  11.859   6.868  0.0663  0.1724  0.1566
 3609POPC   C3A43831  24.544  11.737   6.717 -0.0933 -0.1482 -0.0419
 3609POPC   C4A43832  25.005  11.881   6.522  0.2472 -0.0988  0.0168
 3609POPC   C1B43833  23.643  11.145   7.205  0.0135 -0.1450  0.2082
 3609POPC   C2B43834  23.399  10.765   7.088 -0.2800 -0.0966  0.1886
 3609POPC   C3B43835  23.267  10.521   6.775  0.3803  0.1617  0.1754
 3609POPC   C4B43836  23.011  10.385   6.474  0.0699  0.2140  0.0834
 3610POPC   NC343837   1.234  24.279   7.871  0.1291  0.2895 -0.3229
 3610POPC   PO443838   1.401  24.581   7.774 -0.2900  0.0861 -0.0538
 3610POPC   GL143839   1.327  24.473   7.346  0.1953 -0.0621 -0.1553
 3610POPC   GL243840   1.374  24.246   7.352 -0.2440  0.1082  0.0249
 3610POPC   C1A43841   1.084  24.457   6.957 -0.0885  0.0549 -0.0874
 3610POPC   D2A43842   1.067  24.726   6.593  0.1127  0.0612  0.0469
 3610POPC   C3A43843   1.219  25.163   6.691  0.0832  0.2460  0.2080
 3610POPC   C4A43844   1.473  25.239   7.031  0.2326  0.2509 -0.1537
 3610POPC   C1B43845   1.574  24.127   6.964  0.3231  0.1555  0.1618
 3610POPC   C2B43846   1.564  23.743   6.616  0.2397  0.1003 -0.0414
 3610POPC   C3B43847   1.467  23.459   6.267 -0.1356  0.1030 -0.0132
 3610POPC   C4B43848   1.585  23.254   5.897 -0.1155  0.0325  0.3207
 3611POPC   NC343849   5.934  30.963   8.085 -0.1054  0.1935 -0.0988
 3611POPC   PO443850   6.163  30.815   7.790  0.1796 -0.0916 -0.1095
 3611POPC   GL143851   6.309  30.880   7.419 -0.0481  0.2204  0.1809
 3611POPC   GL243852   6.122  30.972   7.131  0.1017 -0.0449  0.1295
 3611POPC   C1A43853   6.512  31.259   7.271  0.2575 -0.0666 -0.0475
 3611POPC   D2A43854   6.525  31.704   7.152 -0.0583 -0.1297  0.2908
 3611POPC   C3A43855   6.681  32.095   6.875  0.0942  0.1072 -0.3000
 3611POPC   C4A43856   6.876  32.469   6.859 -0.0212  0.0718 -0.1709
 3611POPC   C1B43857   6.241  30.967   6.710 -0.0472  0.1937  0.1709
 3611POPC   C2B43858   6.534  31.175   6.434 -0.0272 -0.3042  0.3127
 3611POPC   C3B43859   6.499  31.192   5.986 -0.2814 -0.1418 -0.0596
 3611POPC   C4B43860   6.200  31.248   5.711 -0.1914  0.0715  0.0189
 3612POPC   NC343861   2.347  22.014   7.463 -0.0378  0.2930  0.1941
 3612POPC   PO443862   2.503  21.687   7.580 -0.1828 -0.0249 -0.1162
 3612POPC   GL143863   2.704  21.475   7.272 -0.0242  0.1166 -0.0197
 3612POPC   GL243864   2.458  21.418   7.100 -0.0288 -0.2571 -0.1301
 3612POPC   C1A43865   2.936  21.405   6.882 -0.0460 -0.0705  0.0853
 3612POPC   D2A43866   3.097  21.255   6.476 -0.2082  0.1676 -0.0770
 3612POPC   C3A43867   3.162  20.916   6.215  0.1876  0.1621  0.0120
 3612POPC   C4A43868   3.106  20.512   5.997 -0.2309 -0.2090  0.3178
 3612POPC   C1B43869   2.266  21.485   6.671 -0.0104  0.0198  0.0077
 3612POPC   C2B43870   2.384  21.634   6.278 -0.2327  0.3181  0.2339
 3612POPC   C3B43871   2.507  21.702   5.847  0.1943 -0.0265 -0.2067
 3612POPC   C4B43872   2.655  21.849   5.470 -0.2278  0.0608 -0.1440
 3613POPC   NC343873  28.870  10.916   8.007 -0.1369  0.1795 -0.1381
 3613POPC   PO443874  28.668  11.240   7.868  0.3409 -0.0621  0.0893
 3613POPC   GL143875  28.772  11.052   7.536 -0.2783 -0.1505 -0.0179
 3613POPC   GL243876  28.815  11.159   7.249 -0.0079  0.0806 -0.0283
 3613POPC   C1A43877  28.580  10.711   7.277 -0.1736 -0.0201 -0.1936
 3613POPC   D2A43878  28.670  10.369   6.901  0.0465 -0.3085 -0.0211
 3613POPC   C3A43879  28.912  10.022   6.733  0.3601  0.0172  0.0176
 3613POPC   C4A43880  28.911   9.638   6.520 -0.3749  0.2988  0.0188
 3613POPC   C1B43881  28.828  10.866   6.884  0.1826  0.0644 -0.0086
 3613POPC   C2B43882  28.710  10.886   6.440  0.2076  0.0655 -0.1410
 3613POPC   C3B43883  28.461  11.128   6.082 -0.1080 -0.1871  0.1403
 3613POPC   C4B43884  28.386  11.370   5.685 -0.1367  0.3785 -0.0394
 3614POPC   NC343885  11.040   9.272   7.685  0.1177  0.4109  0.3326
 3614POPC   PO443886  11.011   8.880   7.624 -0.0613  0.0549  0.0871
 3614POPC   GL143887  10.760   8.947   7.378 -0.0437  0.6674  0.2974
 3614POPC   GL243888  10.745   9.174   7.236  0.1690 -0.0439  0.2025
 3614POPC   C1A43889  10.414   8.884   7.058 -0.0667  0.0591  0.2765
 3614POPC   D2A43890  10.292   8.948   6.587 -0.1477 -0.1982 -0.2324
 3614POPC   C3A43891  10.327   8.939   6.080  0.0650  0.0182  0.1081
 3614POPC   C4A43892  10.319   8.936   5.647 -0.2649 -0.0564 -0.1724
 3614POPC   C1B43893  10.857   9.184   6.778  0.1585  0.1360  0.1344
 3614POPC   C2B43894  10.955   9.473   6.394  0.1715 -0.1376 -0.1002
 3614POPC   C3B43895  10.677   9.888   6.244 -0.3734  0.0725 -0.2380
 3614POPC   C4B43896  10.357  10.214   6.175 -0.1378  0.0765  0.2641
 3615POPC   NC343897  11.717   3.704   7.305  0.1640 -0.0197  0.1121
 3615POPC   PO443898  12.039   3.959   7.247  0.0031 -0.1593  0.1306
 3615POPC   GL143899  12.097   4.062   6.901  0.2371  0.2219  0.4902
 3615POPC   GL243900  11.878   3.934   6.800 -0.0580 -0.2271 -0.0664
 3615POPC   C1A43901  12.087   4.176   6.451  0.3348  0.2494  0.2677
 3615POPC   D2A43902  12.054   4.058   5.969  0.0100  0.1022 -0.0706
 3615POPC   C3A43903  12.264   4.326   5.720 -0.1530 -0.3355 -0.1690
 3615POPC   C4A43904  12.296   4.428   5.323  0.2908  0.2100  0.2261
 3615POPC   C1B43905  11.610   4.000   6.404 -0.0728 -0.0734 -0.0750
 3615POPC   C2B43906  11.593   4.164   5.961  0.3093  0.0804 -0.2259
 3615POPC   C3B43907  11.822   4.391   5.555  0.0746 -0.3119 -0.0252
 3615POPC   C4B43908  11.876   4.907   5.576  0.3049  0.0916 -0.3542
 3616POPC   NC343909  30.156  16.635   7.265 -0.1218 -0.2181 -0.1290
 3616POPC   PO443910  30.487  16.740   7.430  0.2457  0.3376  0.2854
 3616POPC   GL143911  30.717  16.698   7.170  0.2689  0.0755 -0.1252
 3616POPC   GL243912  30.591  16.934   6.988 -0.2179 -0.1515 -0.0602
 3616POPC   C1A43913  30.826  16.540   6.759  0.0260  0.0066 -0.1802
 3616POPC   D2A43914  30.941  16.514   6.313 -0.0017  0.1903  0.1341
 3616POPC   C3A43915  31.230  16.765   6.000 -0.0118 -0.1570  0.0702
 3616POPC   C4A43916  31.258  17.212   5.946  0.1306 -0.2714 -0.0404
 3616POPC   C1B43917  30.854  17.106   6.681 -0.0272  0.0564  0.0671
 3616POPC   C2B43918  30.837  16.970   6.294  0.0616  0.2120 -0.0185
 3616POPC   C3B43919  30.807  16.916   5.807  0.1844  0.0262 -0.3595
 3616POPC   C4B43920  31.124  16.778   5.513  0.1190  0.4257 -0.1385
 3617POPC   NC343921  28.678   3.059   7.392 -0.2487 -0.2114  0.0497
 3617POPC   PO443922  28.471   3.184   7.705  0.0420  0.0021 -0.1917
 3617POPC   GL143923  28.137   3.334   7.526 -0.0607  0.2253 -0.0393
 3617POPC   GL243924  28.102   3.603   7.379  0.1277 -0.2875 -0.0892
 3617POPC   C1A43925  27.808   3.154   7.231 -0.0903 -0.2811  0.0140
 3617POPC   D2A43926  27.832   2.801   6.978 -0.4037 -0.0016  0.0235
 3617POPC   C3A43927  27.764   2.625   6.558 -0.0467  0.1350  0.1658
 3617POPC   C4A43928  27.479   2.266   6.321 -0.2134 -0.0960  0.3994
 3617POPC   C1B43929  27.944   3.806   6.987  0.2922 -0.1545 -0.0718
 3617POPC   C2B43930  27.956   3.823   6.527  0.2483 -0.0778  0.1036
 3617POPC   C3B43931  27.801   3.860   6.085 -0.1805 -0.2917 -0.3403
 3617POPC   C4B43932  27.472   4.059   5.879  0.3784 -0.1226 -0.1432
 3618POPC   NC343933  29.825   4.269   7.455 -0.0920  0.0477  0.1725
 3618POPC   PO443934  29.455   4.317   7.479 -0.0250  0.1487 -0.0031
 3618POPC   GL143935  29.474   4.265   7.131 -0.1500  0.1718  0.3221
 3618POPC   GL243936  29.632   4.444   6.933  0.1841  0.1559 -0.2276
 3618POPC   C1A43937  29.290   4.037   6.789 -0.0298  0.0851  0.0919
 3618POPC   D2A43938  29.535   3.791   6.455 -0.0928 -0.1001 -0.1398
 3618POPC   C3A43939  29.659   3.724   6.021 -0.1188  0.0306 -0.0858
 3618POPC   C4A43940  29.659   3.881   5.614 -0.0630  0.0817 -0.0949
 3618POPC   C1B43941  29.689   4.329   6.511 -0.0042  0.0857 -0.1754
 3618POPC   C2B43942  29.423   4.162   6.168  0.1749 -0.2491 -0.3876
 3618POPC   C3B43943  29.023   4.400   6.017 -0.1355  0.0961  0.1038
 3618POPC   C4B43944  28.885   4.432   5.529  0.0836  0.2233  0.0106
 3619POPC   NC343945  24.543   4.083   7.975 -0.0288  0.2002  0.4450
 3619POPC   PO443946  24.620   4.331   7.613 -0.0758  0.0213 -0.4220
 3619POPC   GL143947  24.776   4.183   7.263 -0.5719 -0.1373 -0.3427
 3619POPC   GL243948  25.043   4.115   7.205 -0.3318  0.0139  0.1117
 3619POPC   C1A43949  24.926   4.526   6.948 -0.1357 -0.0111 -0.0145
 3619POPC   D2A43950  25.039   4.671   6.567  0.0893 -0.0836 -0.0806
 3619POPC   C3A43951  24.803   4.628   6.141 -0.0938 -0.0213  0.1388
 3619POPC   C4A43952  24.737   4.295   5.824 -0.1042  0.0113  0.0836
 3619POPC   C1B43953  25.014   3.863   6.838  0.2557  0.1223 -0.0077
 3619POPC   C2B43954  25.222   3.778   6.448 -0.0269 -0.0911  0.0087
 3619POPC   C3B43955  25.215   3.606   5.978  0.2305  0.3017 -0.2206
 3619POPC   C4B43956  25.215   3.358   5.639  0.2860  0.0648  0.0797
 3620POPC   NC343957  15.333  30.603   7.423 -0.0123 -0.0058 -0.1374
 3620POPC   PO443958  15.277  30.952   7.652  0.1674  0.0946  0.3565
 3620POPC   GL143959  14.906  30.954   7.401  0.4265  0.0300 -0.0674
 3620POPC   GL243960  14.735  30.752   7.535  0.1636 -0.0466 -0.3354
 3620POPC   C1A43961  14.774  31.127   7.013  0.1114 -0.0363  0.1994
 3620POPC   D2A43962  14.778  31.198   6.530  0.0362  0.0369  0.0117
 3620POPC   C3A43963  15.113  31.214   6.213 -0.0974  0.0671  0.1143
 3620POPC   C4A43964  15.298  31.287   5.810 -0.2822 -0.0790  0.2196
 3620POPC   C1B43965  14.913  30.615   7.092 -0.5230  0.4827  0.0299
 3620POPC   C2B43966  14.837  30.647   6.642  0.2112 -0.0356  0.2333
 3620POPC   C3B43967  14.651  30.398   6.258 -0.2390  0.1085 -0.1482
 3620POPC   C4B43968  14.452  30.504   5.862  0.0552 -0.3231 -0.0021
 3621POPC   NC343969   8.713  28.749   7.405 -0.0516 -0.1709  0.2054
 3621POPC   PO443970   8.983  28.682   7.680 -0.5168  0.0469 -0.0880
 3621POPC   GL143971   9.361  28.855   7.306 -0.0175  0.0664  0.0130
 3621POPC   GL243972   9.118  29.077   7.406  0.1275  0.0113 -0.1055
 3621POPC   C1A43973   9.474  29.110   6.875 -0.0836 -0.0317 -0.0698
 3621POPC   D2A43974   9.772  29.357   6.625 -0.1844  0.4677 -0.3362
 3621POPC   C3A43975   9.807  29.387   6.188 -0.0924  0.4567  0.0727
 3621POPC   C4A43976   9.736  29.432   5.743  0.2350 -0.2730  0.0822
 3621POPC   C1B43977   9.014  28.966   6.984  0.1153  0.2476 -0.3175
 3621POPC   C2B43978   8.921  28.971   6.588  0.3348  0.0812  0.1612
 3621POPC   C3B43979   8.881  28.716   6.159 -0.4291 -0.0570 -0.0915
 3621POPC   C4B43980   9.063  28.655   5.707 -0.0481  0.2350  0.0247
 3622POPC   NC343981   7.091  13.254   7.849  0.3765  0.1287  0.5097
 3622POPC   PO443982   6.749  13.319   7.642  0.1170  0.0632 -0.0251
 3622POPC   GL143983   7.062  13.255   7.310 -0.1808  0.2041 -0.0400
 3622POPC   GL243984   7.378  13.254   7.384  0.0229  0.1049 -0.1545
 3622POPC   C1A43985   6.957  13.203   6.889 -0.0411  0.0738  0.3523
 3622POPC   D2A43986   7.088  13.199   6.454 -0.0369  0.1072 -0.0391
 3622POPC   C3A43987   7.459  13.116   6.178 -0.2131  0.0531 -0.0002
 3622POPC   C4A43988   7.739  12.840   5.932  0.0152  0.0585  0.0249
 3622POPC   C1B43989   7.598  13.439   6.993  0.1089  0.0600 -0.0568
 3622POPC   C2B43990   7.674  13.467   6.522 -0.0542  0.0051  0.2724
 3622POPC   C3B43991   7.947  13.347   6.166 -0.1823  0.2408  0.0684
 3622POPC   C4B43992   8.001  13.620   5.830  0.2809 -0.2340 -0.0325
 3623POPC   NC343993  19.277  15.156   7.504  0.1072 -0.2009 -0.0538
 3623POPC   PO443994  18.868  15.109   7.583  0.0916  0.4780  0.2818
 3623POPC   GL143995  18.574  15.190   7.338 -0.1050 -0.0005  0.0260
 3623POPC   GL243996  18.648  14.947   7.153  0.0791  0.0688 -0.5856
 3623POPC   C1A43997  18.494  15.500   6.936 -0.1612  0.2970  0.1285
 3623POPC   D2A43998  18.383  15.570   6.495  0.0458  0.1340  0.3325
 3623POPC   C3A43999  18.485  15.405   6.074  0.1393  0.0184 -0.3652
 3623POPC   C4A44000  18.453  15.219   5.702 -0.0444  0.1699  0.4335
 3623POPC   C1B44001  18.533  14.978   6.675 -0.1743 -0.2561 -0.1150
 3623POPC   C2B44002  18.550  14.763   6.265 -0.2146 -0.1638 -0.2125
 3623POPC   C3B44003  18.568  14.753   5.816  0.0342 -0.0808  0.1355
 3623POPC   C4B44004  18.379  14.713   5.393  0.1435 -0.1437 -0.0508
 3624POPC   NC344005  15.344  26.298   7.300  0.0456  0.0804 -0.1354
 3624POPC   PO444006  15.100  26.163   7.524  0.0949  0.0145 -0.0874
 3624POPC   GL144007  14.900  26.285   7.137 -0.2749  0.3385 -0.1106
 3624POPC   GL244008  14.691  26.105   7.169  0.0003 -0.0723  0.1562
 3624POPC   C1A44009  15.031  26.176   6.691 -0.0194 -0.2482  0.0626
 3624POPC   D2A44010  14.965  25.936   6.305  0.0803 -0.1012 -0.3111
 3624POPC   C3A44011  15.296  25.819   5.980 -0.0237 -0.1942 -0.1491
 3624POPC   C4A44012  15.524  25.587   5.677  0.0492 -0.0031 -0.3307
 3624POPC   C1B44013  14.600  26.395   6.824  0.3200 -0.0121  0.4142
 3624POPC   C2B44014  14.720  26.392   6.374 -0.1463 -0.3082  0.2562
 3624POPC   C3B44015  14.768  26.290   5.928  0.1560  0.2055 -0.3874
 3624POPC   C4B44016  14.721  26.410   5.495  0.1799  0.0211 -0.2360
 3625POPC   NC344017  29.732  31.591   7.998 -0.0103  0.0735  0.0183
 3625POPC   PO444018  29.518  31.300   7.914 -0.0808 -0.1603  0.1978
 3625POPC   GL144019  29.481  31.186   7.442 -0.0841 -0.0614 -0.1197
 3625POPC   GL244020  29.595  30.917   7.442 -0.3536  0.1542  0.0608
 3625POPC   C1A44021  29.759  31.290   7.068  0.0181 -0.1701 -0.0402
 3625POPC   D2A44022  29.946  31.497   6.688 -0.0764 -0.1656  0.1373
 3625POPC   C3A44023  29.584  31.350   6.423  0.0396  0.1014  0.3624
 3625POPC   C4A44024  29.172  31.447   6.341  0.0759 -0.2553 -0.1237
 3625POPC   C1B44025  29.926  30.598   7.360  0.0621  0.4778 -0.2372
 3625POPC   C2B44026  30.309  30.318   7.412  0.0769 -0.0895 -0.0456
 3625POPC   C3B44027  30.449  29.860   7.404 -0.3975  0.0066  0.3861
 3625POPC   C4B44028  30.555  29.543   7.676  0.2998  0.2091  0.1855
 3626POPC   NC344029   9.303  26.255   7.892 -0.1463  0.3033  0.0118
 3626POPC   PO444030   9.005  26.427   7.750 -0.1071 -0.1877 -0.1818
 3626POPC   GL144031   8.919  26.567   7.379 -0.1558 -0.1828  0.0080
 3626POPC   GL244032   8.797  26.349   7.272 -0.3538 -0.1955 -0.0076
 3626POPC   C1A44033   9.057  26.738   6.963 -0.0529 -0.0454  0.1267
 3626POPC   D2A44034   9.308  26.885   6.672  0.0421  0.0782 -0.0101
 3626POPC   C3A44035   9.424  26.648   6.313  0.0287 -0.2833 -0.1119
 3626POPC   C4A44036   9.375  26.382   5.971  0.1180  0.0474 -0.0225
 3626POPC   C1B44037   8.648  26.416   6.885 -0.1540 -0.1558 -0.0353
 3626POPC   C2B44038   8.463  26.476   6.476 -0.1383  0.2236 -0.1904
 3626POPC   C3B44039   8.346  26.519   6.000 -0.1503  0.1769 -0.1541
 3626POPC   C4B44040   8.325  26.583   5.549  0.3620  0.1979 -0.0550
 3627POPC   NC344041  26.651  11.597   7.853 -0.3917 -0.0798  0.0654
 3627POPC   PO444042  26.767  11.234   7.737 -0.2068  0.2199  0.0433
 3627POPC   GL144043  26.675  11.375   7.412  0.1069 -0.2018 -0.1849
 3627POPC   GL244044  26.790  11.648   7.372  0.0222  0.2858  0.0060
 3627POPC   C1A44045  26.480  11.218   6.992 -0.0562 -0.0976 -0.1241
 3627POPC   D2A44046  26.677  10.918   6.749  0.0226  0.2128  0.1812
 3627POPC   C3A44047  26.569  11.199   6.337  0.0457  0.0403 -0.1315
 3627POPC   C4A44048  26.579  11.261   5.851 -0.0222 -0.1154 -0.2628
 3627POPC   C1B44049  27.102  11.731   7.010 -0.0741 -0.2391 -0.1713
 3627POPC   C2B44050  27.260  11.600   6.588  0.0485 -0.3633  0.0521
 3627POPC   C3B44051  27.578  11.717   6.219  0.1936 -0.0114 -0.2879
 3627POPC   C4B44052  27.896  11.636   5.885  0.1916  0.0842  0.0358
 3628POPC   NC344053  11.329  31.733   7.918 -0.0669 -0.1259 -0.1742
 3628POPC   PO444054  11.188  32.034   7.716 -0.1312 -0.0070 -0.2197
 3628POPC   GL144055  11.274  31.898   7.407 -0.1426  0.2443 -0.3889
 3628POPC   GL244056  11.099  31.965   7.166 -0.0430  0.0866 -0.1281
 3628POPC   C1A44057  11.436  31.520   7.211  0.3499  0.3696  0.3491
 3628POPC   D2A44058  11.672  31.172   7.181 -0.1677  0.2407 -0.0009
 3628POPC   C3A44059  11.500  31.192   6.701 -0.0631 -0.3478 -0.1191
 3628POPC   C4A44060  11.433  30.973   6.280 -0.2364  0.1285 -0.1035
 3628POPC   C1B44061  11.232  31.754   6.769 -0.1122 -0.2531 -0.0011
 3628POPC   C2B44062  11.039  31.752   6.326  0.3072 -0.1638  0.3350
 3628POPC   C3B44063  11.109  31.522   5.982  0.1838  0.1141 -0.1527
 3628POPC   C4B44064  11.510  31.414   5.741 -0.0985 -0.3562 -0.0832
 3629POPC   NC344065  25.725   5.526   7.512  0.1636 -0.0462 -0.3286
 3629POPC   PO444066  25.317   5.606   7.473 -0.1779  0.3647 -0.1100
 3629POPC   GL144067  25.423   5.643   7.138  0.1188 -0.2294  0.2154
 3629POPC   GL244068  25.587   5.416   6.963  0.1032 -0.3676  0.1159
 3629POPC   C1A44069  25.216   5.706   6.732 -0.1590  0.0508  0.0515
 3629POPC   D2A44070  25.360   5.525   6.344  0.0065 -0.0337 -0.0357
 3629POPC   C3A44071  25.649   5.180   6.357 -0.2658 -0.2404  0.0278
 3629POPC   C4A44072  25.520   4.767   6.447  0.0792 -0.0233  0.2822
 3629POPC   C1B44073  25.706   5.733   6.631  0.1275  0.0427  0.1008
 3629POPC   C2B44074  25.842   5.605   6.200 -0.3125 -0.1316  0.3816
 3629POPC   C3B44075  25.551   5.364   5.926 -0.0070 -0.3321 -0.1034
 3629POPC   C4B44076  25.671   4.930   5.888  0.2120 -0.0782  0.3787
 3630POPC   NC344077  17.663  19.017   7.846  0.2042  0.2040  0.0457
 3630POPC   PO444078  17.816  18.699   7.695  0.1646  0.0501 -0.2425
 3630POPC   GL144079  17.692  18.563   7.389 -0.0329 -0.2748 -0.0771
 3630POPC   GL244080  17.615  18.856   7.223  0.1533  0.3169  0.3450
 3630POPC   C1A44081  17.952  18.520   7.013  0.1249 -0.1326 -0.2059
 3630POPC   D2A44082  17.961  18.604   6.582 -0.1840 -0.2007  0.4952
 3630POPC   C3A44083  17.743  18.953   6.433  0.4272  0.0003  0.3305
 3630POPC   C4A44084  17.590  19.284   6.164  0.1393 -0.2214 -0.3458
 3630POPC   C1B44085  17.382  18.762   6.774  0.2096 -0.0598 -0.0740
 3630POPC   C2B44086  17.293  18.770   6.312 -0.0849 -0.0013  0.1726
 3630POPC   C3B44087  17.319  18.962   5.895 -0.1508  0.0586  0.0006
 3630POPC   C4B44088  17.062  18.795   5.579  0.0142  0.0091 -0.1633
 3631POPC   NC344089  19.144  21.744   7.676 -0.0969 -0.0688  0.0677
 3631POPC   PO444090  18.831  21.897   7.763  0.0858 -0.1016  0.2956
 3631POPC   GL144091  18.720  21.824   7.382 -0.1398 -0.2345 -0.2028
 3631POPC   GL244092  18.975  21.801   7.222  0.0550  0.1153 -0.1167
 3631POPC   C1A44093  18.506  21.574   7.091  0.3604  0.3528  0.1364
 3631POPC   D2A44094  18.329  21.200   6.905  0.1772 -0.2655 -0.4149
 3631POPC   C3A44095  18.427  21.128   6.410  0.4885 -0.1016  0.0187
 3631POPC   C4A44096  18.502  21.025   6.003 -0.2325  0.2147  0.1291
 3631POPC   C1B44097  18.855  22.199   7.181 -0.0729 -0.0684  0.0019
 3631POPC   C2B44098  19.094  22.459   6.935 -0.1684  0.1979  0.0457
 3631POPC   C3B44099  19.184  22.759   6.616  0.0119 -0.1547  0.0006
 3631POPC   C4B44100  19.528  22.775   6.343  0.0703 -0.1250 -0.2027
 3632POPC   NC344101  19.838  26.071   8.412 -0.2294 -0.0510 -0.2879
 3632POPC   PO444102  19.710  26.211   8.093 -0.0396 -0.1578  0.0236
 3632POPC   GL144103  19.875  26.208   7.783 -0.1427  0.1779 -0.1847
 3632POPC   GL244104  19.864  25.946   7.648  0.1011  0.2078  0.1147
 3632POPC   C1A44105  20.001  26.504   7.496 -0.1438 -0.1941 -0.1273
 3632POPC   D2A44106  20.149  26.743   7.182 -0.0419 -0.1451 -0.0986
 3632POPC   C3A44107  20.546  26.909   7.171 -0.0052  0.3002  0.1533
 3632POPC   C4A44108  20.930  26.648   7.198  0.4026 -0.0940 -0.0967
 3632POPC   C1B44109  19.795  25.558   7.323  0.0292  0.1580  0.0383
 3632POPC   C2B44110  19.837  25.204   7.008  0.0522  0.2859  0.2136
 3632POPC   C3B44111  19.804  25.072   6.549  0.1463 -0.0584 -0.0219
 3632POPC   C4B44112  19.640  24.731   6.212 -0.1828 -0.4405  0.1142
 3633POPC   NC344113  16.697  28.252   7.218  0.2971  0.2868  0.1563
 3633POPC   PO444114  16.930  27.991   7.373  0.4268  0.0285 -0.0270
 3633POPC   GL144115  16.962  27.878   6.993  0.1143 -0.0781  0.1667
 3633POPC   GL244116  16.856  27.643   7.017  0.0264  0.0950 -0.2161
 3633POPC   C1A44117  16.932  28.287   6.768  0.1408  0.1005 -0.1744
 3633POPC   D2A44118  17.266  28.586   6.576 -0.0606  0.1404 -0.1873
 3633POPC   C3A44119  17.306  28.495   6.085 -0.1080  0.3241  0.2127
 3633POPC   C4A44120  17.541  28.500   5.687  0.0282  0.0618  0.1161
 3633POPC   C1B44121  17.005  27.680   6.552  0.0248  0.0342  0.0113
 3633POPC   C2B44122  17.118  28.022   6.199 -0.1009 -0.0105  0.2572
 3633POPC   C3B44123  17.029  28.204   5.805  0.0758  0.2447  0.2781
 3633POPC   C4B44124  16.781  28.321   5.506  0.1343  0.0262  0.2761
 3634POPC   NC344125  27.788  31.243   7.531  0.0580 -0.0494  0.1955
 3634POPC   PO444126  28.144  31.428   7.541  0.1223  0.0330 -0.0854
 3634POPC   GL144127  28.305  31.399   7.176  0.2107  0.1716  0.0600
 3634POPC   GL244128  28.192  31.094   7.112  0.2337 -0.0476 -0.1793
 3634POPC   C1A44129  28.157  31.557   6.724 -0.0433  0.1261 -0.1759
 3634POPC   D2A44130  28.194  31.673   6.289 -0.0219  0.0607 -0.1197
 3634POPC   C3A44131  28.394  31.713   5.872  0.2514 -0.1165  0.0900
 3634POPC   C4A44132  28.357  31.708   5.404  0.2153 -0.1212  0.2665
 3634POPC   C1B44133  28.335  31.053   6.662 -0.5093 -0.2268  0.0131
 3634POPC   C2B44134  28.344  31.210   6.248  0.0722 -0.0548  0.2735
 3634POPC   C3B44135  28.383  31.253   5.826  0.0474  0.1061 -0.0969
 3634POPC   C4B44136  28.459  31.196   5.405  0.2619  0.2098 -0.0286
 3635POPC   NC344137   3.398  15.280   7.833 -0.1015  0.2349  0.0071
 3635POPC   PO444138   3.735  15.511   7.852 -0.0755  0.0108  0.1937
 3635POPC   GL144139   3.730  15.734   7.410 -0.1475  0.1167 -0.2371
 3635POPC   GL244140   3.865  15.964   7.401  0.1804  0.2143  0.1245
 3635POPC   C1A44141   3.560  15.822   6.980 -0.1545  0.0279  0.4694
 3635POPC   D2A44142   3.588  15.617   6.585 -0.1784 -0.0631 -0.0431
 3635POPC   C3A44143   3.623  15.272   6.326  0.0665  0.3485 -0.1434
 3635POPC   C4A44144   3.525  14.863   6.098 -0.0121  0.1240  0.0004
 3635POPC   C1B44145   4.296  15.979   7.197 -0.1554  0.0369  0.0260
 3635POPC   C2B44146   4.570  15.921   6.805  0.2265  0.0414 -0.0738
 3635POPC   C3B44147   4.795  15.730   6.420  0.1029  0.0864  0.1126
 3635POPC   C4B44148   4.901  15.795   5.981 -0.0379 -0.0746  0.1674
 3636POPC   NC344149  15.924  22.663   8.110  0.3609 -0.0014 -0.3314
 3636POPC   PO444150  15.550  22.672   8.195  0.1300  0.0292  0.1897
 3636POPC   GL144151  15.258  22.615   7.889  0.0554 -0.2721 -0.0725
 3636POPC   GL244152  15.238  22.362   7.732 -0.1071 -0.0908 -0.0196
 3636POPC   C1A44153  15.011  22.719   7.527 -0.2576 -0.0161 -0.0364
 3636POPC   D2A44154  15.118  23.030   7.232  0.0024  0.1271  0.1095
 3636POPC   C3A44155  15.011  23.013   6.790 -0.0151  0.0153 -0.0314
 3636POPC   C4A44156  14.652  23.122   6.518  0.1410  0.1373 -0.0164
 3636POPC   C1B44157  15.198  22.298   7.256 -0.1236 -0.2009 -0.1902
 3636POPC   C2B44158  15.382  22.508   6.859  0.0460  0.0126  0.0636
 3636POPC   C3B44159  15.369  22.760   6.451  0.0722  0.1668 -0.1613
 3636POPC   C4B44160  15.436  22.989   6.076  0.0846 -0.0544  0.0323
 3637POPC   NC344161  22.562  14.470   7.594  0.1309  0.0488  0.1150
 3637POPC   PO444162  22.249  14.269   7.458  0.0181 -0.0596  0.2876
 3637POPC   GL144163  22.438  14.199   7.024 -0.2903 -0.2129  0.3541
 3637POPC   GL244164  22.575  14.421   7.035 -0.1217 -0.0149  0.0659
 3637POPC   C1A44165  22.618  14.185   6.555  0.2490 -0.0307 -0.0021
 3637POPC   D2A44166  22.978  14.333   6.307 -0.3129  0.2130  0.0937
 3637POPC   C3A44167  23.023  14.131   5.887 -0.0339  0.0849  0.0507
 3637POPC   C4A44168  23.368  13.985   5.533  0.1241 -0.2074  0.0854
 3637POPC   C1B44169  22.887  14.557   6.778 -0.1638 -0.0662  0.0215
 3637POPC   C2B44170  23.364  14.508   6.676 -0.0453  0.0279 -0.0864
 3637POPC   C3B44171  23.653  14.783   6.425  0.1309  0.0797  0.0243
 3637POPC   C4B44172  23.946  14.963   6.088 -0.1122  0.0216 -0.0532
 3638POPC   NC344173  25.993  29.234   7.821  0.1739 -0.2538  0.2749
 3638POPC   PO444174  26.351  29.084   7.788  0.0396 -0.2463 -0.2627
 3638POPC   GL144175  26.109  28.794   7.605  0.5676  0.0548 -0.2367
 3638POPC   GL244176  25.826  28.876   7.499  0.3210 -0.1123 -0.1312
 3638POPC   C1A44177  26.103  28.560   7.223  0.0507 -0.1079  0.0593
 3638POPC   D2A44178  26.079  28.217   6.952  0.1973 -0.0306 -0.1339
 3638POPC   C3A44179  26.190  28.139   6.532 -0.1079 -0.0694 -0.0019
 3638POPC   C4A44180  26.179  27.985   6.112 -0.0156  0.2000 -0.0366
 3638POPC   C1B44181  25.799  28.855   7.037  0.0917  0.1513  0.0303
 3638POPC   C2B44182  25.817  28.558   6.710  0.2086  0.0654  0.3382
 3638POPC   C3B44183  25.956  28.478   6.284  0.1503  0.1564  0.0370
 3638POPC   C4B44184  25.958  28.357   5.875 -0.3201 -0.1792 -0.0317
 3639POPC   NC344185   5.151  25.902   8.015 -0.1918 -0.1859  0.1505
 3639POPC   PO444186   5.238  26.227   7.786  0.0314  0.0835  0.0122
 3639POPC   GL144187   5.576  26.018   7.709 -0.0919 -0.0098 -0.2559
 3639POPC   GL244188   5.703  26.113   7.524 -0.0162  0.1812  0.0951
 3639POPC   C1A44189   5.497  25.723   7.354 -0.0580 -0.0081 -0.1984
 3639POPC   D2A44190   5.166  25.402   7.164 -0.0594  0.0541 -0.1416
 3639POPC   C3A44191   5.216  25.403   6.703  0.1008 -0.0918  0.0035
 3639POPC   C4A44192   5.144  25.287   6.285  0.1121  0.1623 -0.1954
 3639POPC   C1B44193   5.716  26.101   7.090  0.0087  0.2596 -0.1567
 3639POPC   C2B44194   5.714  26.110   6.602 -0.1806 -0.0155  0.1219
 3639POPC   C3B44195   5.472  26.328   6.259  0.0144  0.0337  0.1317
 3639POPC   C4B44196   5.511  26.546   5.810  0.1511  0.0905 -0.1283
 3640POPC   NC344197  20.147   9.957   7.988  0.0053  0.0565  0.1732
 3640POPC   PO444198  20.142   9.570   7.919 -0.0521  0.0606  0.0621
 3640POPC   GL144199  19.928   9.623   7.616 -0.1450  0.0587  0.7702
 3640POPC   GL244200  19.864   9.292   7.532 -0.1609  0.2364 -0.1431
 3640POPC   C1A44201  19.917   9.798   7.157 -0.1707 -0.2202 -0.1532
 3640POPC   D2A44202  19.691  10.093   6.844 -0.0785 -0.0955  0.0276
 3640POPC   C3A44203  19.503  10.229   6.456 -0.1928 -0.0429  0.0114
 3640POPC   C4A44204  19.245  10.376   6.151  0.1005 -0.1075  0.1757
 3640POPC   C1B44205  20.140   9.034   7.220 -0.5268  0.0935 -0.1431
 3640POPC   C2B44206  20.216   8.741   6.842  0.0159 -0.1879  0.1833
 3640POPC   C3B44207  19.941   8.823   6.482  0.1142  0.4534 -0.0778
 3640POPC   C4B44208  19.802   8.885   6.055 -0.0624  0.0073 -0.1299
 3641POPC   NC344209  14.878  16.802   7.785 -0.0057  0.1970 -0.1413
 3641POPC   PO444210  15.204  16.970   7.922 -0.1080  0.0172 -0.5217
 3641POPC   GL144211  15.397  16.981   7.608  0.0173 -0.0760 -0.2871
 3641POPC   GL244212  15.203  16.849   7.432 -0.0331  0.1668  0.1063
 3641POPC   C1A44213  15.682  17.098   7.282  0.3193 -0.0438 -0.1716
 3641POPC   D2A44214  16.001  17.364   7.127  0.3401  0.0301 -0.0376
 3641POPC   C3A44215  15.992  17.412   6.674  0.3109  0.3250  0.1472
 3641POPC   C4A44216  15.908  17.332   6.195 -0.0160 -0.5964 -0.0350
 3641POPC   C1B44217  15.216  17.064   7.012 -0.0139  0.1209  0.2981
 3641POPC   C2B44218  15.302  17.182   6.582 -0.0311  0.1940  0.0158
 3641POPC   C3B44219  15.412  17.406   6.238  0.0133  0.2780 -0.1237
 3641POPC   C4B44220  15.614  17.610   5.893  0.1937 -0.0873  0.3935
 3642POPC   NC344221  21.009  12.154   7.848  0.0044  0.1977 -0.0014
 3642POPC   PO444222  20.952  11.749   7.843 -0.2688 -0.0057  0.0228
 3642POPC   GL144223  20.555  11.517   7.759  0.2040 -0.1611  0.1785
 3642POPC   GL244224  20.738  11.441   7.514 -0.1386 -0.3756 -0.4071
 3642POPC   C1A44225  20.260  11.748   7.510  0.3432  0.0030  0.0531
 3642POPC   D2A44226  19.907  11.797   7.194  0.0473 -0.0564  0.3005
 3642POPC   C3A44227  19.949  11.829   6.713  0.0541  0.0898 -0.0746
 3642POPC   C4A44228  19.831  11.884   6.272 -0.4994 -0.1974  0.0592
 3642POPC   C1B44229  20.840  11.493   7.087  0.1950  0.1236  0.0348
 3642POPC   C2B44230  20.952  11.416   6.622 -0.0280 -0.0628 -0.2209
 3642POPC   C3B44231  21.043  11.400   6.185  0.2061  0.0668  0.2667
 3642POPC   C4B44232  21.118  11.188   5.795  0.0165  0.0059  0.1128
 3643POPC   NC344233  11.949   7.127   8.480 -0.0647  0.1074  0.0304
 3643POPC   PO444234  11.949   6.900   8.184  0.0300  0.0908 -0.0114
 3643POPC   GL144235  11.742   6.670   8.008  0.5153 -0.0845  0.1864
 3643POPC   GL244236  11.578   6.883   7.829 -0.1794  0.2800  0.1050
 3643POPC   C1A44237  11.849   6.510   7.620  0.0580 -0.2385  0.1156
 3643POPC   D2A44238  12.121   6.318   7.300 -0.1546 -0.0684 -0.1032
 3643POPC   C3A44239  12.369   5.967   7.123  0.1261 -0.1516  0.0233
 3643POPC   C4A44240  12.553   5.860   6.746 -0.1850  0.1354 -0.0159
 3643POPC   C1B44241  11.395   6.988   7.432  0.2756 -0.0860  0.3299
 3643POPC   C2B44242  11.287   6.880   6.970  0.2331 -0.2604 -0.1396
 3643POPC   C3B44243  11.263   6.866   6.526 -0.0524  0.1571 -0.0116
 3643POPC   C4B44244  11.163   6.656   6.123  0.2745  0.1418  0.0615
 3644POPC   NC344245  21.747  18.883   7.239 -0.1292  0.2216 -0.0790
 3644POPC   PO444246  21.421  18.716   7.355 -0.2449 -0.1164 -0.2911
 3644POPC   GL144247  21.326  18.679   6.989  0.3004  0.0011 -0.5663
 3644POPC   GL244248  21.023  18.656   6.965 -0.1098  0.1210 -0.0022
 3644POPC   C1A44249  21.521  18.676   6.569  0.0205  0.1625  0.3499
 3644POPC   D2A44250  21.844  18.461   6.286 -0.2256 -0.2450  0.0217
 3644POPC   C3A44251  21.983  18.484   5.834 -0.1641  0.0789  0.0339
 3644POPC   C4A44252  22.254  18.374   5.435  0.1854 -0.0021  0.3584
 3644POPC   C1B44253  21.034  18.813   6.515 -0.1567 -0.0858  0.0269
 3644POPC   C2B44254  20.993  18.846   6.074 -0.3362  0.2669  0.1918
 3644POPC   C3B44255  21.115  18.823   5.651  0.0484 -0.0250 -0.1888
 3644POPC   C4B44256  21.184  18.574   5.328  0.0188  0.2543 -0.1261
 3645POPC   NC344257  27.486  17.940   7.610  0.1306 -0.1976  0.2089
 3645POPC   PO444258  27.151  17.956   7.391 -0.0707 -0.2653 -0.1566
 3645POPC   GL144259  27.158  17.998   6.967  0.1687 -0.3956 -0.3518
 3645POPC   GL244260  27.147  18.210   6.860 -0.3927 -0.6249 -0.1976
 3645POPC   C1A44261  27.078  17.712   6.615  0.0659 -0.3504 -0.1333
 3645POPC   D2A44262  27.351  17.408   6.326 -0.1704 -0.3272 -0.2213
 3645POPC   C3A44263  27.366  17.388   5.876  0.4030 -0.5020  0.0010
 3645POPC   C4A44264  27.114  17.673   5.588 -0.0710 -0.2382 -0.1563
 3645POPC   C1B44265  26.972  18.175   6.451 -0.0345 -0.1864 -0.1975
 3645POPC   C2B44266  26.672  18.355   6.165  0.0892  0.0398  0.1231
 3645POPC   C3B44267  26.678  18.760   5.959  0.3390 -0.0761  0.0659
 3645POPC   C4B44268  26.467  19.000   5.578  0.0363  0.1060  0.2832
 3646POPC   NC344269  18.233  27.231   7.551  0.1073 -0.0231 -0.0789
 3646POPC   PO444270  18.591  27.246   7.745 -0.2522  0.1845  0.1391
 3646POPC   GL144271  18.607  26.895   7.499  0.1909  0.1499  0.3087
 3646POPC   GL244272  18.612  27.110   7.295 -0.0368 -0.1459  0.0160
 3646POPC   C1A44273  18.854  26.573   7.240 -0.0651 -0.0098 -0.2961
 3646POPC   D2A44274  18.821  26.300   6.857  0.0093 -0.0335 -0.0254
 3646POPC   C3A44275  19.143  26.369   6.550  0.1923  0.0066  0.1045
 3646POPC   C4A44276  19.552  26.378   6.393  0.1597 -0.0241  0.0414
 3646POPC   C1B44277  18.990  27.208   7.047 -0.1603 -0.2980  0.2402
 3646POPC   C2B44278  19.504  27.199   6.902  0.2497  0.0919  0.2703
 3646POPC   C3B44279  19.752  26.988   6.656  0.0454 -0.0016 -0.0284
 3646POPC   C4B44280  19.786  26.830   6.254  0.0766  0.6164  0.0373
 3647POPC   NC344281   4.101   6.033   7.924 -0.1333 -0.1893 -0.0870
 3647POPC   PO444282   3.767   6.075   8.136 -0.0391 -0.3022  0.0926
 3647POPC   GL144283   3.632   6.145   7.762  0.1681 -0.4026  0.2182
 3647POPC   GL244284   3.754   5.925   7.588 -0.1716 -0.4179  0.3285
 3647POPC   C1A44285   3.737   6.475   7.457  0.0606 -0.0074 -0.1689
 3647POPC   D2A44286   3.746   6.832   7.161  0.2782  0.1731  0.4450
 3647POPC   C3A44287   3.618   6.802   6.684  0.3255  0.1146  0.2044
 3647POPC   C4A44288   3.717   6.551   6.299  0.2722 -0.0802  0.2263
 3647POPC   C1B44289   3.721   6.106   7.169 -0.1431 -0.0757 -0.0349
 3647POPC   C2B44290   3.802   6.325   6.784  0.3470 -0.0969 -0.1884
 3647POPC   C3B44291   4.165   6.381   6.477 -0.0576  0.2146  0.0782
 3647POPC   C4B44292   4.294   6.363   6.028 -0.1058 -0.3506  0.1117
 3648POPC   NC344293  22.662  15.626   8.483 -0.2870 -0.1841 -0.1394
 3648POPC   PO444294  22.990  15.612   8.300 -0.1431  0.0832 -0.0131
 3648POPC   GL144295  22.855  15.815   7.981 -0.1193 -0.1220 -0.2476
 3648POPC   GL244296  23.077  15.750   7.791 -0.1007  0.1597 -0.0217
 3648POPC   C1A44297  22.999  16.301   7.976 -0.0223  0.0361  0.2450
 3648POPC   D2A44298  23.384  16.544   7.923 -0.1107 -0.1324  0.5160
 3648POPC   C3A44299  23.506  16.971   8.075  0.4210  0.1750 -0.3241
 3648POPC   C4A44300  23.597  17.430   8.057 -0.0168 -0.0374 -0.0734
 3648POPC   C1B44301  23.278  16.111   7.601 -0.0891 -0.2425 -0.0288
 3648POPC   C2B44302  23.533  16.308   7.203  0.0965 -0.0638  0.0758
 3648POPC   C3B44303  23.834  16.557   6.913 -0.0591 -0.2241  0.2573
 3648POPC   C4B44304  24.258  16.729   7.015 -0.0577  0.0754 -0.1043
 3649POPC   NC344305   0.104  31.183   8.476  0.3120  0.1244 -0.3324
 3649POPC   PO444306  -0.167  31.104   8.162 -0.0324  0.1185  0.1164
 3649POPC   GL144307  -0.092  31.154   7.763 -0.3607 -0.0505  0.4719
 3649POPC   GL244308   0.020  31.374   7.752 -0.1306 -0.1423 -0.3041
 3649POPC   C1A44309  -0.264  30.891   7.367  0.0851 -0.1265  0.2135
 3649POPC   D2A44310  -0.350  31.109   7.022  0.2049  0.1395  0.0799
 3649POPC   C3A44311  -0.320  30.862   6.618  0.1159 -0.2334  0.2495
 3649POPC   C4A44312  -0.471  30.717   6.222  0.1779  0.2348 -0.0004
 3649POPC   C1B44313   0.105  31.318   7.283 -0.0640  0.0544 -0.1786
 3649POPC   C2B44314   0.156  31.062   6.914  0.1491  0.1614  0.1185
 3649POPC   C3B44315   0.208  30.708   6.601  0.0845 -0.0026 -0.0663
 3649POPC   C4B44316   0.062  30.704   6.181 -0.2230 -0.1774 -0.0681
 3650POPC   NC344317   3.196   0.936   7.598 -0.0155  0.1242  0.0350
 3650POPC   PO444318   3.442   0.944   7.890 -0.6221 -0.0285  0.0601
 3650POPC   GL144319   3.560   1.121   7.427 -0.1306 -0.0906  0.2001
 3650POPC   GL244320   3.586   1.425   7.479 -0.1430  0.2077 -0.0288
 3650POPC   C1A44321   3.307   1.328   7.076 -0.0018  0.2310  0.0281
 3650POPC   D2A44322   3.200   1.407   6.637 -0.1134  0.3740 -0.2859
 3650POPC   C3A44323   2.949   1.444   6.259 -0.1449 -0.3445  0.1671
 3650POPC   C4A44324   2.528   1.359   6.068 -0.0978 -0.0204  0.0695
 3650POPC   C1B44325   3.637   1.647   7.021 -0.1632  0.2083 -0.1197
 3650POPC   C2B44326   3.670   1.783   6.592  0.0935  0.1778 -0.0249
 3650POPC   C3B44327   3.982   1.761   6.259  0.1244  0.0768 -0.2862
 3650POPC   C4B44328   4.299   1.460   6.137 -0.0111  0.2338  0.0515
 3651POPC   NC344329  25.468   5.304   7.931  0.0892  0.2165 -0.1016
 3651POPC   PO444330  25.300   4.946   7.861  0.3146  0.2616 -0.1232
 3651POPC   GL144331  25.488   4.823   7.454 -0.2029 -0.0928 -0.2743
 3651POPC   GL244332  25.428   5.086   7.414  0.0186  0.0515 -0.4949
 3651POPC   C1A44333  25.401   4.858   6.982 -0.3737  0.0549 -0.0071
 3651POPC   D2A44334  25.229   5.158   6.680  0.0155 -0.5573  0.3078
 3651POPC   C3A44335  25.131   5.087   6.199 -0.1740  0.2351 -0.0510
 3651POPC   C4A44336  25.183   5.096   5.744  0.4575 -0.1341  0.0894
 3651POPC   C1B44337  25.035   5.077   7.189  0.2244 -0.0854 -0.0927
 3651POPC   C2B44338  24.716   4.990   6.845 -0.3717 -0.0842  0.3575
 3651POPC   C3B44339  24.584   5.071   6.404 -0.2089  0.1019  0.0741
 3651POPC   C4B44340  24.335   5.375   6.130 -0.2779 -0.2189 -0.3370
 3652POPC   NC344341  27.210  20.060   7.330 -0.0684  0.0002  0.3009
 3652POPC   PO444342  27.352  20.134   7.665 -0.0603  0.2188 -0.1364
 3652POPC   GL144343  27.486  20.443   7.502  0.0017 -0.1654  0.5146
 3652POPC   GL244344  27.305  20.748   7.552 -0.1526  0.2779  0.4410
 3652POPC   C1A44345  27.509  20.634   7.101  0.1008 -0.0361 -0.3678
 3652POPC   D2A44346  27.391  20.844   6.679  0.0934 -0.1138 -0.0526
 3652POPC   C3A44347  27.103  21.110   6.378 -0.1065 -0.0600  0.3789
 3652POPC   C4A44348  27.060  21.509   6.192  0.1177 -0.0766  0.0298
 3652POPC   C1B44349  27.637  21.021   7.400  0.1285 -0.3434 -0.2053
 3652POPC   C2B44350  27.894  21.149   7.050 -0.0912 -0.0191 -0.0070
 3652POPC   C3B44351  27.904  21.472   6.720  0.2480  0.3012 -0.1008
 3652POPC   C4B44352  28.050  21.838   6.461  0.1608  0.0660 -0.1707
 3653POPC   NC344353  23.792  26.727   7.830 -0.0198  0.1278 -0.1117
 3653POPC   PO444354  23.908  26.423   7.579 -0.0362 -0.0450  0.1769
 3653POPC   GL144355  23.920  26.354   7.122 -0.2075 -0.0333  0.0126
 3653POPC   GL244356  24.115  26.531   7.015 -0.1602 -0.0895 -0.0406
 3653POPC   C1A44357  23.506  26.176   7.012  0.0582  0.0038  0.2120
 3653POPC   D2A44358  23.259  25.876   6.760  0.1016  0.0453  0.1609
 3653POPC   C3A44359  23.392  25.923   6.322  0.1054 -0.2597 -0.1371
 3653POPC   C4A44360  23.378  25.774   5.863 -0.1584 -0.1485  0.1697
 3653POPC   C1B44361  24.169  26.385   6.582 -0.3179 -0.4493  0.1126
 3653POPC   C2B44362  24.077  26.508   6.148  0.1025 -0.2944 -0.4069
 3653POPC   C3B44363  23.797  26.693   5.885  0.2824 -0.5624 -0.1733
 3653POPC   C4B44364  23.369  26.944   5.939  0.0691 -0.1387 -0.0857
 3654POPC   NC344365  21.126  13.430   8.001  0.0385 -0.1312 -0.1369
 3654POPC   PO444366  21.008  13.381   7.624 -0.0011  0.0665 -0.3640
 3654POPC   GL144367  20.975  13.095   7.358 -0.1356  0.0557  0.0887
 3654POPC   GL244368  21.277  13.043   7.296  0.1067 -0.0857 -0.2267
 3654POPC   C1A44369  20.749  13.056   6.883  0.2215 -0.2630  0.2004
 3654POPC   D2A44370  20.827  13.442   6.568 -0.0178 -0.2043 -0.0161
 3654POPC   C3A44371  20.968  13.420   6.127  0.0723  0.3748  0.0712
 3654POPC   C4A44372  20.932  13.686   5.774 -0.3604 -0.0892  0.0380
 3654POPC   C1B44373  21.298  13.246   6.880 -0.1422 -0.2980 -0.1886
 3654POPC   C2B44374  21.329  13.549   6.514 -0.0303 -0.1221 -0.0849
 3654POPC   C3B44375  21.449  13.633   6.090  0.0608 -0.0462 -0.0621
 3654POPC   C4B44376  21.393  13.558   5.688  0.0132 -0.1468  0.1668
 3655POPC   NC344377   6.539  20.362   7.938  0.0274 -0.0680 -0.0459
 3655POPC   PO444378   6.920  20.343   7.801 -0.1124  0.0188 -0.2188
 3655POPC   GL144379   6.980  20.235   7.388 -0.2253 -0.1710  0.1165
 3655POPC   GL244380   6.944  20.014   7.152  0.3080 -0.1101  0.1563
 3655POPC   C1A44381   7.066  20.488   7.007  0.0304 -0.0122 -0.1757
 3655POPC   D2A44382   6.733  20.785   6.888 -0.0778 -0.0312  0.0846
 3655POPC   C3A44383   6.793  21.135   6.568 -0.1905 -0.1558  0.5828
 3655POPC   C4A44384   6.900  21.096   6.091  0.0575  0.0386 -0.2228
 3655POPC   C1B44385   6.923  19.963   6.708  0.0312  0.0967  0.0071
 3655POPC   C2B44386   7.030  19.802   6.313 -0.2323 -0.0581 -0.1632
 3655POPC   C3B44387   7.252  19.670   5.922 -0.0129  0.0105 -0.1696
 3655POPC   C4B44388   7.611  19.826   5.675 -0.2192 -0.0470  0.3083
 3656POPC   NC344389  17.522   1.304   7.757 -0.0578 -0.0687 -0.1625
 3656POPC   PO444390  17.213   1.100   7.893 -0.1058  0.1293 -0.1512
 3656POPC   GL144391  17.163   0.975   7.435  0.0274  0.0916 -0.0860
 3656POPC   GL244392  17.430   0.915   7.468  0.2228 -0.0039 -0.1982
 3656POPC   C1A44393  17.164   0.867   7.029  0.0074 -0.0542 -0.2038
 3656POPC   D2A44394  17.056   0.984   6.601  0.4020 -0.0661 -0.2300
 3656POPC   C3A44395  16.771   0.663   6.472  0.1924 -0.1175 -0.2074
 3656POPC   C4A44396  16.527   0.739   6.104  0.2120 -0.1552 -0.1824
 3656POPC   C1B44397  17.364   1.292   7.230  0.0080 -0.0842 -0.0633
 3656POPC   C2B44398  17.345   1.408   6.771 -0.1017  0.1623  0.1238
 3656POPC   C3B44399  17.303   1.653   6.338 -0.1664  0.2529  0.0714
 3656POPC   C4B44400  17.200   1.619   5.908 -0.0441 -0.1360  0.0715
 3657POPC   NC344401  27.398  28.123   7.577  0.0345  0.2395 -0.2120
 3657POPC   PO444402  27.137  27.881   7.764  0.2138 -0.2822 -0.2420
 3657POPC   GL144403  27.315  27.657   7.520 -0.0397 -0.3312 -0.1959
 3657POPC   GL244404  27.133  27.388   7.538 -0.4009 -0.1095 -0.1993
 3657POPC   C1A44405  27.278  27.534   7.086 -0.0456  0.2809  0.0505
 3657POPC   D2A44406  27.208  27.225   6.722  0.4048  0.0282 -0.0101
 3657POPC   C3A44407  27.235  27.136   6.246  0.2679 -0.3543 -0.1317
 3657POPC   C4A44408  27.206  26.959   5.789 -0.3588 -0.0784  0.2705
 3657POPC   C1B44409  26.934  27.176   7.195  0.2707 -0.2281 -0.2663
 3657POPC   C2B44410  26.619  27.032   6.848 -0.3010  0.0233 -0.4033
 3657POPC   C3B44411  26.401  26.842   6.479 -0.0782  0.1866  0.3087
 3657POPC   C4B44412  26.039  26.835   6.220  0.3434 -0.0274 -0.1232
 3658POPC   NC344413  23.396  30.328   7.865  0.0768  0.2019 -0.1916
 3658POPC   PO444414  23.045  30.121   7.882 -0.1164  0.2679 -0.1060
 3658POPC   GL144415  23.197  30.270   7.468  0.2653  0.2103 -0.0589
 3658POPC   GL244416  23.392  30.123   7.424  0.2627  0.2181  0.1393
 3658POPC   C1A44417  22.958  30.332   7.055 -0.0897  0.0538 -0.0468
 3658POPC   D2A44418  23.076  30.290   6.616 -0.4059 -0.0948  0.2036
 3658POPC   C3A44419  23.442  30.007   6.491 -0.0636 -0.2467  0.0534
 3658POPC   C4A44420  23.657  29.624   6.321 -0.0006  0.2551 -0.0906
 3658POPC   C1B44421  23.289  29.970   7.028 -0.0111  0.0529  0.1768
 3658POPC   C2B44422  23.393  29.598   6.728 -0.0507  0.0016  0.1286
 3658POPC   C3B44423  23.196  29.270   6.445  0.1467  0.1280 -0.1537
 3658POPC   C4B44424  22.808  29.291   6.297  0.2213 -0.1009 -0.0114
 3659POPC   NC344425  21.680  12.546   7.994 -0.2539 -0.4567 -0.2083
 3659POPC   PO444426  21.521  12.233   7.830  0.1973  0.0885  0.2492
 3659POPC   GL144427  21.589  12.014   7.562 -0.0995  0.2141  0.1833
 3659POPC   GL244428  21.337  11.877   7.510  0.3383 -0.3195  0.0567
 3659POPC   C1A44429  21.584  12.237   7.129  0.1509 -0.1591 -0.4423
 3659POPC   D2A44430  21.609  12.031   6.742 -0.4301 -0.2890  0.0540
 3659POPC   C3A44431  21.609  12.235   6.336  0.2378 -0.1670  0.0591
 3659POPC   C4A44432  21.412  12.531   6.051 -0.0646 -0.3900  0.0820
 3659POPC   C1B44433  21.224  11.896   7.037  0.0585  0.0161  0.1180
 3659POPC   C2B44434  21.237  11.837   6.529  0.3282 -0.0958 -0.2207
 3659POPC   C3B44435  21.230  11.886   6.097 -0.3687 -0.0878  0.0502
 3659POPC   C4B44436  21.054  11.686   5.740  0.1122 -0.1536  0.0079
 3660POPC   NC344437  15.816  24.754   7.580 -0.2293  0.1100 -0.0571
 3660POPC   PO444438  16.101  24.797   7.858 -0.3450  0.0493  0.0174
 3660POPC   GL144439  16.277  24.824   7.469 -0.0147 -0.4287 -0.1077
 3660POPC   GL244440  16.592  24.915   7.616  0.3836  0.1989 -0.2042
 3660POPC   C1A44441  16.238  24.585   7.056 -0.2395  0.2370 -0.1110
 3660POPC   D2A44442  15.954  24.519   6.705  0.0411 -0.1241  0.1517
 3660POPC   C3A44443  16.013  24.821   6.420 -0.2699 -0.2485  0.0274
 3660POPC   C4A44444  16.070  25.182   6.143 -0.2861  0.1145  0.1937
 3660POPC   C1B44445  16.544  24.930   7.126  0.0448  0.2153  0.2204
 3660POPC   C2B44446  16.509  24.804   6.665  0.0505  0.0254 -0.2636
 3660POPC   C3B44447  16.484  24.984   6.221 -0.0925  0.0455  0.2390
 3660POPC   C4B44448  16.463  25.324   5.886 -0.0222  0.2640 -0.2087
 3661POPC   NC344449   3.704   1.385   8.032  0.0923 -0.1229 -0.2041
 3661POPC   PO444450   4.015   1.423   7.855  0.1630  0.5770 -0.0360
 3661POPC   GL144451   3.976   1.033   7.618  0.1214 -0.0326 -0.0793
 3661POPC   GL244452   4.017   1.188   7.379  0.2278  0.2688  0.1301
 3661POPC   C1A44453   4.057   0.752   7.248 -0.2237 -0.3210  0.0765
 3661POPC   D2A44454   3.948   0.335   7.187 -0.1201  0.0734 -0.0476
 3661POPC   C3A44455   3.955   0.120   6.722  0.0032  0.0581  0.1901
 3661POPC   C4A44456   3.893  -0.104   6.315  0.0348 -0.2381 -0.3444
 3661POPC   C1B44457   3.823   1.119   6.974  0.1120  0.0922  0.1263
 3661POPC   C2B44458   3.749   1.321   6.550  0.2595 -0.0880  0.0922
 3661POPC   C3B44459   3.850   1.291   6.061  0.0851  0.1049 -0.0168
 3661POPC   C4B44460   4.147   1.074   5.856  0.1834  0.1026 -0.0404
 3662POPC   NC344461  27.207  15.832   7.580  0.1330  0.1045 -0.2306
 3662POPC   PO444462  27.541  16.005   7.638  0.0182  0.0404  0.4037
 3662POPC   GL144463  27.536  15.873   7.264 -0.0219  0.0756 -0.3253
 3662POPC   GL244464  27.307  15.689   7.121  0.1060  0.2237 -0.4460
 3662POPC   C1A44465  27.669  15.924   6.843  0.1148  0.0296 -0.2535
 3662POPC   D2A44466  27.682  15.874   6.372  0.1641 -0.0407  0.1364
 3662POPC   C3A44467  27.236  15.961   6.192  0.0569 -0.0242  0.2161
 3662POPC   C4A44468  27.072  16.049   5.764  0.4576 -0.0808 -0.1030
 3662POPC   C1B44469  27.339  15.617   6.675  0.0064 -0.1687 -0.0218
 3662POPC   C2B44470  27.370  15.375   6.304 -0.0863  0.2304  0.1007
 3662POPC   C3B44471  27.335  15.549   5.876  0.1391 -0.0921  0.1681
 3662POPC   C4B44472  27.380  15.761   5.473  0.2588 -0.2710 -0.0303
 3663POPC   NC344473  28.214  28.026   7.601  0.1801 -0.0326  0.2746
 3663POPC   PO444474  28.508  28.244   7.496 -0.2157 -0.1248  0.0991
 3663POPC   GL144475  28.806  28.080   7.141 -0.1705 -0.0098 -0.0679
 3663POPC   GL244476  28.888  27.931   7.289  0.0555  0.1073 -0.0528
 3663POPC   C1A44477  28.853  27.774   6.773 -0.1211  0.1842  0.2114
 3663POPC   D2A44478  28.809  27.637   6.343  0.0666 -0.0847 -0.1701
 3663POPC   C3A44479  28.639  27.235   6.185  0.2246 -0.1305  0.1424
 3663POPC   C4A44480  28.207  27.047   6.159 -0.2361  0.1600 -0.3431
 3663POPC   C1B44481  29.277  27.901   7.070  0.0652 -0.1275 -0.0788
 3663POPC   C2B44482  29.616  27.894   6.811  0.1221 -0.3712  0.1503
 3663POPC   C3B44483  29.791  27.736   6.441 -0.2200  0.2317 -0.0394
 3663POPC   C4B44484  29.767  27.320   6.305 -0.0743 -0.0223 -0.0015
 3664POPC   NC344485  20.622  22.273   7.909 -0.0002 -0.0649  0.1226
 3664POPC   PO444486  20.800  22.605   8.022 -0.0397 -0.0758  0.1697
 3664POPC   GL144487  20.760  22.779   7.638 -0.1465 -0.0037 -0.1260
 3664POPC   GL244488  20.693  23.063   7.655 -0.0415  0.1822 -0.1048
 3664POPC   C1A44489  20.434  22.798   7.297  0.2214 -0.0403 -0.2872
 3664POPC   D2A44490  20.065  22.711   7.050 -0.0990  0.0711 -0.0128
 3664POPC   C3A44491  19.965  22.976   6.667  0.1324 -0.0481 -0.2068
 3664POPC   C4A44492  19.945  23.327   6.379 -0.2887  0.0195 -0.3248
 3664POPC   C1B44493  20.496  23.320   7.954  0.1086  0.0507  0.2316
 3664POPC   C2B44494  20.277  23.762   8.035  0.0697 -0.1378 -0.0040
 3664POPC   C3B44495  19.933  24.053   8.149 -0.2765  0.0382 -0.1184
 3664POPC   C4B44496  19.654  24.430   8.241  0.0718  0.1878  0.3569
 3665POPC   NC344497  21.274  13.001   7.790 -0.3018 -0.1589 -0.2471
 3665POPC   PO444498  21.264  12.636   7.716 -0.1048 -0.1134 -0.1329
 3665POPC   GL144499  21.307  12.479   7.360 -0.0731 -0.2602 -0.2703
 3665POPC   GL244500  21.050  12.325   7.375 -0.1348 -0.0308  0.1946
 3665POPC   C1A44501  21.115  12.693   7.001  0.0537  0.0288  0.2382
 3665POPC   D2A44502  21.099  12.915   6.580 -0.1917  0.1046  0.0907
 3665POPC   C3A44503  20.927  12.862   6.228  0.0115  0.3592  0.2448
 3665POPC   C4A44504  20.768  12.732   5.791 -0.0913  0.1448  0.0719
 3665POPC   C1B44505  20.812  12.191   6.974  0.0659 -0.0394  0.2754
 3665POPC   C2B44506  20.751  11.992   6.585  0.0177  0.1105 -0.1576
 3665POPC   C3B44507  20.748  11.827   6.153 -0.0939  0.3557  0.0901
 3665POPC   C4B44508  20.647  11.462   5.855 -0.1463 -0.1311 -0.4201
 3666POPC   NC344509   3.060   9.618   7.212 -0.1643 -0.1705  0.0087
 3666POPC   PO444510   3.281   9.681   7.507  0.0743  0.1668  0.1170
 3666POPC   GL144511   3.339   9.304   7.188 -0.0909 -0.0098  0.3294
 3666POPC   GL244512   3.541   9.105   7.197 -0.2449  0.0514  0.0838
 3666POPC   C1A44513   3.155   9.348   6.761 -0.1335  0.0225  0.0588
 3666POPC   D2A44514   2.958   9.328   6.335 -0.1144  0.1001 -0.0581
 3666POPC   C3A44515   2.953   9.573   5.950 -0.1899 -0.0264 -0.2677
 3666POPC   C4A44516   3.025   9.956   5.628  0.3617 -0.3475 -0.6238
 3666POPC   C1B44517   3.630   9.164   6.724  0.1648  0.0797  0.2584
 3666POPC   C2B44518   3.530   9.293   6.270 -0.1862 -0.0218 -0.0301
 3666POPC   C3B44519   3.469   9.605   5.956  0.2693 -0.1732  0.0101
 3666POPC   C4B44520   3.467   9.668   5.518 -0.5164  0.1375  0.0997
 3667POPC   NC344521  17.803  21.570   8.219  0.1353 -0.0384 -0.2867
 3667POPC   PO444522  18.060  21.438   8.011 -0.0698 -0.0969  0.1517
 3667POPC   GL144523  18.179  21.342   7.698 -0.1141  0.1840  0.0050
 3667POPC   GL244524  18.142  21.466   7.391  0.1092  0.0417  0.1145
 3667POPC   C1A44525  18.326  20.978   7.411 -0.0300  0.1802 -0.2318
 3667POPC   D2A44526  18.704  20.970   7.159 -0.0254 -0.1255 -0.1184
 3667POPC   C3A44527  18.753  20.879   6.748  0.0091 -0.1423  0.2191
 3667POPC   C4A44528  18.873  20.932   6.318  0.2238 -0.0942  0.3393
 3667POPC   C1B44529  17.921  21.103   7.204 -0.2618 -0.0141  0.0689
 3667POPC   C2B44530  17.908  20.627   7.253  0.0909  0.2894  0.3703
 3667POPC   C3B44531  17.909  20.270   6.950  0.1054  0.3105  0.3947
 3667POPC   C4B44532  17.484  20.292   6.764  0.1872 -0.1702  0.0675
 3668POPC   NC344533  10.588   7.918   8.194  0.0441  0.1178  0.0657
 3668POPC   PO444534  11.018   7.919   8.222  0.2102 -0.1999 -0.1355
 3668POPC   GL144535  10.880   7.638   7.935 -0.1419  0.2968 -0.1213
 3668POPC   GL244536  10.896   7.848   7.730 -0.0317 -0.0885  0.1118
 3668POPC   C1A44537  10.848   7.435   7.521  0.2850  0.0014  0.0907
 3668POPC   D2A44538  11.130   7.326   7.200 -0.1204  0.1008  0.1360
 3668POPC   C3A44539  11.025   7.293   6.790  0.1608 -0.1288 -0.3981
 3668POPC   C4A44540  10.911   7.156   6.367 -0.1755  0.4943  0.0408
 3668POPC   C1B44541  11.070   7.814   7.269  0.0889 -0.1011  0.2826
 3668POPC   C2B44542  11.275   7.769   6.853 -0.0790  0.2982  0.0180
 3668POPC   C3B44543  11.192   7.741   6.416  0.1419 -0.0003  0.4632
 3668POPC   C4B44544  11.119   7.886   5.978  0.2018  0.1149  0.0178
 3669POPC   NC344545  27.601  27.773   7.887  0.0100 -0.0389 -0.0336
 3669POPC   PO444546  27.796  28.140   7.839 -0.0331  0.2177  0.0660
 3669POPC   GL144547  27.820  28.060   7.372 -0.0382  0.3071  0.1081
 3669POPC   GL244548  27.973  28.214   7.161  0.2869 -0.0560  0.1526
 3669POPC   C1A44549  27.469  27.996   7.094  0.1162  0.0141  0.1020
 3669POPC   D2A44550  27.441  27.863   6.686 -0.3299  0.0938  0.0512
 3669POPC   C3A44551  27.079  27.757   6.458  0.1495 -0.1857  0.1941
 3669POPC   C4A44552  26.805  27.867   6.164  0.2868 -0.1071  0.2102
 3669POPC   C1B44553  27.649  28.305   6.800  0.0015 -0.0802 -0.2437
 3669POPC   C2B44554  27.636  28.196   6.341 -0.0400 -0.0116  0.1841
 3669POPC   C3B44555  27.687  28.144   5.905  0.0993  0.0830  0.0245
 3669POPC   C4B44556  27.953  27.931   5.568  0.0474  0.0409  0.0661
 3670POPC   NC344557   7.838  14.824   7.918 -0.0073 -0.1948 -0.3235
 3670POPC   PO444558   7.621  15.102   7.687 -0.2541  0.2250 -0.0854
 3670POPC   GL144559   8.028  14.910   7.542 -0.1990 -0.0120  0.2187
 3670POPC   GL244560   8.087  15.228   7.480 -0.1732  0.0612 -0.1134
 3670POPC   C1A44561   8.381  14.882   7.311  0.0061 -0.3031  0.2038
 3670POPC   D2A44562   8.455  14.734   6.876 -0.2784 -0.2056 -0.0874
 3670POPC   C3A44563   8.234  14.401   6.631 -0.0038  0.2348  0.1747
 3670POPC   C4A44564   8.119  14.474   6.159 -0.0326 -0.1546  0.3816
 3670POPC   C1B44565   8.000  15.098   7.076  0.2084  0.1187  0.1081
 3670POPC   C2B44566   8.054  14.946   6.676  0.0773 -0.0910  0.1423
 3670POPC   C3B44567   7.904  14.965   6.233 -0.3826  0.1798  0.4578
 3670POPC   C4B44568   7.551  15.098   5.975  0.1976 -0.0142  0.1379
 3671POPC   NC344569   8.049   7.303   7.606  0.2076 -0.1416  0.1228
 3671POPC   PO444570   8.449   7.434   7.662 -0.0506 -0.2037 -0.0566
 3671POPC   GL144571   8.539   7.563   7.324 -0.0978  0.1943 -0.0594
 3671POPC   GL244572   8.422   7.341   7.163  0.0246  0.0646 -0.1955
 3671POPC   C1A44573   8.218   7.751   7.046  0.0926 -0.3045 -0.1407
 3671POPC   D2A44574   8.276   7.847   6.635 -0.1057 -0.1003  0.3316
 3671POPC   C3A44575   8.068   7.631   6.316  0.3699  0.2778  0.0027
 3671POPC   C4A44576   7.976   7.498   5.900  0.3431  0.0460 -0.1386
 3671POPC   C1B44577   8.364   7.297   6.702  0.1038 -0.0465 -0.4820
 3671POPC   C2B44578   8.402   7.207   6.260 -0.0960 -0.0614  0.1042
 3671POPC   C3B44579   8.362   7.207   5.761 -0.0707  0.3844 -0.0407
 3671POPC   C4B44580   8.089   7.118   5.365  0.2281  0.5018 -0.1728
 3672POPC   NC344581  17.504  24.423   7.795 -0.1357 -0.2203  0.1184
 3672POPC   PO444582  17.386  24.080   7.802 -0.3233 -0.0153 -0.1641
 3672POPC   GL144583  17.388  24.019   7.353  0.0167 -0.2898  0.2305
 3672POPC   GL244584  17.612  24.227   7.355 -0.1818  0.1176  0.0501
 3672POPC   C1A44585  17.283  23.714   7.032 -0.1179  0.3110  0.0361
 3672POPC   D2A44586  17.365  23.215   7.117  0.2708 -0.2854  0.2243
 3672POPC   C3A44587  17.783  23.137   6.934  0.0647  0.0333  0.2262
 3672POPC   C4A44588  18.101  22.784   6.654  0.1014 -0.1864  0.2776
 3672POPC   C1B44589  17.695  24.018   6.991  0.1778  0.1083  0.3426
 3672POPC   C2B44590  17.487  23.910   6.597  0.1255 -0.0018  0.1470
 3672POPC   C3B44591  17.226  24.037   6.232  0.0827  0.0061  0.2093
 3672POPC   C4B44592  17.030  24.260   5.877  0.1672  0.2085 -0.3052
 3673POPC   NC344593   2.311   0.960   7.779  0.4151  0.1346 -0.0557
 3673POPC   PO444594   2.662   1.117   7.591  0.2483 -0.0723  0.0130
 3673POPC   GL144595   2.472   1.041   7.325  0.1877 -0.1338  0.3291
 3673POPC   GL244596   2.284   1.197   7.107  0.1885 -0.1733 -0.0731
 3673POPC   C1A44597   2.498   0.716   6.999 -0.2243 -0.2029 -0.1545
 3673POPC   D2A44598   2.259   0.605   6.662  0.1032 -0.0507  0.0044
 3673POPC   C3A44599   2.576   0.369   6.433  0.2076 -0.1518 -0.1070
 3673POPC   C4A44600   2.793   0.035   6.420 -0.1833 -0.1192 -0.1647
 3673POPC   C1B44601   2.296   1.122   6.654 -0.0047 -0.1360 -0.1690
 3673POPC   C2B44602   2.171   0.964   6.244  0.0716 -0.1005 -0.2217
 3673POPC   C3B44603   1.896   0.999   5.870  0.0928 -0.0121 -0.0623
 3673POPC   C4B44604   1.710   1.044   5.463  0.2897 -0.0935  0.0721
 3674POPC   NC344605  12.270  28.863   8.271  0.0138 -0.1079 -0.2151
 3674POPC   PO444606  11.991  28.616   8.043  0.3440 -0.1453  0.0718
 3674POPC   GL144607  12.031  28.663   7.693  0.1303 -0.0873 -0.1149
 3674POPC   GL244608  11.973  28.509   7.490  0.2118  0.4859  0.0509
 3674POPC   C1A44609  12.404  28.817   7.467  0.2025 -0.0916  0.0675
 3674POPC   D2A44610  12.530  28.970   7.077 -0.0022  0.1634  0.1226
 3674POPC   C3A44611  12.284  29.021   6.714  0.2101 -0.1641 -0.2634
 3674POPC   C4A44612  12.119  29.214   6.346  0.2384  0.1356 -0.1722
 3674POPC   C1B44613  11.638  28.786   7.444 -0.3100  0.1806  0.2264
 3674POPC   C2B44614  11.460  28.977   7.044 -0.0157 -0.1161  0.1394
 3674POPC   C3B44615  11.697  29.218   6.725 -0.0867 -0.1442  0.2446
 3674POPC   C4B44616  11.612  29.424   6.371 -0.1830 -0.2247 -0.1235
 3675POPC   NC344617   1.885  17.438   7.430 -0.1864 -0.2410  0.0955
 3675POPC   PO444618   1.595  17.685   7.404 -0.0211  0.1509 -0.1077
 3675POPC   GL144619   1.591  17.633   7.051  0.1775 -0.2270  0.1406
 3675POPC   GL244620   1.696  17.830   6.959 -0.0194 -0.3577  0.4060
 3675POPC   C1A44621   1.445  17.392   6.675 -0.1138  0.1940 -0.0235
 3675POPC   D2A44622   0.978  17.195   6.601 -0.1195 -0.4984  0.2624
 3675POPC   C3A44623   0.969  17.088   6.110 -0.1615 -0.0076 -0.2222
 3675POPC   C4A44624   0.772  17.146   5.727  0.0174 -0.3371 -0.2753
 3675POPC   C1B44625   1.601  17.846   6.489  0.0290  0.2096  0.0261
 3675POPC   C2B44626   1.615  18.146   6.109  0.2041  0.0209 -0.1942
 3675POPC   C3B44627   1.450  18.365   5.772  0.1175  0.0143 -0.3898
 3675POPC   C4B44628   1.591  18.313   5.336  0.3787 -0.2827 -0.1160
 3676POPC   NC344629  17.810  11.855   7.993  0.0845 -0.3863 -0.0766
 3676POPC   PO444630  18.220  11.821   8.051 -0.4210 -0.0589 -0.2666
 3676POPC   GL144631  18.115  11.580   7.733  0.0316 -0.5886  0.0822
 3676POPC   GL244632  17.855  11.667   7.563  0.0286  0.1388 -0.1192
 3676POPC   C1A44633  18.073  11.162   7.641  0.0671  0.1969  0.0914
 3676POPC   D2A44634  18.057  10.842   7.334  0.0412 -0.2572 -0.1550
 3676POPC   C3A44635  17.858  10.758   6.909 -0.1539 -0.2925 -0.1122
 3676POPC   C4A44636  17.706  10.581   6.484  0.3203  0.1589  0.1753
 3676POPC   C1B44637  17.771  11.947   7.178 -0.0223  0.1047  0.0239
 3676POPC   C2B44638  17.479  12.105   6.817 -0.2101 -0.2272  0.0384
 3676POPC   C3B44639  17.301  12.191   6.388 -0.2302 -0.1220 -0.0278
 3676POPC   C4B44640  16.899  12.404   6.219  0.4867 -0.2351  0.1709
 3677POPC   NC344641   6.857  22.088   8.139  0.1428  0.1061  0.0371
 3677POPC   PO444642   6.641  22.429   8.167 -0.1275  0.4791 -0.1165
 3677POPC   GL144643   6.606  22.792   8.147  0.0907  0.0562 -0.4523
 3677POPC   GL244644   6.694  22.805   7.883  0.1442 -0.0638  0.2009
 3677POPC   C1A44645   6.388  23.233   8.104  0.0204  0.2278  0.0204
 3677POPC   D2A44646   6.056  23.377   8.422  0.2145 -0.3013  0.0007
 3677POPC   C3A44647   5.603  23.198   8.493  0.0298 -0.0768  0.1312
 3677POPC   C4A44648   5.323  22.843   8.602  0.3316  0.0446  0.1245
 3677POPC   C1B44649   6.637  22.858   7.451 -0.1666  0.2729 -0.3768
 3677POPC   C2B44650   6.865  22.747   7.055  0.1071 -0.1022 -0.0710
 3677POPC   C3B44651   6.970  22.850   6.620  0.1813 -0.0901  0.0301
 3677POPC   C4B44652   6.838  23.057   6.187  0.2134 -0.0254 -0.0289
 3678POPC   NC344653  25.452  18.575   8.605 -0.0353 -0.4513 -0.3297
 3678POPC   PO444654  25.442  18.769   8.318  0.1283 -0.2491  0.3871
 3678POPC   GL144655  25.195  18.574   8.126 -0.0144 -0.0390 -0.2000
 3678POPC   GL244656  24.898  18.526   8.300 -0.0750 -0.1979 -0.1193
 3678POPC   C1A44657  24.804  18.392   7.843 -0.1354  0.1967  0.1492
 3678POPC   D2A44658  24.829  18.159   7.414  0.1872  0.2027 -0.4862
 3678POPC   C3A44659  24.913  17.855   7.112  0.0113 -0.0697  0.0211
 3678POPC   C4A44660  25.034  17.631   6.693 -0.0454  0.0460  0.0561
 3678POPC   C1B44661  24.560  18.201   8.187  0.1923 -0.0887  0.2846
 3678POPC   C2B44662  24.228  17.874   8.218 -0.0179 -0.0854  0.4322
 3678POPC   C3B44663  24.240  17.444   8.223 -0.2036  0.1944  0.3621
 3678POPC   C4B44664  23.953  17.081   8.258  0.2164  0.0020 -0.1355
 3679POPC   NC344665  31.005   6.493   7.706  0.2015  0.0506 -0.0513
 3679POPC   PO444666  31.300   6.747   7.841 -0.4573  0.2984  0.0109
 3679POPC   GL144667  31.314   6.873   7.498 -0.0170  0.2830 -0.1911
 3679POPC   GL244668  31.082   7.007   7.417  0.3014  0.1669 -0.2719
 3679POPC   C1A44669  31.553   7.146   7.185 -0.1771 -0.0049  0.1357
 3679POPC   D2A44670  31.851   6.944   6.859 -0.2951  0.3179  0.2877
 3679POPC   C3A44671  31.817   6.459   6.781 -0.1399 -0.2125  0.1023
 3679POPC   C4A44672  32.004   6.079   6.613 -0.0393 -0.1413  0.2395
 3679POPC   C1B44673  30.964   6.944   6.968  0.1897  0.3818  0.0299
 3679POPC   C2B44674  31.073   7.100   6.515 -0.1643 -0.3217 -0.2077
 3679POPC   C3B44675  31.282   7.079   6.089 -0.3110  0.0543  0.1755
 3679POPC   C4B44676  31.536   6.822   5.789 -0.0005  0.1707  0.0675
 3680POPC   NC344677  22.861   7.276   7.508 -0.2093 -0.2181 -0.0860
 3680POPC   PO444678  22.779   6.966   7.713 -0.2281  0.1166 -0.3088
 3680POPC   GL144679  22.986   6.796   7.425 -0.0920 -0.3545  0.1242
 3680POPC   GL244680  22.784   6.802   7.186  0.1113 -0.0913 -0.0049
 3680POPC   C1A44681  23.221   7.057   7.123  0.2464  0.0367  0.1137
 3680POPC   D2A44682  23.342   7.195   6.673  0.4188  0.1369  0.0336
 3680POPC   C3A44683  23.683   6.945   6.451  0.0819 -0.1414 -0.1307
 3680POPC   C4A44684  23.789   6.755   6.048 -0.0700  0.1861  0.0018
 3680POPC   C1B44685  22.943   6.847   6.757  0.2815  0.0604  0.1271
 3680POPC   C2B44686  23.094   6.904   6.345 -0.0045  0.1078 -0.2461
 3680POPC   C3B44687  23.390   7.075   6.068 -0.1558  0.2954  0.1192
 3680POPC   C4B44688  23.799   7.307   6.058 -0.0815  0.0590 -0.1227
 3681POPC   NC344689  28.735  17.507   7.297  0.1152 -0.2192 -0.0130
 3681POPC   PO444690  28.635  17.157   7.382  0.1201 -0.5067 -0.0801
 3681POPC   GL144691  28.390  17.200   7.127 -0.0630 -0.3403  0.1907
 3681POPC   GL244692  28.134  17.091   7.162  0.0819 -0.1038 -0.0409
 3681POPC   C1A44693  28.426  17.170   6.673 -0.1646  0.0157 -0.3449
 3681POPC   D2A44694  28.267  17.032   6.260  0.1016  0.2062  0.1209
 3681POPC   C3A44695  28.178  16.930   5.821  0.0198 -0.1076  0.2154
 3681POPC   C4A44696  28.157  16.786   5.389  0.1630  0.0628  0.0398
 3681POPC   C1B44697  28.001  16.793   6.784  0.0444  0.0599 -0.1652
 3681POPC   C2B44698  27.807  16.789   6.375  0.2990  0.0972  0.1530
 3681POPC   C3B44699  27.653  16.905   5.971 -0.2580 -0.1650  0.1090
 3681POPC   C4B44700  27.698  17.084   5.612 -0.1017 -0.1615  0.1248
 3682POPC   NC344701   7.156   9.697   8.103  0.1148 -0.0932 -0.1304
 3682POPC   PO444702   6.901   9.762   7.822 -0.0424  0.1012  0.2307
 3682POPC   GL144703   6.805   9.394   7.656 -0.1279  0.3383 -0.2400
 3682POPC   GL244704   6.596   9.418   7.435 -0.0205  0.0018 -0.0404
 3682POPC   C1A44705   6.866   9.041   7.262  0.1665 -0.1143 -0.1599
 3682POPC   D2A44706   6.518   8.984   6.958  0.2281 -0.0826 -0.0074
 3682POPC   C3A44707   6.597   8.783   6.558  0.0118 -0.0318  0.2182
 3682POPC   C4A44708   6.349   8.856   6.182 -0.1825  0.0506  0.1332
 3682POPC   C1B44709   6.481   9.505   7.047 -0.0909 -0.4211  0.1879
 3682POPC   C2B44710   6.377   9.392   6.610  0.0913  0.4137 -0.0674
 3682POPC   C3B44711   6.390   9.379   6.111  0.0805  0.0926  0.1802
 3682POPC   C4B44712   6.481   9.089   5.714  0.0782 -0.1783  0.0154
 3683POPC   NC344713   3.391   6.534   7.882  0.1617  0.0216  0.0895
 3683POPC   PO444714   3.212   6.180   7.937 -0.2802 -0.1166 -0.1186
 3683POPC   GL144715   3.174   5.986   7.612  0.4854  0.0070  0.1807
 3683POPC   GL244716   3.274   6.255   7.457 -0.3082  0.3132  0.1090
 3683POPC   C1A44717   2.842   5.943   7.343  0.1591  0.0592 -0.4022
 3683POPC   D2A44718   2.546   5.675   7.128 -0.0589 -0.0214  0.2356
 3683POPC   C3A44719   2.164   5.569   7.371 -0.2850 -0.0782 -0.4412
 3683POPC   C4A44720   2.086   5.409   7.796  0.0417  0.1058 -0.1277
 3683POPC   C1B44721   3.384   6.427   7.046  0.2825  0.1958  0.1177
 3683POPC   C2B44722   3.298   6.339   6.631  0.3190 -0.1537 -0.0318
 3683POPC   C3B44723   3.277   6.311   6.198  0.0795  0.3285 -0.2087
 3683POPC   C4B44724   3.264   6.238   5.725 -0.3219  0.3815  0.0420
 3684POPC   NC344725   8.004  13.135   7.850  0.0449  0.0444  0.0121
 3684POPC   PO444726   7.651  12.965   7.737 -0.1352 -0.1537  0.1771
 3684POPC   GL144727   7.872  12.868   7.485  0.0640  0.0925 -0.1040
 3684POPC   GL244728   7.769  12.974   7.219 -0.1725  0.2848 -0.1191
 3684POPC   C1A44729   8.258  13.075   7.288 -0.4033 -0.2060  0.0100
 3684POPC   D2A44730   8.564  13.423   7.149  0.1157 -0.0762 -0.2566
 3684POPC   C3A44731   8.558  13.784   6.842  0.2522  0.3493  0.1863
 3684POPC   C4A44732   8.414  14.004   6.422 -0.0072  0.3263 -0.1642
 3684POPC   C1B44733   7.708  12.555   6.995 -0.1046 -0.2153  0.2623
 3684POPC   C2B44734   7.969  12.360   6.672  0.0461  0.4463  0.0363
 3684POPC   C3B44735   7.928  12.304   6.146  0.3841 -0.1207 -0.0688
 3684POPC   C4B44736   7.948  12.476   5.653 -0.1572  0.0253  0.2160
 3685POPC   NC344737  14.359   5.428   7.531 -0.3686 -0.1339 -0.0970
 3685POPC   PO444738  14.586   5.112   7.417 -0.2105  0.2305  0.1779
 3685POPC   GL144739  14.727   5.352   7.154 -0.1972 -0.0894  0.1457
 3685POPC   GL244740  14.929   5.520   7.302  0.6040 -0.3754  0.0902
 3685POPC   C1A44741  14.641   5.266   6.754 -0.0613 -0.0392  0.2147
 3685POPC   D2A44742  14.579   5.272   6.278 -0.1295 -0.0208 -0.3558
 3685POPC   C3A44743  14.750   5.531   5.943 -0.0567  0.3086 -0.1020
 3685POPC   C4A44744  14.611   5.582   5.489  0.0976  0.0949 -0.0865
 3685POPC   C1B44745  15.113   5.482   6.839  0.1706 -0.0677 -0.1517
 3685POPC   C2B44746  15.094   5.426   6.423 -0.2768  0.2584 -0.1179
 3685POPC   C3B44747  15.179   5.382   6.000  0.2083  0.1771  0.3448
 3685POPC   C4B44748  14.996   5.083   5.670  0.0029 -0.1397  0.0022
 3686POPC   NC344749   3.056  27.880   7.598  0.2617 -0.0829 -0.0458
 3686POPC   PO444750   2.894  28.206   7.742  0.1308 -0.1114 -0.0266
 3686POPC   GL144751   2.742  28.532   7.457 -0.0983  0.0923 -0.3650
 3686POPC   GL244752   2.472  28.697   7.368  0.1937  0.2783 -0.0013
 3686POPC   C1A44753   2.844  28.621   7.041  0.0363 -0.2562 -0.2242
 3686POPC   D2A44754   2.775  28.636   6.538 -0.1608  0.1177  0.0216
 3686POPC   C3A44755   2.857  28.268   6.279  0.2010  0.1076 -0.5257
 3686POPC   C4A44756   2.980  28.009   5.928 -0.3086 -0.3201 -0.2836
 3686POPC   C1B44757   2.296  28.572   6.972  0.0637 -0.2633  0.2173
 3686POPC   C2B44758   2.175  28.711   6.540  0.1596  0.1538 -0.1366
 3686POPC   C3B44759   2.264  28.668   6.147 -0.3328 -0.0093 -0.0658
 3686POPC   C4B44760   2.627  28.560   5.878  0.1485  0.0216 -0.0701
 3687POPC   NC344761   9.761   7.644   8.329 -0.0570  0.0767  0.0670
 3687POPC   PO444762   9.667   7.454   8.012 -0.0222 -0.0671  0.1545
 3687POPC   GL144763   9.802   7.512   7.703  0.1381  0.0122 -0.2662
 3687POPC   GL244764   9.967   7.735   7.649  0.2722 -0.1090 -0.0919
 3687POPC   C1A44765   9.667   7.556   7.276  0.0020  0.0191 -0.0385
 3687POPC   D2A44766   9.662   7.551   6.789 -0.4366  0.2949 -0.1687
 3687POPC   C3A44767   9.466   7.234   6.522  0.0879  0.0233 -0.2962
 3687POPC   C4A44768   9.591   7.033   6.121  0.2018  0.1459  0.1917
 3687POPC   C1B44769   9.953   7.923   7.227 -0.5384 -0.1569  0.0679
 3687POPC   C2B44770  10.121   7.785   6.852  0.2942 -0.0577  0.2648
 3687POPC   C3B44771  10.176   7.707   6.427  0.0524  0.1468  0.1232
 3687POPC   C4B44772  10.444   7.320   6.354 -0.1171  0.0369 -0.0823
 3688POPC   NC344773  24.615   6.524   7.968 -0.1140 -0.1726  0.0481
 3688POPC   PO444774  24.890   6.535   7.677 -0.0502  0.1692  0.0851
 3688POPC   GL144775  24.924   6.661   7.231 -0.1912  0.1630  0.0550
 3688POPC   GL244776  25.167   6.689   7.202 -0.1250  0.0441 -0.2515
 3688POPC   C1A44777  24.780   6.468   6.792  0.1666 -0.3813 -0.0966
 3688POPC   D2A44778  25.044   6.481   6.401  0.6032  0.0557  0.2368
 3688POPC   C3A44779  24.995   6.718   6.026 -0.0266  0.0198  0.0643
 3688POPC   C4A44780  25.196   7.005   5.761 -0.1487 -0.0556  0.0929
 3688POPC   C1B44781  25.039   6.897   6.840  0.0173  0.1163 -0.0314
 3688POPC   C2B44782  25.128   7.071   6.421  0.1517 -0.2477 -0.0521
 3688POPC   C3B44783  25.229   7.385   6.084 -0.1315  0.2338  0.1896
 3688POPC   C4B44784  25.087   7.517   5.660  0.1319 -0.2011  0.1350
 3689POPC   NC344785  16.761  12.413   8.475  0.1011 -0.0035 -0.2525
 3689POPC   PO444786  16.708  12.537   8.108 -0.5661  0.0972  0.1060
 3689POPC   GL144787  16.635  12.491   7.740 -0.1731 -0.0428 -0.0341
 3689POPC   GL244788  16.362  12.402   7.640 -0.1095  0.0717 -0.0218
 3689POPC   C1A44789  16.798  12.656   7.360  0.1339 -0.1271 -0.2013
 3689POPC   D2A44790  16.735  12.872   6.996 -0.2426 -0.0294 -0.0850
 3689POPC   C3A44791  16.736  12.868   6.510 -0.0417  0.0677  0.1810
 3689POPC   C4A44792  16.865  13.082   6.198 -0.1761 -0.0599  0.3552
 3689POPC   C1B44793  16.673  12.207   7.311 -0.1377  0.1683 -0.3643
 3689POPC   C2B44794  16.940  12.032   6.970 -0.0981 -0.2632  0.2454
 3689POPC   C3B44795  16.949  11.849   6.514 -0.0384 -0.1662 -0.0087
 3689POPC   C4B44796  16.932  11.880   6.078  0.3702  0.0856  0.2535
 3690POPC   NC344797   7.824   3.248   8.062  0.3413 -0.2343 -0.1353
 3690POPC   PO444798   7.521   3.408   7.840  0.2099 -0.1391 -0.1024
 3690POPC   GL144799   7.625   3.283   7.430 -0.1632 -0.2087 -0.0036
 3690POPC   GL244800   7.881   3.229   7.542 -0.1813  0.0380 -0.0386
 3690POPC   C1A44801   7.489   3.500   7.063 -0.2699 -0.0509  0.1889
 3690POPC   D2A44802   7.606   3.767   6.689  0.0941 -0.1651 -0.1895
 3690POPC   C3A44803   7.396   3.492   6.346 -0.3906  0.2482 -0.2819
 3690POPC   C4A44804   7.025   3.235   6.257 -0.0110  0.1350  0.0306
 3690POPC   C1B44805   8.165   2.997   7.309 -0.0418  0.2219 -0.0457
 3690POPC   C2B44806   8.469   2.661   7.187  0.3288  0.2331  0.1362
 3690POPC   C3B44807   8.714   2.441   6.826 -0.1142 -0.1046 -0.2261
 3690POPC   C4B44808   8.897   2.423   6.411 -0.0456 -0.1731  0.0108
 3691POPC   NC344809   6.017  20.361   7.549  0.2467  0.4189 -0.0595
 3691POPC   PO444810   5.666  20.569   7.485 -0.0485 -0.0344  0.1289
 3691POPC   GL144811   5.568  20.598   7.061 -0.1546 -0.2702 -0.3857
 3691POPC   GL244812   5.761  20.779   6.928  0.2031  0.2687 -0.0181
 3691POPC   C1A44813   5.225  20.511   6.695 -0.0808  0.0409 -0.1756
 3691POPC   D2A44814   5.315  20.649   6.248 -0.1667  0.2376 -0.1128
 3691POPC   C3A44815   5.049  20.551   5.903  0.0092 -0.1499  0.2305
 3691POPC   C4A44816   4.767  20.664   5.606 -0.2225 -0.2647 -0.2945
 3691POPC   C1B44817   5.832  21.072   6.576  0.0983 -0.3242  0.4652
 3691POPC   C2B44818   5.776  21.412   6.288 -0.1646  0.1137  0.1273
 3691POPC   C3B44819   5.472  21.567   6.000 -0.2264 -0.2042  0.3188
 3691POPC   C4B44820   5.183  21.556   5.593 -0.3480  0.0603  0.0817
 3692POPC   NC344821  13.394  22.456   7.438  0.0966 -0.2281 -0.3653
 3692POPC   PO444822  13.230  22.204   7.662  0.3078 -0.1042  0.1590
 3692POPC   GL144823  13.251  21.959   7.282 -0.0291 -0.1916 -0.1390
 3692POPC   GL244824  13.085  21.793   7.107  0.0346 -0.1406 -0.0781
 3692POPC   C1A44825  13.552  22.057   6.957  0.1366  0.0955 -0.3142
 3692POPC   D2A44826  13.695  21.930   6.547  0.3444  0.2710  0.0636
 3692POPC   C3A44827  13.628  22.256   6.269  0.2307  0.1703 -0.3040
 3692POPC   C4A44828  13.283  22.458   6.043  0.0855 -0.0766  0.2059
 3692POPC   C1B44829  13.150  21.892   6.646 -0.0888  0.1843 -0.2215
 3692POPC   C2B44830  13.295  21.902   6.239  0.1056  0.0914 -0.0009
 3692POPC   C3B44831  13.436  21.991   5.781  0.1448  0.0442 -0.2379
 3692POPC   C4B44832  13.588  22.385   5.646 -0.1399  0.2616 -0.2527
 3693POPC   NC344833  15.941   6.714   8.091  0.1196 -0.0991  0.0373
 3693POPC   PO444834  16.172   6.577   7.823  0.0595 -0.1152  0.0384
 3693POPC   GL144835  16.083   6.478   7.456 -0.2657  0.4627 -0.0569
 3693POPC   GL244836  16.004   6.221   7.444  0.2627  0.2598  0.0465
 3693POPC   C1A44837  16.151   6.782   7.131  0.2477 -0.0384 -0.0894
 3693POPC   D2A44838  15.954   6.840   6.678 -0.0886  0.2770 -0.0151
 3693POPC   C3A44839  15.829   7.190   6.498 -0.1290 -0.0339 -0.0252
 3693POPC   C4A44840  15.734   7.503   6.211  0.0862  0.2340 -0.2182
 3693POPC   C1B44841  15.944   6.339   7.043  0.1409 -0.2499  0.2112
 3693POPC   C2B44842  16.038   6.337   6.550 -0.0744 -0.1177 -0.5676
 3693POPC   C3B44843  15.851   6.270   6.122 -0.0267  0.2774  0.0134
 3693POPC   C4B44844  15.719   6.512   5.713 -0.2700 -0.0832  0.0962
 3694POPC   NC344845  25.307   6.398   8.084  0.1135 -0.3780  0.0830
 3694POPC   PO444846  25.513   6.742   8.159 -0.0934  0.0414 -0.0158
 3694POPC   GL144847  25.393   6.849   7.834  0.2945 -0.1382  0.1101
 3694POPC   GL244848  25.164   7.010   7.673 -0.3836 -0.1115 -0.0419
 3694POPC   C1A44849  25.644   7.175   7.520  0.1413 -0.0082 -0.3129
 3694POPC   D2A44850  25.650   7.438   7.170  0.0521  0.0557 -0.1966
 3694POPC   C3A44851  25.923   7.212   6.916 -0.0240 -0.0557 -0.2419
 3694POPC   C4A44852  26.217   7.378   6.619  0.1364 -0.0410 -0.0235
 3694POPC   C1B44853  25.065   7.227   7.265  0.0535 -0.0060  0.3170
 3694POPC   C2B44854  24.807   7.352   6.840 -0.0554 -0.0034  0.1500
 3694POPC   C3B44855  24.864   7.550   6.430 -0.1546 -0.1290  0.1334
 3694POPC   C4B44856  25.031   7.944   6.305 -0.1839 -0.1731  0.3501
 3695POPC   NC344857   2.167  29.981   7.577  0.0377 -0.3037  0.0000
 3695POPC   PO444858   2.164  29.620   7.723 -0.3253 -0.1542 -0.3523
 3695POPC   GL144859   2.320  29.544   7.338 -0.0280  0.2468 -0.5013
 3695POPC   GL244860   2.032  29.497   7.243 -0.0667 -0.1793 -0.0837
 3695POPC   C1A44861   2.437  29.742   6.946  0.2020  0.0484  0.1335
 3695POPC   D2A44862   2.699  29.867   6.573  0.1878  0.1182 -0.3148
 3695POPC   C3A44863   2.850  29.647   6.192 -0.2957  0.0057 -0.0930
 3695POPC   C4A44864   2.854  29.739   5.668  0.1043  0.0932 -0.2402
 3695POPC   C1B44865   2.102  29.335   6.784 -0.0519 -0.1759 -0.1471
 3695POPC   C2B44866   2.042  29.181   6.378  0.1308 -0.0925 -0.0787
 3695POPC   C3B44867   2.297  29.248   5.961  0.1378  0.1940  0.1480
 3695POPC   C4B44868   2.582  29.357   5.610  0.0618 -0.0012  0.0313
 3696POPC   NC344869   4.151  18.878   7.423  0.1212 -0.3350 -0.1051
 3696POPC   PO444870   4.390  18.589   7.630 -0.1193  0.0381  0.1041
 3696POPC   GL144871   4.521  18.562   7.287  0.1150  0.2068 -0.5761
 3696POPC   GL244872   4.761  18.579   7.240  0.0618  0.2493 -0.4032
 3696POPC   C1A44873   4.533  18.264   6.928  0.0414  0.0028  0.0325
 3696POPC   D2A44874   4.577  18.000   6.544  0.0612 -0.0073 -0.0125
 3696POPC   C3A44875   4.530  18.029   6.083  0.0561  0.2845 -0.2285
 3696POPC   C4A44876   4.519  18.286   5.686 -0.1335  0.2793  0.0945
 3696POPC   C1B44877   5.101  18.778   6.992 -0.1179 -0.2157  0.0433
 3696POPC   C2B44878   5.196  18.812   6.546 -0.2392  0.1645 -0.0071
 3696POPC   C3B44879   5.341  18.664   6.060  0.1682 -0.2719  0.1116
 3696POPC   C4B44880   5.381  18.256   5.811  0.1384 -0.0600 -0.2058
 3697POPC   NC344881  28.843  15.367   8.058  0.1229 -0.2432 -0.0818
 3697POPC   PO444882  28.508  15.376   7.937 -0.2075  0.1640  0.0594
 3697POPC   GL144883  28.718  15.366   7.556 -0.1123 -0.0146 -0.0894
 3697POPC   GL244884  28.953  15.159   7.580 -0.0145 -0.0355 -0.0014
 3697POPC   C1A44885  28.570  15.365   7.139 -0.0907 -0.1292  0.2102
 3697POPC   D2A44886  28.290  15.072   6.877 -0.2055 -0.1077 -0.2940
 3697POPC   C3A44887  28.274  14.992   6.378 -0.0140  0.0004 -0.0451
 3697POPC   C4A44888  28.052  14.785   6.011 -0.0469  0.1666  0.2635
 3697POPC   C1B44889  29.352  15.184   7.317  0.0770 -0.3338  0.0190
 3697POPC   C2B44890  29.408  15.173   6.891 -0.2154  0.1573  0.2426
 3697POPC   C3B44891  29.635  15.036   6.454  0.1048  0.0932 -0.3827
 3697POPC   C4B44892  29.622  15.147   6.032  0.0148 -0.3319 -0.0980
 3698POPC   NC344893  27.487  25.440   7.810  0.0880 -0.2296  0.0563
 3698POPC   PO444894  27.345  25.088   7.910 -0.0670  0.3691 -0.1528
 3698POPC   GL144895  27.233  25.041   7.561  0.4691  0.1852  0.1409
 3698POPC   GL244896  27.005  24.907   7.556 -0.0970  0.0815 -0.1764
 3698POPC   C1A44897  27.145  25.236   7.147  0.1791  0.0170 -0.0750
 3698POPC   D2A44898  27.248  25.299   6.685  0.0202 -0.2222 -0.4281
 3698POPC   C3A44899  27.561  25.057   6.493 -0.0806  0.2226 -0.4189
 3698POPC   C4A44900  27.766  24.837   6.188  0.4773 -0.1083 -0.2706
 3698POPC   C1B44901  26.977  24.722   7.206 -0.0798  0.0528 -0.1008
 3698POPC   C2B44902  26.935  24.936   6.751  0.1623 -0.1287 -0.0154
 3698POPC   C3B44903  26.952  25.135   6.325  0.1071  0.1282 -0.3322
 3698POPC   C4B44904  26.668  25.256   5.949  0.1837  0.0920 -0.1188
 3699POPC   NC344905   1.393  23.053   7.503  0.2627 -0.2268 -0.2770
 3699POPC   PO444906   1.038  23.018   7.298 -0.3291 -0.0983 -0.1118
 3699POPC   GL144907   0.935  23.044   6.937 -0.1577  0.0561  0.0697
 3699POPC   GL244908   0.647  22.922   6.961  0.3590  0.1969 -0.2572
 3699POPC   C1A44909   0.694  23.181   6.550 -0.1613 -0.1997 -0.0476
 3699POPC   D2A44910   0.629  22.885   6.183 -0.2678 -0.4604 -0.0767
 3699POPC   C3A44911   0.493  23.025   5.769  0.1960 -0.2238 -0.1356
 3699POPC   C4A44912   0.571  23.443   5.601  0.2656 -0.0242  0.0811
 3699POPC   C1B44913   0.685  22.625   6.624  0.3199  0.1780 -0.2312
 3699POPC   C2B44914   0.919  22.472   6.259  0.4232  0.1149  0.2982
 3699POPC   C3B44915   0.693  22.508   5.807 -0.2507 -0.0459  0.3872
 3699POPC   C4B44916   0.497  22.516   5.369  0.0881 -0.1253 -0.1069
 3700POPC   NC344917  26.687   6.804   7.956 -0.0935  0.0781 -0.0561
 3700POPC   PO444918  26.846   7.114   7.733 -0.0284  0.0113  0.1456
 3700POPC   GL144919  26.710   7.195   7.386  0.0873 -0.0686  0.1813
 3700POPC   GL244920  26.860   7.046   7.126 -0.0183  0.2811  0.5295
 3700POPC   C1A44921  26.627   7.631   7.288 -0.3073 -0.0714  0.2564
 3700POPC   D2A44922  26.547   8.007   7.020 -0.0700 -0.2887 -0.2298
 3700POPC   C3A44923  26.414   7.833   6.591 -0.0936 -0.2721  0.1215
 3700POPC   C4A44924  26.326   7.765   6.169 -0.1645 -0.2268  0.1645
 3700POPC   C1B44925  26.972   6.844   6.776 -0.0111  0.1881  0.0982
 3700POPC   C2B44926  26.833   6.535   6.426 -0.0603 -0.1975 -0.2393
 3700POPC   C3B44927  26.456   6.424   6.225  0.1685  0.1342  0.2232
 3700POPC   C4B44928  26.138   6.618   6.109  0.0005  0.3122  0.0393
 3701POPC   NC344929   4.571  29.701   7.714  0.1754 -0.0577 -0.1440
 3701POPC   PO444930   4.232  29.794   7.888  0.1534  0.2197 -0.1822
 3701POPC   GL144931   4.061  29.888   7.506  0.1908  0.0892  0.2956
 3701POPC   GL244932   4.274  29.843   7.294 -0.0175  0.2046  0.0053
 3701POPC   C1A44933   3.858  29.603   7.170 -0.0750 -0.1443  0.1888
 3701POPC   D2A44934   3.961  29.279   6.825  0.0883  0.1620  0.3435
 3701POPC   C3A44935   3.948  28.877   6.667 -0.0958 -0.1234  0.0815
 3701POPC   C4A44936   3.746  28.780   6.227  0.0095 -0.1596  0.1465
 3701POPC   C1B44937   4.408  29.511   6.991 -0.2219  0.2968  0.0701
 3701POPC   C2B44938   4.463  29.266   6.588 -0.2498 -0.0881 -0.0951
 3701POPC   C3B44939   4.323  29.140   6.177  0.1790 -0.0227  0.0747
 3701POPC   C4B44940   4.450  29.166   5.758 -0.0275  0.1437  0.1445
 3702POPC   NC344941  31.168  21.812   7.667  0.0333 -0.2191 -0.3747
 3702POPC   PO444942  31.224  22.217   7.574  0.2022 -0.1598  0.1691
 3702POPC   GL144943  31.194  22.114   7.161  0.1878 -0.0036  0.2753
 3702POPC   GL244944  30.967  21.941   7.196  0.2473 -0.1045  0.1491
 3702POPC   C1A44945  31.513  22.317   6.890 -0.1724 -0.0199  0.2855
 3702POPC   D2A44946  31.629  22.602   6.515 -0.1318 -0.1527  0.0648
 3702POPC   C3A44947  32.032  22.851   6.587 -0.2199  0.0312  0.3247
 3702POPC   C4A44948  31.971  23.187   6.869  0.0209  0.0046 -0.3718
 3702POPC   C1B44949  30.650  22.129   6.939 -0.1500  0.2315  0.1672
 3702POPC   C2B44950  30.442  21.904   6.569  0.0399  0.1285 -0.0941
 3702POPC   C3B44951  30.272  21.685   6.242  0.2220 -0.1332 -0.3700
 3702POPC   C4B44952  30.278  21.392   5.855  0.1270 -0.1406 -0.5200
 3703POPC   NC344953  20.236   8.747   7.677 -0.0643 -0.2731  0.5029
 3703POPC   PO444954  20.549   8.719   7.942  0.2248 -0.0680  0.3046
 3703POPC   GL144955  20.782   8.736   7.533 -0.3865 -0.0465 -0.2811
 3703POPC   GL244956  20.932   8.921   7.506 -0.2102 -0.1905  0.1995
 3703POPC   C1A44957  20.955   8.515   7.195  0.2311 -0.2606 -0.1165
 3703POPC   D2A44958  20.926   8.216   6.825  0.1144  0.1010 -0.0503
 3703POPC   C3A44959  20.748   8.181   6.407  0.0370  0.0254  0.1961
 3703POPC   C4A44960  20.346   8.017   6.346 -0.2040 -0.0870 -0.1423
 3703POPC   C1B44961  20.644   9.044   7.127  0.3334  0.0600  0.0535
 3703POPC   C2B44962  20.366   9.199   6.758 -0.0541  0.0629 -0.0718
 3703POPC   C3B44963  20.081   9.311   6.397 -0.2441  0.0976  0.0886
 3703POPC   C4B44964  19.712   9.344   6.078  0.0518 -0.2599 -0.0816
 3704POPC   NC344965   3.495  21.099   7.831  0.0776 -0.0845 -0.0176
 3704POPC   PO444966   3.551  21.471   7.910  0.0763 -0.3165 -0.2244
 3704POPC   GL144967   3.320  21.577   7.589  0.0461  0.0736  0.1702
 3704POPC   GL244968   3.121  21.416   7.525  0.0670 -0.1018 -0.1564
 3704POPC   C1A44969   3.065  21.882   7.382 -0.1867  0.1495  0.3843
 3704POPC   D2A44970   2.723  21.905   7.059  0.3550 -0.1197 -0.0363
 3704POPC   C3A44971   2.715  21.856   6.612  0.1702 -0.1082  0.1962
 3704POPC   C4A44972   2.894  21.778   6.242  0.1250 -0.2103 -0.2543
 3704POPC   C1B44973   3.317  21.405   7.151  0.2703  0.1272  0.4758
 3704POPC   C2B44974   3.451  21.452   6.693  0.2019  0.2531 -0.0050
 3704POPC   C3B44975   3.345  21.570   6.239 -0.0308 -0.1257 -0.0739
 3704POPC   C4B44976   3.120  21.665   5.846  0.1381  0.0304 -0.2384
 3705POPC   NC344977  29.999  10.281   7.990 -0.0975 -0.2867 -0.2611
 3705POPC   PO444978  30.156  10.636   8.129 -0.2585 -0.0678  0.2309
 3705POPC   GL144979  30.138  10.696   7.690  0.1039  0.0037  0.1691
 3705POPC   GL244980  29.999  10.453   7.524 -0.3720  0.1178 -0.0291
 3705POPC   C1A44981  30.165  10.775   7.180 -0.1096  0.0974 -0.4023
 3705POPC   D2A44982  30.152  10.854   6.729  0.1258  0.3394 -0.0021
 3705POPC   C3A44983  30.129  10.705   6.289  0.1128 -0.3528  0.0165
 3705POPC   C4A44984  30.068  10.360   5.915 -0.3700  0.1533  0.1385
 3705POPC   C1B44985  29.814  10.424   7.063  0.1405 -0.2491 -0.0224
 3705POPC   C2B44986  29.746  10.616   6.644 -0.0166 -0.0266  0.4409
 3705POPC   C3B44987  29.606  10.600   6.222  0.1153  0.2320  0.0905
 3705POPC   C4B44988  29.214  10.488   6.036 -0.0702 -0.1342 -0.2872
 3706POPC   NC344989   1.679  10.716   7.923  0.1909  0.0775 -0.1201
 3706POPC   PO444990   2.081  10.758   7.947 -0.0882  0.0326 -0.2842
 3706POPC   GL144991   2.116  10.713   7.564  0.1733 -0.2806 -0.2401
 3706POPC   GL244992   1.928  10.466   7.518  0.0809 -0.1583  0.0029
 3706POPC   C1A44993   1.866  10.782   7.133 -0.2336  0.0840 -0.0279
 3706POPC   D2A44994   1.683  10.894   6.724  0.0915 -0.0529  0.1690
 3706POPC   C3A44995   1.694  10.686   6.325  0.1537  0.1984 -0.2149
 3706POPC   C4A44996   1.853  10.357   6.005  0.0282  0.0358  0.0979
 3706POPC   C1B44997   1.910  10.159   7.178 -0.2037 -0.1203  0.1430
 3706POPC   C2B44998   1.803   9.895   6.753 -0.1249  0.2337  0.1084
 3706POPC   C3B44999   1.787   9.842   6.290 -0.3992  0.4439  0.1777
 3706POPC   C4B45000   2.151  10.013   6.055 -0.2868 -0.0037 -0.0574
 3707POPC   NC345001  28.299   2.848   8.022  0.1122  0.1116 -0.0148
 3707POPC   PO445002  27.914   2.718   8.086 -0.1267  0.3505  0.0301
 3707POPC   GL145003  27.554   2.968   8.096  0.1453  0.0632  0.0969
 3707POPC   GL245004  27.369   3.166   8.066 -0.2528 -0.1538 -0.0922
 3707POPC   C1A45005  27.177   2.797   8.236  0.0655  0.1256 -0.0366
 3707POPC   D2A45006  26.701   2.725   8.202  0.0809  0.2268  0.2036
 3707POPC   C3A45007  26.269   2.596   8.136 -0.3420 -0.2332 -0.0941
 3707POPC   C4A45008  25.858   2.766   8.088  0.0003  0.2461  0.2082
 3707POPC   C1B45009  27.018   3.030   7.843  0.0445 -0.1132 -0.3063
 3707POPC   C2B45010  26.687   2.797   7.710  0.0249 -0.1633  0.4229
 3707POPC   C3B45011  26.584   2.902   7.287 -0.0580  0.1819  0.1572
 3707POPC   C4B45012  26.177   3.037   7.118  0.2784  0.1078  0.1752
 3708POPC   NC345013  14.547  18.147   7.310  0.0767  0.0446  0.0373
 3708POPC   PO445014  14.310  17.955   7.588 -0.0260  0.0351  0.0151
 3708POPC   GL145015  14.141  17.751   7.298  0.0628 -0.3501  0.0061
 3708POPC   GL245016  13.940  18.001   7.228 -0.3905 -0.1568  0.0315
 3708POPC   C1A45017  14.241  17.914   6.857  0.3271  0.1236  0.0944
 3708POPC   D2A45018  13.971  18.000   6.473  0.0442 -0.3408  0.0501
 3708POPC   C3A45019  14.112  18.019   6.041  0.0313 -0.0377 -0.0367
 3708POPC   C4A45020  14.275  17.700   5.735 -0.4203 -0.1366 -0.4284
 3708POPC   C1B45021  13.847  17.575   7.010  0.0018  0.0220 -0.2286
 3708POPC   C2B45022  14.006  17.543   6.595  0.0459  0.2839 -0.0073
 3708POPC   C3B45023  13.989  17.506   6.102  0.1385  0.1076 -0.2816
 3708POPC   C4B45024  13.839  17.427   5.748 -0.0027  0.1505  0.1804
 3709POPC   NC345025   2.532  16.012   7.611  0.0091 -0.0496  0.1876
 3709POPC   PO445026   2.798  15.836   7.439 -0.0152  0.2840  0.1695
 3709POPC   GL145027   2.717  15.623   7.217 -0.1251 -0.2736 -0.1066
 3709POPC   GL245028   2.807  15.299   7.326  0.1215 -0.1343  0.1932
 3709POPC   C1A45029   2.733  15.580   6.759  0.0652  0.3436  0.0127
 3709POPC   D2A45030   2.751  15.425   6.305 -0.2387 -0.1203 -0.0320
 3709POPC   C3A45031   2.912  15.360   5.833  0.5088  0.0082  0.0137
 3709POPC   C4A45032   2.821  15.364   5.374 -0.1061  0.1416 -0.0554
 3709POPC   C1B45033   2.777  14.831   7.290  0.2386  0.0447 -0.1786
 3709POPC   C2B45034   2.956  14.581   6.939  0.7299  0.2577  0.1473
 3709POPC   C3B45035   2.946  14.531   6.473 -0.0496  0.1901  0.0765
 3709POPC   C4B45036   3.169  14.424   6.071 -0.0209 -0.2253  0.0270
 3710POPC   NC345037  23.130  24.902   7.261 -0.1302  0.1109  0.3807
 3710POPC   PO445038  23.132  25.279   7.258  0.1663 -0.1183  0.2183
 3710POPC   GL145039  23.387  25.434   6.969 -0.1331 -0.2623  0.0927
 3710POPC   GL245040  23.454  25.202   6.859 -0.1499  0.0230  0.2339
 3710POPC   C1A45041  23.539  25.488   6.513  0.0851  0.1896  0.1811
 3710POPC   D2A45042  23.406  25.343   6.084 -0.0208  0.0937 -0.0383
 3710POPC   C3A45043  23.598  25.253   5.707 -0.1291  0.0279  0.0348
 3710POPC   C4A45044  24.043  25.084   5.583  0.0999 -0.1457  0.0859
 3710POPC   C1B45045  23.361  24.968   6.391  0.0552 -0.1319  0.1151
 3710POPC   C2B45046  23.300  24.630   6.060 -0.3598 -0.1242 -0.1597
 3710POPC   C3B45047  23.164  24.512   5.648  0.2767  0.1402 -0.0988
 3710POPC   C4B45048  23.213  24.248   5.325  0.0329  0.0866 -0.1452
 3711POPC   NC345049  23.091   4.495   7.622  0.1017  0.1253 -0.1072
 3711POPC   PO445050  23.343   4.219   7.738  0.0955  0.0861  0.1377
 3711POPC   GL145051  23.504   4.427   7.431  0.3365 -0.3022  0.0415
 3711POPC   GL245052  23.559   4.712   7.391 -0.0838  0.0594 -0.0078
 3711POPC   C1A45053  23.688   4.246   7.022  0.3341 -0.3311 -0.1710
 3711POPC   D2A45054  23.702   4.340   6.554  0.0745 -0.2235  0.1036
 3711POPC   C3A45055  24.016   4.650   6.487  0.0418  0.0375  0.0406
 3711POPC   C4A45056  24.201   4.879   6.155 -0.1280  0.1375 -0.3393
 3711POPC   C1B45057  23.188   4.484   7.115 -0.3545  0.0564 -0.3168
 3711POPC   C2B45058  22.877   4.298   6.814 -0.1317 -0.2826  0.0730
 3711POPC   C3B45059  22.859   4.347   6.351 -0.0525  0.2898  0.0715
 3711POPC   C4B45060  22.863   4.372   5.861  0.4473  0.0078 -0.0336
 3712POPC   NC345061  29.266  18.124   6.929 -0.1926 -0.3301 -0.1047
 3712POPC   PO445062  29.403  18.418   7.184 -0.0422  0.1336 -0.0482
 3712POPC   GL145063  29.707  18.282   6.936 -0.1078  0.0240  0.0323
 3712POPC   GL245064  29.656  18.396   6.658  0.1604 -0.0196  0.0307
 3712POPC   C1A45065  30.153  18.336   6.764  0.1644  0.0153  0.1989
 3712POPC   D2A45066  30.371  18.235   6.340 -0.1600 -0.1254  0.4358
 3712POPC   C3A45067  30.524  18.548   6.099  0.5872 -0.0798 -0.0858
 3712POPC   C4A45068  30.889  18.793   6.142  0.1585 -0.2319  0.2413
 3712POPC   C1B45069  29.712  18.431   6.226 -0.4900 -0.0889 -0.1046
 3712POPC   C2B45070  30.006  18.430   5.853 -0.1740  0.1873 -0.0882
 3712POPC   C3B45071  30.412  18.185   5.752  0.3034 -0.0712  0.0839
 3712POPC   C4B45072  30.857  18.227   5.868  0.1602 -0.2226 -0.0225
 3713POPC   NC345073   4.158  20.976   8.192  0.1708 -0.5457 -0.1353
 3713POPC   PO445074   3.905  20.758   7.977  0.2204 -0.3078 -0.2154
 3713POPC   GL145075   3.990  20.897   7.608  0.0556  0.0275  0.5007
 3713POPC   GL245076   3.961  21.194   7.707 -0.0929 -0.1459  0.0220
 3713POPC   C1A45077   4.011  20.808   7.115 -0.0645 -0.1921  0.0774
 3713POPC   D2A45078   4.028  20.814   6.636  0.0444  0.0434  0.0157
 3713POPC   C3A45079   4.440  20.756   6.501  0.0731 -0.0496 -0.0870
 3713POPC   C4A45080   4.818  20.846   6.256 -0.1094  0.0218  0.1081
 3713POPC   C1B45081   3.744  21.287   7.320 -0.1151  0.3271  0.0630
 3713POPC   C2B45082   3.857  21.234   6.901  0.3576  0.0920  0.4363
 3713POPC   C3B45083   3.854  21.375   6.446 -0.0416  0.2199 -0.1458
 3713POPC   C4B45084   3.851  21.831   6.229  0.1365  0.2912  0.1342
 3714POPC   NC345085  17.304   7.002   7.292 -0.1624  0.4806  0.0961
 3714POPC   PO445086  17.292   7.217   7.641  0.0808  0.1174 -0.2869
 3714POPC   GL145087  17.594   7.351   7.511  0.0512  0.1024 -0.2306
 3714POPC   GL245088  17.816   7.124   7.418  0.0475 -0.2846  0.2425
 3714POPC   C1A45089  17.994   7.529   7.316 -0.2732 -0.1870 -0.1344
 3714POPC   D2A45090  18.163   7.507   6.828 -0.2447  0.1395  0.0436
 3714POPC   C3A45091  18.028   7.602   6.408  0.0401  0.1986  0.2106
 3714POPC   C4A45092  18.023   7.762   5.997 -0.3728 -0.1805  0.1293
 3714POPC   C1B45093  17.686   7.280   6.939  0.2969  0.0335  0.0071
 3714POPC   C2B45094  17.442   7.601   6.700 -0.2083 -0.1289  0.0310
 3714POPC   C3B45095  17.438   7.867   6.371 -0.0051 -0.0813  0.0121
 3714POPC   C4B45096  17.284   7.983   5.941 -0.1713 -0.2960 -0.2349
 3715POPC   NC345097  28.998  23.405   7.876  0.0372 -0.0969  0.1378
 3715POPC   PO445098  28.821  23.755   7.989 -0.2240 -0.0054  0.1210
 3715POPC   GL145099  28.787  23.765   7.646  0.2598 -0.1601  0.3503
 3715POPC   GL245100  28.561  23.510   7.618  0.1530 -0.0930 -0.1554
 3715POPC   C1A45101  29.041  23.917   7.259 -0.1530 -0.3312 -0.3311
 3715POPC   D2A45102  29.260  23.727   6.970  0.0230 -0.0115  0.3580
 3715POPC   C3A45103  29.625  23.906   6.728  0.3077  0.3975 -0.0511
 3715POPC   C4A45104  29.850  23.900   6.294 -0.2156  0.1892 -0.2080
 3715POPC   C1B45105  28.632  23.517   7.136 -0.2341 -0.2798  0.2077
 3715POPC   C2B45106  28.824  23.606   6.691 -0.0468 -0.1884 -0.1197
 3715POPC   C3B45107  28.806  23.675   6.177 -0.2816  0.2525 -0.3536
 3715POPC   C4B45108  28.559  23.649   5.788  0.1608 -0.2167  0.0498
 3716POPC   NC345109  27.348  25.896   7.914 -0.1031  0.1436 -0.3507
 3716POPC   PO445110  27.046  25.916   7.699  0.0306  0.1813  0.3616
 3716POPC   GL145111  27.194  25.930   7.314 -0.1074  0.4029 -0.1870
 3716POPC   GL245112  27.074  26.172   7.212  0.1195 -0.0539  0.0700
 3716POPC   C1A45113  27.378  25.902   6.896  0.2070 -0.2985 -0.0196
 3716POPC   D2A45114  27.483  26.176   6.518 -0.0262  0.0589 -0.3747
 3716POPC   C3A45115  27.573  26.037   6.104 -0.0275 -0.0718 -0.0804
 3716POPC   C4A45116  27.671  25.657   5.879  0.0397  0.1430 -0.1469
 3716POPC   C1B45117  27.046  26.227   6.765 -0.2924 -0.1818 -0.3105
 3716POPC   C2B45118  26.977  26.190   6.308 -0.2412 -0.1639  0.0420
 3716POPC   C3B45119  26.750  26.170   5.901 -0.1489 -0.1110  0.0177
 3716POPC   C4B45120  26.682  26.370   5.562 -0.0713  0.0206  0.0456
 3717POPC   NC345121  19.173  18.210   7.367  0.3911 -0.1163  0.1049
 3717POPC   PO445122  19.479  18.453   7.373  0.0082 -0.1367 -0.1342
 3717POPC   GL145123  19.256  18.563   7.078 -0.1045  0.2193  0.3816
 3717POPC   GL245124  19.270  18.825   7.114  0.1728  0.2113 -0.1772
 3717POPC   C1A45125  19.268  18.185   6.805 -0.0491  0.0770  0.0213
 3717POPC   D2A45126  19.368  18.027   6.388  0.1258 -0.1687  0.0505
 3717POPC   C3A45127  19.172  18.237   6.031  0.0829 -0.1817 -0.2381
 3717POPC   C4A45128  19.251  18.745   6.021  0.0421 -0.2765  0.0408
 3717POPC   C1B45129  19.556  19.004   6.909  0.0953  0.0997 -0.1078
 3717POPC   C2B45130  19.795  19.282   6.660  0.1334 -0.2785  0.0044
 3717POPC   C3B45131  19.817  19.390   6.196 -0.0529  0.0770  0.0914
 3717POPC   C4B45132  19.625  19.600   5.842  0.6409  0.0756 -0.0670
 3718POPC   NC345133   4.415  11.902   7.963 -0.1566  0.2507 -0.0386
 3718POPC   PO445134   4.573  11.736   7.660 -0.3081 -0.2791  0.1116
 3718POPC   GL145135   4.561  11.419   7.455 -0.1920  0.2034  0.1542
 3718POPC   GL245136   4.694  11.553   7.147 -0.1969 -0.0262 -0.0668
 3718POPC   C1A45137   4.262  11.292   7.136  0.1073  0.1597  0.2346
 3718POPC   D2A45138   4.282  11.002   6.769  0.0571 -0.0250  0.3473
 3718POPC   C3A45139   4.211  11.119   6.329  0.0154  0.2493  0.1154
 3718POPC   C4A45140   4.439  11.163   5.932  0.0135 -0.1296 -0.1898
 3718POPC   C1B45141   4.751  11.622   6.760  0.1253  0.4528 -0.1345
 3718POPC   C2B45142   4.584  11.545   6.328  0.2324  0.2160 -0.1514
 3718POPC   C3B45143   4.347  11.928   6.089 -0.3067 -0.1289 -0.2002
 3718POPC   C4B45144   3.977  12.070   5.839  0.1233  0.0473 -0.2639
 3719POPC   NC345145   5.217  17.221   7.896  0.3147  0.2001  0.2168
 3719POPC   PO445146   4.802  17.214   7.865  0.0396 -0.1544 -0.1255
 3719POPC   GL145147   4.943  16.968   7.557  0.1283 -0.2804 -0.2697
 3719POPC   GL245148   4.984  17.246   7.385 -0.1243 -0.0375  0.1054
 3719POPC   C1A45149   5.126  16.822   7.157  0.2226 -0.1142 -0.1548
 3719POPC   D2A45150   5.050  16.690   6.714  0.0301 -0.0279  0.1656
 3719POPC   C3A45151   5.166  16.552   6.303  0.4767  0.1945 -0.0930
 3719POPC   C4A45152   5.238  16.230   5.950 -0.1476 -0.4615  0.0562
 3719POPC   C1B45153   5.048  17.245   6.948  0.1323 -0.0963 -0.1272
 3719POPC   C2B45154   5.229  17.339   6.543 -0.1712 -0.1263 -0.2034
 3719POPC   C3B45155   5.364  16.976   6.281 -0.2177 -0.0862 -0.0779
 3719POPC   C4B45156   5.624  16.661   6.543 -0.1504 -0.2230 -0.1945
 3720POPC   NC345157   4.517   1.266   7.555 -0.1413 -0.0726 -0.2354
 3720POPC   PO445158   4.353   0.964   7.802 -0.1684  0.0227 -0.3876
 3720POPC   GL145159   4.739   0.765   7.550  0.1062 -0.2095  0.1011
 3720POPC   GL245160   4.529   0.662   7.454  0.2439 -0.0463  0.0184
 3720POPC   C1A45161   4.907   1.059   7.211 -0.0264 -0.0283 -0.1151
 3720POPC   D2A45162   4.825   1.311   6.839 -0.3682 -0.1661 -0.2896
 3720POPC   C3A45163   4.782   1.178   6.384  0.2491 -0.2781  0.2057
 3720POPC   C4A45164   4.671   1.056   5.980  0.1897 -0.0462 -0.0315
 3720POPC   C1B45165   4.737   0.524   7.102  0.0900 -0.1427  0.2118
 3720POPC   C2B45166   5.117   0.540   6.838  0.1318  0.1343  0.2520
 3720POPC   C3B45167   5.475   0.544   6.513 -0.0078 -0.2035  0.2190
 3720POPC   C4B45168   5.569   0.674   6.063  0.0055  0.2902  0.1360
 3721POPC   NC345169   0.825   1.915   8.019  0.2846  0.1347 -0.3847
 3721POPC   PO445170   0.586   1.671   7.821  0.3140 -0.2154  0.0493
 3721POPC   GL145171   0.575   1.556   7.433 -0.1867  0.4796  0.0269
 3721POPC   GL245172   0.866   1.662   7.303 -0.0377 -0.1695 -0.0292
 3721POPC   C1A45173   0.209   1.571   7.179  0.0053 -0.0486  0.0609
 3721POPC   D2A45174   0.073   1.901   6.797 -0.0878  0.2166  0.2217
 3721POPC   C3A45175   0.353   2.275   6.795  0.1323 -0.1348 -0.1958
 3721POPC   C4A45176   0.541   2.662   6.926  0.0110 -0.0410 -0.0799
 3721POPC   C1B45177   0.726   1.865   6.889 -0.1270 -0.1763  0.0375
 3721POPC   C2B45178   0.772   2.217   6.556  0.3486 -0.0711  0.0191
 3721POPC   C3B45179   0.600   2.589   6.436 -0.0967 -0.2455 -0.1674
 3721POPC   C4B45180   0.732   3.010   6.320 -0.1081  0.0554  0.2627
 3722POPC   NC345181   5.519   3.125   7.755  0.2303  0.2810 -0.0153
 3722POPC   PO445182   5.894   3.115   7.806 -0.2057 -0.0721  0.0151
 3722POPC   GL145183   5.938   3.092   7.433 -0.0986  0.4435  0.1050
 3722POPC   GL245184   5.769   3.304   7.324  0.0268  0.1215 -0.1232
 3722POPC   C1A45185   6.023   2.788   7.114  0.1739  0.1701  0.0964
 3722POPC   D2A45186   6.238   2.370   7.062 -0.3871  0.1434 -0.3103
 3722POPC   C3A45187   6.390   2.235   6.692  0.0473  0.0075  0.0294
 3722POPC   C4A45188   6.169   2.219   6.323 -0.4274  0.2530  0.0947
 3722POPC   C1B45189   5.732   3.125   6.878 -0.0475 -0.2079 -0.1236
 3722POPC   C2B45190   5.615   3.110   6.407  0.0601 -0.2612 -0.1669
 3722POPC   C3B45191   5.579   2.878   6.029 -0.0690  0.0495  0.0272
 3722POPC   C4B45192   5.482   2.516   5.767 -0.2158  0.1293 -0.3297
 3723POPC   NC345193  21.556  17.800   7.803  0.1730 -0.1142  0.2092
 3723POPC   PO445194  21.831  17.973   8.001  0.2704  0.0054 -0.0743
 3723POPC   GL145195  22.203  17.778   7.816 -0.3199 -0.1233 -0.1210
 3723POPC   GL245196  22.342  17.816   8.089  0.5102  0.0426  0.1322
 3723POPC   C1A45197  22.424  17.928   7.402 -0.1737 -0.0396 -0.1754
 3723POPC   D2A45198  22.544  17.983   6.963 -0.1679 -0.1875  0.0327
 3723POPC   C3A45199  22.349  17.801   6.585  0.2892  0.1096  0.1737
 3723POPC   C4A45200  22.504  17.781   6.175 -0.0803  0.1765 -0.0178
 3723POPC   C1B45201  22.639  17.676   7.822 -0.1883  0.4472 -0.0551
 3723POPC   C2B45202  22.933  17.731   7.467 -0.1312 -0.0763  0.1426
 3723POPC   C3B45203  22.924  17.645   7.010 -0.0074  0.0281 -0.0964
 3723POPC   C4B45204  22.859  17.601   6.589  0.0460 -0.2053  0.2191
 3724POPC   NC345205   4.263   6.934   8.028  0.1331  0.4369  0.4766
 3724POPC   PO445206   4.586   6.878   8.166  0.0429  0.0512  0.3420
 3724POPC   GL145207   4.569   6.678   7.777 -0.4108 -0.2321 -0.2097
 3724POPC   GL245208   4.325   6.503   7.714  0.0539 -0.0802  0.0318
 3724POPC   C1A45209   4.516   6.894   7.381  0.0536 -0.4166 -0.0471
 3724POPC   D2A45210   4.787   6.902   6.989 -0.0704  0.0338 -0.1792
 3724POPC   C3A45211   5.125   6.613   6.992 -0.0423 -0.3471 -0.0341
 3724POPC   C4A45212   5.558   6.731   7.097  0.0604  0.4837  0.1170
 3724POPC   C1B45213   4.160   6.534   7.239  0.1856 -0.1874 -0.1394
 3724POPC   C2B45214   4.168   6.775   6.818 -0.0194 -0.2709 -0.0905
 3724POPC   C3B45215   4.062   7.004   6.429 -0.1168  0.1305 -0.0168
 3724POPC   C4B45216   3.662   6.976   6.112 -0.0049  0.0463 -0.0179
 3725POPC   NC345217  24.208  21.478   7.841  0.2728 -0.0925 -0.3295
 3725POPC   PO445218  23.943  21.294   7.605  0.0538 -0.0680 -0.0331
 3725POPC   GL145219  23.977  21.418   7.324  0.1409 -0.0427 -0.1641
 3725POPC   GL245220  23.827  21.566   7.068 -0.0415  0.0683  0.1788
 3725POPC   C1A45221  24.263  21.315   6.970  0.3179  0.0948  0.0371
 3725POPC   D2A45222  24.547  21.596   6.714  0.0368  0.4145 -0.2343
 3725POPC   C3A45223  24.865  21.658   6.373 -0.0048  0.0889 -0.3632
 3725POPC   C4A45224  25.309  21.584   6.324 -0.2105 -0.0284  0.1208
 3725POPC   C1B45225  24.043  21.752   6.714 -0.0585  0.2543 -0.0004
 3725POPC   C2B45226  24.352  21.900   6.394  0.2615  0.0419 -0.2319
 3725POPC   C3B45227  24.703  22.074   6.089  0.0978  0.0779  0.2044
 3725POPC   C4B45228  25.224  22.009   6.099  0.2414  0.0469  0.3271
 3726POPC   NC345229  19.538   8.873   8.321  0.1672  0.1131 -0.4148
 3726POPC   PO445230  19.311   8.957   7.982 -0.1477 -0.2463 -0.0022
 3726POPC   GL145231  19.003   8.684   7.816 -0.1750 -0.3740  0.2018
 3726POPC   GL245232  18.816   8.909   7.698 -0.1002 -0.0152  0.1012
 3726POPC   C1A45233  18.761   8.324   7.612 -0.0238 -0.1183  0.0416
 3726POPC   D2A45234  18.916   8.087   7.230 -0.0573 -0.4247  0.0003
 3726POPC   C3A45235  18.743   8.316   6.843 -0.0409  0.0405  0.3663
 3726POPC   C4A45236  18.858   8.696   6.564 -0.0387  0.2904 -0.2387
 3726POPC   C1B45237  19.050   9.105   7.349  0.0769 -0.1371  0.0049
 3726POPC   C2B45238  18.876   9.151   6.913 -0.4938 -0.0543  0.2034
 3726POPC   C3B45239  19.036   9.140   6.497 -0.1072 -0.1337  0.2396
 3726POPC   C4B45240  19.194   9.455   6.135  0.2548  0.0156  0.2159
 3727POPC   NC345241   0.324   1.218   7.763  0.0720 -0.3692 -0.0681
 3727POPC   PO445242   0.346   0.856   7.671  0.1881 -0.0802 -0.1214
 3727POPC   GL145243   0.436   0.918   7.271  0.0042 -0.3214 -0.1008
 3727POPC   GL245244   0.515   1.144   7.232  0.0317  0.1474  0.0215
 3727POPC   C1A45245   0.587   0.721   6.903  0.1643 -0.0533  0.5905
 3727POPC   D2A45246   0.526   0.773   6.442 -0.2208 -0.1039  0.0584
 3727POPC   C3A45247   0.489   1.073   6.108  0.2027  0.1752  0.3989
 3727POPC   C4A45248   0.610   0.894   5.705  0.0342 -0.2608 -0.1014
 3727POPC   C1B45249   0.475   1.211   6.781  0.0984  0.2713  0.0125
 3727POPC   C2B45250   0.383   1.521   6.453  0.0768  0.3269  0.3647
 3727POPC   C3B45251   0.359   1.944   6.349 -0.0756 -0.1911  0.1219
 3727POPC   C4B45252   0.542   2.254   6.036  0.2887 -0.1944 -0.2103
 3728POPC   NC345253  23.572   5.868   7.394 -0.0316 -0.3300 -0.0280
 3728POPC   PO445254  23.407   5.724   7.715  0.0335 -0.2183 -0.0213
 3728POPC   GL145255  23.101   5.828   7.415  0.0318  0.0259 -0.0453
 3728POPC   GL245256  23.106   6.136   7.353  0.1681 -0.3486  0.1930
 3728POPC   C1A45257  23.318   5.834   6.974 -0.0567  0.2404 -0.1194
 3728POPC   D2A45258  23.264   5.448   6.723 -0.0181  0.2496 -0.0085
 3728POPC   C3A45259  23.195   5.143   6.391 -0.0410  0.1466 -0.0646
 3728POPC   C4A45260  23.028   4.766   6.190 -0.1182  0.0432  0.0435
 3728POPC   C1B45261  22.762   6.323   7.051 -0.0306  0.0704  0.3644
 3728POPC   C2B45262  22.693   6.281   6.539  0.1267  0.0844 -0.1056
 3728POPC   C3B45263  22.925   6.386   6.172 -0.0113 -0.2660 -0.0069
 3728POPC   C4B45264  23.335   6.541   5.954 -0.0064 -0.3841  0.2693
 3729POPC   NC345265  17.255   0.214   7.950  0.1891  0.0884 -0.1577
 3729POPC   PO445266  17.344   0.005   7.651 -0.0245  0.0205 -0.5016
 3729POPC   GL145267  17.317  -0.069   7.219  0.1855 -0.2735 -0.0773
 3729POPC   GL245268  17.280  -0.397   7.193 -0.1256  0.0453 -0.0912
 3729POPC   C1A45269  17.310  -0.033   6.773  0.0703  0.1377  0.0945
 3729POPC   D2A45270  17.392  -0.029   6.323  0.3321  0.1503 -0.4686
 3729POPC   C3A45271  17.577   0.322   6.141  0.2421  0.0097 -0.0045
 3729POPC   C4A45272  17.795   0.684   6.321 -0.2695 -0.0932  0.4574
 3729POPC   C1B45273  17.412  -0.500   6.755  0.2719  0.0004  0.0644
 3729POPC   C2B45274  17.457  -0.613   6.302 -0.1101 -0.0244 -0.0457
 3729POPC   C3B45275  17.607  -0.945   5.990 -0.0383  0.2357 -0.1619
 3729POPC   C4B45276  17.576  -1.388   5.909 -0.0059 -0.1859  0.1718
 3730POPC   NC345277  15.495  14.995   7.608  0.1118 -0.1243  0.0286
 3730POPC   PO445278  15.199  14.771   7.723 -0.3481 -0.2101  0.1055
 3730POPC   GL145279  15.012  14.745   7.441 -0.0569  0.0722 -0.3588
 3730POPC   GL245280  15.121  14.884   7.222  0.2970  0.0854  0.1903
 3730POPC   C1A45281  15.004  14.348   7.174  0.0081 -0.2102 -0.3116
 3730POPC   D2A45282  15.031  14.170   6.756  0.1950  0.1709  0.3655
 3730POPC   C3A45283  14.950  14.063   6.314 -0.2396 -0.0862  0.0418
 3730POPC   C4A45284  14.936  13.906   5.915 -0.3446 -0.2744 -0.3863
 3730POPC   C1B45285  15.084  14.819   6.824  0.0596  0.2854  0.2430
 3730POPC   C2B45286  14.950  14.595   6.490 -0.0572  0.0624  0.1734
 3730POPC   C3B45287  15.006  14.470   6.039  0.1557  0.0394  0.1077
 3730POPC   C4B45288  15.247  14.267   5.698 -0.2790  0.1161  0.0434
 3731POPC   NC345289  15.563  21.604   7.513 -0.2077  0.0256 -0.2032
 3731POPC   PO445290  15.828  21.865   7.665 -0.3078 -0.3587 -0.0019
 3731POPC   GL145291  15.586  22.073   7.424 -0.2190  0.0038 -0.0730
 3731POPC   GL245292  15.757  22.338   7.474  0.2413 -0.0451  0.1752
 3731POPC   C1A45293  15.725  22.155   6.987  0.0795  0.4067 -0.1381
 3731POPC   D2A45294  15.669  22.137   6.509  0.2239 -0.1209 -0.0624
 3731POPC   C3A45295  15.770  21.906   6.181  0.0056  0.1443 -0.3439
 3731POPC   C4A45296  15.605  21.528   5.887  0.2112  0.0288  0.0416
 3731POPC   C1B45297  15.608  22.681   7.255  0.3601 -0.3242  0.0839
 3731POPC   C2B45298  15.574  22.968   6.866  0.0214 -0.1410 -0.0041
 3731POPC   C3B45299  15.751  23.177   6.455 -0.1149 -0.0576  0.1589
 3731POPC   C4B45300  15.983  23.487   6.148 -0.0692  0.5075 -0.3832
 3732POPC   NC345301   7.023  31.215   7.849 -0.0039 -0.0222  0.1318
 3732POPC   PO445302   7.018  31.617   7.929  0.0790 -0.0654 -0.1275
 3732POPC   GL145303   7.133  31.629   7.547  0.0855 -0.1146  0.0067
 3732POPC   GL245304   6.923  31.528   7.378  0.0337 -0.1161 -0.0440
 3732POPC   C1A45305   7.392  31.386   7.283 -0.1851 -0.0512  0.0160
 3732POPC   D2A45306   7.503  31.217   6.860  0.0440 -0.3587  0.3410
 3732POPC   C3A45307   7.176  31.194   6.517  0.0345  0.0746  0.2697
 3732POPC   C4A45308   6.960  31.089   6.153 -0.2690  0.3250 -0.1806
 3732POPC   C1B45309   7.139  31.708   7.010  0.3002 -0.0124  0.1459
 3732POPC   C2B45310   7.222  31.712   6.536  0.1354  0.2331  0.0647
 3732POPC   C3B45311   7.443  31.807   6.133 -0.0870  0.0778 -0.1718
 3732POPC   C4B45312   7.458  32.081   5.798  0.1192 -0.1044 -0.1278
 3733POPC   NC345313  20.108   1.870   7.434  0.0166  0.1681 -0.0414
 3733POPC   PO445314  20.468   1.831   7.580 -0.1628 -0.0006 -0.3136
 3733POPC   GL145315  20.514   1.918   7.211 -0.4497  0.1424 -0.3534
 3733POPC   GL245316  20.798   1.997   7.057 -0.3173  0.1586 -0.3338
 3733POPC   C1A45317  20.427   2.269   6.937 -0.0444  0.0726  0.1312
 3733POPC   D2A45318  20.118   2.499   6.690  0.1555  0.0939  0.1282
 3733POPC   C3A45319  20.164   2.594   6.251 -0.3000 -0.2021  0.3114
 3733POPC   C4A45320  20.324   2.676   5.802 -0.1554  0.0494  0.2040
 3733POPC   C1B45321  20.977   2.224   6.694  0.0589 -0.3392 -0.1544
 3733POPC   C2B45322  21.042   2.510   6.326  0.2590  0.4311  0.0553
 3733POPC   C3B45323  21.242   2.586   5.979 -0.1615 -0.1445 -0.0723
 3733POPC   C4B45324  21.617   2.493   5.735 -0.1246  0.2181  0.1769
 3734POPC   NC345325   8.698   9.806   8.058 -0.0716  0.1466  0.0984
 3734POPC   PO445326   8.779   9.407   7.965 -0.1395 -0.2797 -0.1627
 3734POPC   GL145327   9.036   9.335   7.661 -0.3059 -0.1357  0.1255
 3734POPC   GL245328   9.072   9.592   7.559  0.2305  0.0645 -0.0561
 3734POPC   C1A45329   8.830   9.322   7.268  0.0384 -0.2699  0.0579
 3734POPC   D2A45330   8.795   9.516   6.867 -0.0861  0.0198 -0.0875
 3734POPC   C3A45331   9.102   9.647   6.477 -0.1343 -0.0276 -0.3454
 3734POPC   C4A45332   9.258   9.943   6.122  0.1570  0.2464  0.1734
 3734POPC   C1B45333   9.090   9.893   7.159 -0.0580 -0.2860  0.0138
 3734POPC   C2B45334   9.184  10.057   6.728 -0.1153 -0.0398 -0.2436
 3734POPC   C3B45335   9.476  10.258   6.538  0.4574  0.1485  0.2220
 3734POPC   C4B45336   9.502  10.312   6.083 -0.0560 -0.2136  0.0971
 3735POPC   NC345337   0.108   3.266   7.936  0.3361  0.0303 -0.2287
 3735POPC   PO445338  -0.256   3.250   7.843 -0.2618 -0.0441 -0.2861
 3735POPC   GL145339  -0.094   3.314   7.448 -0.1350  0.0866  0.1959
 3735POPC   GL245340   0.045   3.041   7.498 -0.3379 -0.0885 -0.2576
 3735POPC   C1A45341   0.207   3.254   7.071  0.2083 -0.2722  0.2971
 3735POPC   D2A45342   0.601   3.150   6.872 -0.2144  0.1781  0.0250
 3735POPC   C3A45343   1.068   3.244   6.931  0.0436 -0.0325  0.1332
 3735POPC   C4A45344   1.377   3.488   7.150 -0.2577 -0.0570 -0.1007
 3735POPC   C1B45345   0.110   2.759   7.153  0.1779  0.1643  0.0710
 3735POPC   C2B45346   0.139   2.732   6.668 -0.2669  0.1250  0.1196
 3735POPC   C3B45347   0.222   2.875   6.221  0.2865 -0.0573  0.3078
 3735POPC   C4B45348   0.482   2.764   5.885  0.3305  0.1668  0.0968
 3736POPC   NC345349  18.264  16.045   7.952 -0.1344 -0.0487 -0.1385
 3736POPC   PO445350  18.621  15.873   7.812 -0.1527 -0.2299 -0.2658
 3736POPC   GL145351  18.414  15.886   7.513 -0.0414  0.1491  0.2440
 3736POPC   GL245352  18.497  16.056   7.294 -0.0522 -0.1038 -0.0394
 3736POPC   C1A45353  18.108  15.831   7.116 -0.0944 -0.0659  0.0816
 3736POPC   D2A45354  17.924  15.541   6.823 -0.0108 -0.0312  0.1453
 3736POPC   C3A45355  17.897  15.552   6.410  0.0590  0.0919  0.0784
 3736POPC   C4A45356  17.914  15.444   5.944 -0.0825  0.0960  0.1406
 3736POPC   C1B45357  18.774  15.934   6.918  0.0244  0.1660 -0.3689
 3736POPC   C2B45358  19.039  15.742   6.608 -0.0419  0.1433 -0.2272
 3736POPC   C3B45359  18.999  15.610   6.159 -0.1724 -0.0635 -0.2302
 3736POPC   C4B45360  18.765  15.734   5.811  0.0919  0.0701 -0.1019
 3737POPC   NC345361  13.055  17.432   7.300  0.0333  0.1175  0.1835
 3737POPC   PO445362  13.122  17.028   7.403  0.1484 -0.3343 -0.2851
 3737POPC   GL145363  13.142  17.043   6.979 -0.2187 -0.1115  0.1946
 3737POPC   GL245364  13.081  17.332   6.817 -0.1182 -0.2551 -0.0831
 3737POPC   C1A45365  13.433  17.116   6.631  0.3032 -0.1377  0.2337
 3737POPC   D2A45366  13.697  16.934   6.292  0.5391 -0.2690  0.2351
 3737POPC   C3A45367  13.493  16.840   5.898 -0.3122 -0.1053 -0.1842
 3737POPC   C4A45368  13.118  16.739   5.647  0.0621  0.3642 -0.3733
 3737POPC   C1B45369  13.186  17.452   6.345 -0.1936  0.1464  0.1055
 3737POPC   C2B45370  13.429  17.526   6.025 -0.1494  0.1287  0.2106
 3737POPC   C3B45371  13.396  17.261   5.656 -0.0175  0.1734 -0.3201
 3737POPC   C4B45372  13.499  17.009   5.287 -0.0104 -0.1733 -0.0840
 3738POPC   NC345373  18.877  23.286   8.003  0.2760 -0.1140 -0.0225
 3738POPC   PO445374  18.524  23.420   7.874 -0.1768 -0.0384  0.2884
 3738POPC   GL145375  18.386  23.704   7.565  0.0027 -0.0425  0.1621
 3738POPC   GL245376  18.271  23.685   7.258 -0.0025 -0.1194 -0.1978
 3738POPC   C1A45377  18.420  24.123   7.649 -0.2170 -0.2038 -0.1606
 3738POPC   D2A45378  18.275  24.537   7.543 -0.0630  0.0767 -0.0195
 3738POPC   C3A45379  18.345  24.689   7.036  0.0694  0.0728  0.4710
 3738POPC   C4A45380  18.452  24.790   6.616  0.2762 -0.1425  0.0389
 3738POPC   C1B45381  18.687  23.754   7.005 -0.1346 -0.0370 -0.3054
 3738POPC   C2B45382  18.735  23.757   6.532 -0.2626  0.0767 -0.0054
 3738POPC   C3B45383  18.646  23.703   6.065  0.3235 -0.1004 -0.1346
 3738POPC   C4B45384  18.612  24.022   5.654  0.1326  0.2983  0.1090
 3739POPC   NC345385  24.714  27.169   7.719  0.0800 -0.1264  0.2110
 3739POPC   PO445386  25.081  27.240   7.834  0.1576 -0.2863  0.0329
 3739POPC   GL145387  25.069  27.048   7.416  0.0603 -0.3130  0.0651
 3739POPC   GL245388  25.230  26.931   7.277 -0.1363  0.3253  0.1889
 3739POPC   C1A45389  25.004  27.255   6.996  0.1500  0.1530  0.0677
 3739POPC   D2A45390  25.210  27.563   6.760  0.2369  0.3030 -0.0357
 3739POPC   C3A45391  24.986  27.578   6.386 -0.2743  0.0222 -0.0566
 3739POPC   C4A45392  24.747  27.577   5.996  0.2453  0.1964  0.1072
 3739POPC   C1B45393  25.344  26.883   6.856 -0.0037  0.1995  0.4034
 3739POPC   C2B45394  25.514  26.745   6.459 -0.0067  0.1170  0.1206
 3739POPC   C3B45395  25.596  26.721   5.999  0.1435 -0.1888  0.1435
 3739POPC   C4B45396  25.971  26.860   5.706 -0.1020  0.0115  0.1737
 3740POPC   NC345397   6.968   1.105   8.198 -0.2709  0.1656  0.1118
 3740POPC   PO445398   7.111   1.419   8.341 -0.3305 -0.1069  0.1162
 3740POPC   GL145399   7.185   1.596   8.011  0.3308 -0.1080  0.1941
 3740POPC   GL245400   7.165   1.411   7.816  0.1541  0.1904 -0.2947
 3740POPC   C1A45401   7.471   1.693   7.615 -0.2629  0.2805  0.2506
 3740POPC   D2A45402   7.667   1.584   7.161  0.2402 -0.0058 -0.3419
 3740POPC   C3A45403   7.507   1.725   6.783 -0.1043  0.1643 -0.0055
 3740POPC   C4A45404   7.289   2.063   6.537 -0.0752  0.1199  0.0174
 3740POPC   C1B45405   6.921   1.553   7.454  0.1955 -0.4051  0.2131
 3740POPC   C2B45406   7.085   1.619   7.023 -0.0335  0.0010  0.1052
 3740POPC   C3B45407   6.889   1.641   6.568 -0.0965 -0.0561  0.0744
 3740POPC   C4B45408   6.943   1.885   6.194 -0.2216 -0.1020  0.2056
 3741POPC   NC345409  22.032  13.815   7.618  0.0973 -0.0133 -0.3350
 3741POPC   PO445410  21.659  13.979   7.571 -0.2050 -0.3344  0.1242
 3741POPC   GL145411  21.898  14.011   7.217 -0.2282 -0.0810  0.1615
 3741POPC   GL245412  21.666  14.058   7.069  0.2624  0.1670  0.0443
 3741POPC   C1A45413  22.077  14.184   6.803 -0.1216  0.1911  0.2230
 3741POPC   D2A45414  22.185  14.246   6.377  0.3415 -0.1453  0.1095
 3741POPC   C3A45415  22.537  14.022   6.123 -0.1276 -0.2843  0.0735
 3741POPC   C4A45416  22.640  13.815   5.744  0.0066  0.0515  0.0016
 3741POPC   C1B45417  21.571  14.025   6.621 -0.3838  0.0469  0.2596
 3741POPC   C2B45418  21.684  14.067   6.201 -0.2232  0.0976 -0.1982
 3741POPC   C3B45419  21.654  14.061   5.707  0.1300 -0.6680  0.2625
 3741POPC   C4B45420  21.915  14.405   5.453  0.1846 -0.0213  0.1371
 3742POPC   NC345421  23.364  11.205   7.877 -0.0706  0.1759 -0.3634
 3742POPC   PO445422  23.083  11.484   7.758 -0.0864 -0.0881 -0.2049
 3742POPC   GL145423  23.329  11.526   7.380 -0.0458 -0.0607 -0.1616
 3742POPC   GL245424  23.091  11.701   7.281 -0.0475 -0.1102 -0.0566
 3742POPC   C1A45425  23.555  11.578   6.987 -0.0142  0.4250  0.0887
 3742POPC   D2A45426  23.505  11.516   6.512  0.3401 -0.0503  0.2638
 3742POPC   C3A45427  23.095  11.431   6.342  0.0315 -0.0046  0.0327
 3742POPC   C4A45428  22.761  11.722   6.190 -0.1097 -0.1692  0.0911
 3742POPC   C1B45429  22.849  11.593   6.916  0.2729 -0.0687  0.2000
 3742POPC   C2B45430  22.449  11.686   6.706 -0.1280  0.0479 -0.2271
 3742POPC   C3B45431  22.312  11.884   6.319 -0.1666  0.0859  0.1473
 3742POPC   C4B45432  22.142  12.267   6.073 -0.3232 -0.0756 -0.2226
 3743POPC   NC345433   3.320  19.533   7.533 -0.1552 -0.2372  0.0423
 3743POPC   PO445434   3.283  19.180   7.522  0.1185  0.1220  0.1859
 3743POPC   GL145435   3.238  19.319   7.136 -0.1662 -0.1052  0.0221
 3743POPC   GL245436   3.298  19.152   6.913 -0.3211  0.3386 -0.1346
 3743POPC   C1A45437   2.933  19.483   6.814  0.1048 -0.0073  0.1385
 3743POPC   D2A45438   2.807  19.594   6.382 -0.1710 -0.1445  0.2249
 3743POPC   C3A45439   3.054  19.525   5.993  0.1197  0.2169  0.2029
 3743POPC   C4A45440   3.169  19.554   5.542  0.0250 -0.1557 -0.0433
 3743POPC   C1B45441   3.206  19.249   6.421  0.0307 -0.1452  0.0023
 3743POPC   C2B45442   3.187  19.073   5.974 -0.1144 -0.1579 -0.0705
 3743POPC   C3B45443   3.291  18.816   5.551  0.0529 -0.0089 -0.2186
 3743POPC   C4B45444   3.719  18.716   5.405  0.0646 -0.3060 -0.1334
 3744POPC   NC345445  27.159  29.420   7.693  0.1538 -0.2890  0.1058
 3744POPC   PO445446  26.902  29.123   7.600  0.3339  0.2342  0.1563
 3744POPC   GL145447  26.883  29.087   7.230 -0.1925 -0.3689 -0.1626
 3744POPC   GL245448  26.636  29.232   7.132  0.2669  0.0929 -0.2820
 3744POPC   C1A45449  27.089  29.016   6.804 -0.0498 -0.0746 -0.1970
 3744POPC   D2A45450  27.216  29.177   6.387 -0.0581  0.0357  0.2099
 3744POPC   C3A45451  27.147  28.966   6.018 -0.2149  0.0940  0.0690
 3744POPC   C4A45452  26.858  28.646   5.899 -0.0995 -0.1077 -0.1331
 3744POPC   C1B45453  26.635  29.125   6.660  0.2527  0.1648  0.0737
 3744POPC   C2B45454  26.681  29.069   6.186  0.1143  0.0172  0.2356
 3744POPC   C3B45455  26.552  29.109   5.754 -0.0747 -0.1007  0.0546
 3744POPC   C4B45456  26.726  29.173   5.286  0.1098 -0.1282 -0.0774
 3745POPC   NC345457  19.985  29.403   8.076 -0.0510 -0.4730  0.0505
 3745POPC   PO445458  19.705  29.661   7.928 -0.0766 -0.1709  0.0190
 3745POPC   GL145459  19.870  29.733   7.572 -0.0939  0.2157 -0.1954
 3745POPC   GL245460  20.217  29.724   7.597  0.0174 -0.1531 -0.1493
 3745POPC   C1A45461  19.834  29.985   7.233 -0.0991  0.0712  0.0091
 3745POPC   D2A45462  19.767  29.995   6.768 -0.1938  0.2497  0.2009
 3745POPC   C3A45463  19.492  29.802   6.346 -0.0978  0.1096 -0.0173
 3745POPC   C4A45464  19.644  29.635   5.875  0.2382  0.1539  0.2272
 3745POPC   C1B45465  20.331  29.780   7.170 -0.1025 -0.3678  0.0441
 3745POPC   C2B45466  20.285  29.809   6.692  0.2155  0.2012  0.1887
 3745POPC   C3B45467  20.414  29.578   6.271 -0.2626  0.1464  0.3019
 3745POPC   C4B45468  20.753  29.250   6.123  0.1712  0.2100 -0.2055
 3746POPC   NC345469  11.160   8.227   7.890  0.0212  0.2727 -0.0928
 3746POPC   PO445470  10.743   8.327   7.887 -0.2308  0.0864  0.2359
 3746POPC   GL145471  10.754   8.489   7.527 -0.2366 -0.4847  0.2436
 3746POPC   GL245472  10.831   8.201   7.390 -0.2227 -0.4330 -0.0006
 3746POPC   C1A45473  10.741   8.573   7.056 -0.1380  0.0394  0.1805
 3746POPC   D2A45474  10.616   8.552   6.598  0.1443  0.2116 -0.0350
 3746POPC   C3A45475  10.743   8.948   6.365  0.0662 -0.2289 -0.3001
 3746POPC   C4A45476  10.872   9.115   5.998  0.1172  0.0267 -0.2461
 3746POPC   C1B45477  11.025   8.199   6.949 -0.1040 -0.2390  0.1723
 3746POPC   C2B45478  10.953   8.161   6.505 -0.3983 -0.4759 -0.2421
 3746POPC   C3B45479  11.107   8.384   6.105  0.0169  0.1899 -0.1037
 3746POPC   C4B45480  11.184   8.353   5.671 -0.0700 -0.0865 -0.0060
 3747POPC   NC345481  22.662  25.265   7.946  0.0009 -0.2013 -0.4424
 3747POPC   PO445482  22.795  25.005   7.648  0.3147  0.0471 -0.0057
 3747POPC   GL145483  22.746  24.617   7.464  0.2557  0.0076  0.1544
 3747POPC   GL245484  22.486  24.456   7.666  0.1861 -0.0633  0.1580
 3747POPC   C1A45485  22.864  24.540   6.984  0.2614 -0.5066  0.2428
 3747POPC   D2A45486  22.896  24.377   6.588  0.2101 -0.1578 -0.2119
 3747POPC   C3A45487  23.282  24.278   6.420  0.1657 -0.0864  0.0537
 3747POPC   C4A45488  23.700  24.503   6.367 -0.0222  0.2972 -0.0926
 3747POPC   C1B45489  22.358  24.482   7.231  0.0653  0.1324 -0.1106
 3747POPC   C2B45490  22.030  24.691   7.010  0.0650 -0.0001  0.0584
 3747POPC   C3B45491  21.726  24.940   6.863 -0.2893 -0.0890  0.5012
 3747POPC   C4B45492  21.629  25.408   6.776  0.0115  0.3323 -0.0325
 3748POPC   NC345493  24.673   9.270   7.870 -0.0733  0.0517  0.0919
 3748POPC   PO445494  24.983   9.449   8.067 -0.0668 -0.0304  0.1624
 3748POPC   GL145495  24.933   9.643   7.703 -0.2577  0.1632 -0.3088
 3748POPC   GL245496  25.179   9.565   7.553 -0.1761  0.0322 -0.0525
 3748POPC   C1A45497  24.734   9.569   7.245  0.0207  0.1872  0.1485
 3748POPC   D2A45498  24.505   9.843   6.977  0.1093 -0.0415  0.0134
 3748POPC   C3A45499  24.520   9.895   6.530  0.2369 -0.1671  0.0149
 3748POPC   C4A45500  24.442   9.647   6.140 -0.1673  0.0946 -0.2203
 3748POPC   C1B45501  25.049   9.070   7.502 -0.3068 -0.0826 -0.0183
 3748POPC   C2B45502  24.920   8.693   7.341 -0.5187 -0.2508 -0.2094
 3748POPC   C3B45503  24.608   8.392   7.270 -0.2390  0.1000  0.0321
 3748POPC   C4B45504  24.634   8.287   6.775 -0.0737  0.0304 -0.2174
 3749POPC   NC345505  31.458  17.533   7.352 -0.4258  0.0045 -0.4345
 3749POPC   PO445506  31.495  17.116   7.322  0.1666 -0.0656  0.2257
 3749POPC   GL145507  31.610  16.959   6.998 -0.0225 -0.0025 -0.1848
 3749POPC   GL245508  31.702  17.179   6.796  0.1114 -0.0448 -0.1462
 3749POPC   C1A45509  31.815  16.712   6.675  0.0683  0.2842  0.1081
 3749POPC   D2A45510  32.086  16.523   6.338 -0.2232 -0.1138  0.3230
 3749POPC   C3A45511  32.004  16.564   5.879 -0.1407  0.0917  0.1095
 3749POPC   C4A45512  32.192  16.670   5.488  0.1416  0.0782 -0.1738
 3749POPC   C1B45513  31.801  17.488   6.470  0.2408 -0.2886 -0.1887
 3749POPC   C2B45514  31.645  17.883   6.241 -0.1145  0.3190  0.1457
 3749POPC   C3B45515  31.905  18.252   5.976  0.2165  0.1903 -0.1897
 3749POPC   C4B45516  31.902  18.699   5.950 -0.0754 -0.3573  0.0418
 3750POPC   NC345517   4.668   5.638   8.125 -0.1679  0.3149 -0.3079
 3750POPC   PO445518   4.464   5.589   7.808 -0.0084  0.0858  0.1168
 3750POPC   GL145519   4.285   5.607   7.581  0.0401 -0.1027 -0.0573
 3750POPC   GL245520   4.116   5.458   7.438  0.0200  0.0064 -0.1525
 3750POPC   C1A45521   4.277   6.075   7.412 -0.0960 -0.0512  0.0935
 3750POPC   D2A45522   4.280   6.127   6.938  0.1041  0.3498 -0.1123
 3750POPC   C3A45523   3.910   5.837   6.748  0.0289  0.0928  0.0523
 3750POPC   C4A45524   3.668   5.949   6.421  0.0992 -0.0801 -0.0813
 3750POPC   C1B45525   4.385   5.562   7.060  0.1109  0.0368  0.2074
 3750POPC   C2B45526   4.631   5.549   6.684 -0.0356  0.2215  0.0040
 3750POPC   C3B45527   4.821   5.757   6.319  0.0147 -0.0996  0.2180
 3750POPC   C4B45528   4.802   6.194   6.131  0.1632 -0.2061  0.1990
 3751POPC   NC345529   9.543   5.092   7.457  0.0065 -0.1608 -0.1585
 3751POPC   PO445530   9.530   4.681   7.562 -0.0748 -0.2493 -0.0802
 3751POPC   GL145531   9.633   4.397   7.257 -0.2248 -0.1413 -0.0562
 3751POPC   GL245532   9.380   4.197   7.307 -0.1733  0.2474 -0.1492
 3751POPC   C1A45533   9.609   4.121   6.880 -0.0769  0.0493  0.0787
 3751POPC   D2A45534   9.523   4.229   6.409  0.1181  0.0321 -0.0834
 3751POPC   C3A45535   9.213   4.293   6.065 -0.1757 -0.0172  0.2596
 3751POPC   C4A45536   9.089   4.337   5.587  0.0841  0.0491 -0.1752
 3751POPC   C1B45537   9.223   3.739   7.175  0.0313 -0.1820  0.3027
 3751POPC   C2B45538   9.370   3.383   6.866  0.2057  0.1469  0.2741
 3751POPC   C3B45539   9.377   3.280   6.435 -0.1309  0.0927 -0.0710
 3751POPC   C4B45540   9.274   3.135   5.985  0.0813  0.3386  0.2657
 3752POPC   NC345541  16.042   5.188   7.337 -0.1430 -0.0534 -0.1668
 3752POPC   PO445542  15.852   4.890   7.145  0.0453 -0.2950 -0.1257
 3752POPC   GL145543  15.559   4.994   6.935  0.0783  0.3771 -0.0495
 3752POPC   GL245544  15.566   5.260   6.968  0.1025 -0.2492  0.0071
 3752POPC   C1A45545  15.130   4.982   6.661  0.1345  0.1309  0.1356
 3752POPC   D2A45546  15.012   4.954   6.208  0.0740  0.1453 -0.1399
 3752POPC   C3A45547  15.326   4.816   5.920  0.0320 -0.2191  0.1025
 3752POPC   C4A45548  15.583   4.618   5.635 -0.3486 -0.1832 -0.3273
 3752POPC   C1B45549  15.577   5.531   6.608  0.0645  0.1737 -0.0892
 3752POPC   C2B45550  15.421   5.710   6.271  0.4434  0.0283  0.0098
 3752POPC   C3B45551  15.194   6.058   6.052  0.2772  0.1125  0.1179
 3752POPC   C4B45552  15.222   6.404   5.762 -0.1084  0.0774  0.1887
 3753POPC   NC345553  25.055  10.987   7.473 -0.0192  0.0566 -0.2383
 3753POPC   PO445554  24.968  10.583   7.551  0.2471 -0.2602 -0.0078
 3753POPC   GL145555  24.728  10.554   7.222 -0.0481  0.4482 -0.1042
 3753POPC   GL245556  24.820  10.256   7.121 -0.1822  0.1870  0.2884
 3753POPC   C1A45557  24.797  10.614   6.757  0.0878  0.1598 -0.0211
 3753POPC   D2A45558  24.846  10.945   6.496  0.3058 -0.0573  0.1260
 3753POPC   C3A45559  24.833  10.764   6.058 -0.1429 -0.1380  0.1231
 3753POPC   C4A45560  24.774  10.541   5.684  0.0177 -0.3923  0.0472
 3753POPC   C1B45561  24.908  10.077   6.697 -0.0664 -0.0544 -0.0284
 3753POPC   C2B45562  24.937   9.757   6.381 -0.0056  0.0786  0.1721
 3753POPC   C3B45563  24.991   9.615   5.901 -0.1883  0.0731 -0.1434
 3753POPC   C4B45564  24.778   9.346   5.625  0.0771  0.0642  0.0897
 3754POPC   NC345565  21.318   1.727   7.405  0.3542 -0.0780 -0.2432
 3754POPC   PO445566  20.934   1.601   7.336 -0.0485 -0.2709 -0.2142
 3754POPC   GL145567  20.972   1.597   6.997 -0.3378 -0.5986 -0.1575
 3754POPC   GL245568  21.262   1.667   6.928  0.1917 -0.4598  0.0060
 3754POPC   C1A45569  20.870   1.483   6.593  0.0752 -0.0733 -0.1018
 3754POPC   D2A45570  20.577   1.518   6.227 -0.0664 -0.0567  0.1805
 3754POPC   C3A45571  20.458   1.206   5.893 -0.0361 -0.2419 -0.4078
 3754POPC   C4A45572  20.655   0.750   5.840  0.0874  0.2234  0.0581
 3754POPC   C1B45573  21.222   1.775   6.484  0.2208 -0.2232  0.1317
 3754POPC   C2B45574  20.903   2.043   6.244 -0.0400 -0.1645  0.3326
 3754POPC   C3B45575  20.756   2.347   5.915 -0.1012 -0.0957  0.2134
 3754POPC   C4B45576  20.579   2.264   5.515 -0.1186 -0.0128 -0.3215
 3755POPC   NC345577   9.088  15.611   8.012  0.0313  0.0618 -0.2275
 3755POPC   PO445578   9.092  15.766   7.626  0.0693  0.2776  0.0103
 3755POPC   GL145579   9.091  15.533   7.318 -0.2209  0.0889  0.0283
 3755POPC   GL245580   9.000  15.274   7.259  0.0302  0.0855 -0.0204
 3755POPC   C1A45581   9.401  15.471   6.996 -0.1740  0.1679 -0.0683
 3755POPC   D2A45582   9.466  15.460   6.558  0.3444  0.0610  0.1262
 3755POPC   C3A45583   9.878  15.405   6.522  0.0985  0.1620 -0.2237
 3755POPC   C4A45584  10.183  15.243   6.213 -0.1226  0.2570  0.2486
 3755POPC   C1B45585   8.956  14.876   7.021  0.0719  0.1766  0.0958
 3755POPC   C2B45586   8.999  14.712   6.638 -0.3064 -0.0904  0.1174
 3755POPC   C3B45587   8.936  14.775   6.148 -0.4138 -0.0233  0.0153
 3755POPC   C4B45588   8.849  15.165   5.901  0.3919  0.1689  0.0103
 3756POPC   NC345589  25.257   9.897   7.961 -0.1228 -0.1859 -0.1564
 3756POPC   PO445590  25.344  10.260   7.815 -0.0302  0.0384 -0.3164
 3756POPC   GL145591  25.321  10.099   7.437  0.0964  0.2910  0.1247
 3756POPC   GL245592  25.405  10.339   7.325  0.1726  0.3321 -0.1575
 3756POPC   C1A45593  25.131   9.817   7.163  0.1845 -0.1281 -0.1881
 3756POPC   D2A45594  25.186   9.424   6.893  0.0311  0.1791 -0.0635
 3756POPC   C3A45595  24.727   9.411   6.723 -0.0303  0.0268 -0.0924
 3756POPC   C4A45596  24.292   9.403   6.643  0.1984  0.0698  0.2054
 3756POPC   C1B45597  25.559  10.066   6.975 -0.2037  0.0733 -0.0920
 3756POPC   C2B45598  25.536   9.674   6.685 -0.1166 -0.3252 -0.0838
 3756POPC   C3B45599  25.354   9.399   6.329  0.3699  0.1208 -0.0290
 3756POPC   C4B45600  24.890   9.269   6.262  0.1778 -0.2010 -0.1330
 3757POPC   NC345601   6.327   3.712   7.189 -0.2584  0.1002  0.0797
 3757POPC   PO445602   6.624   3.690   7.444 -0.0757  0.0304  0.1577
 3757POPC   GL145603   6.817   3.695   7.049 -0.1774 -0.1974 -0.1743
 3757POPC   GL245604   6.952   3.499   6.940  0.2061  0.0492  0.1794
 3757POPC   C1A45605   6.638   3.766   6.620 -0.2043  0.1064 -0.0475
 3757POPC   D2A45606   6.249   3.764   6.352  0.2005 -0.0711 -0.2067
 3757POPC   C3A45607   5.852   3.866   6.351 -0.0672  0.3704 -0.2055
 3757POPC   C4A45608   5.615   3.564   6.532  0.2478 -0.1539  0.1520
 3757POPC   C1B45609   7.163   3.160   6.760 -0.1729 -0.1000 -0.0544
 3757POPC   C2B45610   7.579   2.991   6.663  0.0987 -0.1213  0.1081
 3757POPC   C3B45611   7.781   3.120   6.280  0.2548  0.2474 -0.1983
 3757POPC   C4B45612   7.744   3.489   5.973  0.1104  0.1011  0.0322
 3758POPC   NC345613   5.574   9.683   8.090  0.1340  0.2162  0.1379
 3758POPC   PO445614   5.919   9.543   7.916  0.3922 -0.1305 -0.2320
 3758POPC   GL145615   6.024   9.242   7.885 -0.0339 -0.0352 -0.0618
 3758POPC   GL245616   5.880   9.066   8.031 -0.2526  0.0071 -0.1442
 3758POPC   C1A45617   5.903   8.907   7.563 -0.0304  0.1978  0.1039
 3758POPC   D2A45618   6.072   8.709   7.147 -0.0175 -0.0653  0.3768
 3758POPC   C3A45619   5.904   8.417   6.880 -0.3290  0.1283 -0.1422
 3758POPC   C4A45620   6.144   7.954   6.946 -0.2986 -0.0698 -0.0357
 3758POPC   C1B45621   6.185   8.768   7.880 -0.0614  0.0023 -0.1990
 3758POPC   C2B45622   6.255   8.412   7.549 -0.2486 -0.2170 -0.2957
 3758POPC   C3B45623   6.508   8.079   7.385 -0.1338 -0.0019 -0.0082
 3758POPC   C4B45624   6.828   8.015   7.036  0.1664  0.3848 -0.2617
 3759POPC   NC345625  13.145   5.635   7.626  0.0278 -0.0253 -0.2956
 3759POPC   PO445626  13.398   5.951   7.726  0.1947 -0.2138  0.1732
 3759POPC   GL145627  13.276   6.265   7.485  0.2843  0.0233  0.1143
 3759POPC   GL245628  13.127   6.526   7.594  0.0453  0.0616 -0.1163
 3759POPC   C1A45629  13.172   6.090   7.123  0.0363 -0.1111  0.1255
 3759POPC   D2A45630  13.247   6.226   6.661  0.0548  0.0952 -0.0025
 3759POPC   C3A45631  13.024   6.478   6.349 -0.0212 -0.2959 -0.2756
 3759POPC   C4A45632  12.651   6.633   6.095 -0.1387  0.0944 -0.1675
 3759POPC   C1B45633  13.301   6.673   7.135  0.2296 -0.0455  0.0683
 3759POPC   C2B45634  13.292   6.756   6.676  0.1015  0.2420  0.0475
 3759POPC   C3B45635  13.086   6.979   6.306 -0.3324  0.2133  0.1910
 3759POPC   C4B45636  13.023   6.925   5.859  0.0397  0.0780  0.1002
 3760POPC   NC345637  30.750  25.687   7.749 -0.1028  0.1905 -0.1190
 3760POPC   PO445638  31.085  25.505   7.731 -0.0768  0.2030 -0.1361
 3760POPC   GL145639  31.040  25.335   7.392  0.0793 -0.1582  0.0466
 3760POPC   GL245640  31.097  25.087   7.403 -0.3592  0.3300 -0.0341
 3760POPC   C1A45641  30.727  24.984   7.163 -0.0539 -0.0653 -0.1697
 3760POPC   D2A45642  30.606  24.938   6.694  0.0117  0.1424  0.1264
 3760POPC   C3A45643  30.707  25.098   6.322  0.1898 -0.0343  0.4192
 3760POPC   C4A45644  30.784  25.317   5.903 -0.1682  0.0994 -0.0878
 3760POPC   C1B45645  31.177  25.002   6.934  0.0456  0.1781  0.4555
 3760POPC   C2B45646  31.315  25.131   6.553 -0.1198  0.1601  0.1465
 3760POPC   C3B45647  31.190  25.038   6.137  0.0555 -0.2955  0.0084
 3760POPC   C4B45648  31.297  24.932   5.733 -0.3312 -0.2529  0.0525
 3761POPC   NC345649  26.095   1.343   8.621  0.3880  0.2235 -0.3960
 3761POPC   PO445650  26.424   1.447   8.426  0.2618 -0.0307 -0.1348
 3761POPC   GL145651  26.356   1.645   8.028  0.3541 -0.0777 -0.2210
 3761POPC   GL245652  26.522   1.593   7.773  0.2486 -0.0744  0.1384
 3761POPC   C1A45653  25.973   1.747   7.763 -0.0161  0.1136 -0.0035
 3761POPC   D2A45654  25.612   1.888   7.550  0.1722  0.3164  0.0423
 3761POPC   C3A45655  25.411   1.925   7.132 -0.1146  0.0790 -0.0357
 3761POPC   C4A45656  25.039   2.055   6.911  0.0624 -0.2066 -0.2416
 3761POPC   C1B45657  26.663   1.787   7.384 -0.0278 -0.1836 -0.5621
 3761POPC   C2B45658  26.512   1.960   6.983  0.1395  0.2551 -0.2264
 3761POPC   C3B45659  26.503   2.184   6.591  0.0736  0.0535 -0.0674
 3761POPC   C4B45660  26.344   2.422   6.225  0.3077  0.2091  0.0789
 3762POPC   NC345661  11.386  14.946   7.556  0.0309 -0.1101  0.2429
 3762POPC   PO445662  11.005  14.896   7.527  0.2011 -0.2761  0.0699
 3762POPC   GL145663  10.925  15.029   7.138  0.4628 -0.3730  0.1551
 3762POPC   GL245664  10.704  14.994   7.040  0.1604  0.1777 -0.1859
 3762POPC   C1A45665  10.988  15.183   6.692  0.3632 -0.0600  0.2414
 3762POPC   D2A45666  10.672  15.107   6.316  0.1957  0.0013 -0.1960
 3762POPC   C3A45667  10.571  15.368   5.980  0.2164 -0.0558 -0.1688
 3762POPC   C4A45668  10.861  15.531   5.639  0.1095  0.2226 -0.0812
 3762POPC   C1B45669  10.767  14.731   6.594 -0.0165 -0.1988 -0.2529
 3762POPC   C2B45670  10.984  14.739   6.155  0.4236 -0.2109 -0.2442
 3762POPC   C3B45671  11.053  15.031   5.852 -0.0350  0.0971 -0.0027
 3762POPC   C4B45672  11.505  15.125   5.625 -0.0160  0.2357 -0.3158
 3763POPC   NC345673  13.674  29.272   8.309  0.0688 -0.3839 -0.1575
 3763POPC   PO445674  13.674  29.102   7.967 -0.2788  0.2758  0.1476
 3763POPC   GL145675  13.721  29.299   7.644 -0.0399 -0.3053  0.0250
 3763POPC   GL245676  13.737  29.065   7.434  0.0279 -0.0901 -0.1855
 3763POPC   C1A45677  13.802  29.648   7.337 -0.0229  0.2607  0.4168
 3763POPC   D2A45678  13.579  29.874   7.013 -0.3436  0.0542  0.2566
 3763POPC   C3A45679  13.479  29.770   6.568 -0.2805  0.1225  0.1252
 3763POPC   C4A45680  13.525  29.735   6.098  0.0188  0.0920 -0.0738
 3763POPC   C1B45681  13.413  28.901   7.253  0.2370  0.0822 -0.2086
 3763POPC   C2B45682  13.043  28.713   7.035  0.0859 -0.2233  0.0981
 3763POPC   C3B45683  12.815  28.845   6.669 -0.2621 -0.0091  0.0625
 3763POPC   C4B45684  12.637  29.029   6.285  0.1724  0.1109 -0.0860
 3764POPC   NC345685  19.594  19.752   7.795 -0.2610  0.1281  0.0059
 3764POPC   PO445686  19.984  19.815   7.795  0.0319  0.0293 -0.2371
 3764POPC   GL145687  19.927  19.579   7.491 -0.0517 -0.0961 -0.0310
 3764POPC   GL245688  20.130  19.381   7.415 -0.1462 -0.1115 -0.0796
 3764POPC   C1A45689  19.773  19.646   7.062 -0.2894  0.0206  0.0078
 3764POPC   D2A45690  19.306  19.798   7.057  0.3572  0.0397  0.0178
 3764POPC   C3A45691  19.048  19.927   6.664  0.2224  0.1427 -0.1289
 3764POPC   C4A45692  18.667  20.025   6.428 -0.0675  0.3910  0.1253
 3764POPC   C1B45693  20.183  19.372   6.987 -0.0981 -0.1874 -0.2724
 3764POPC   C2B45694  20.278  19.250   6.506  0.2059 -0.1739 -0.1127
 3764POPC   C3B45695  20.220  19.124   6.100 -0.2294  0.2774 -0.3471
 3764POPC   C4B45696  20.221  19.116   5.652 -0.1076  0.0564 -0.2645
 3765POPC   NC345697   6.053  31.714   7.895 -0.0945 -0.0569  0.0456
 3765POPC   PO445698   6.064  31.365   7.715  0.2308 -0.2044 -0.0355
 3765POPC   GL145699   5.966  31.458   7.285 -0.0923  0.1104 -0.1737
 3765POPC   GL245700   5.784  31.682   7.245 -0.3530 -0.1230 -0.0913
 3765POPC   C1A45701   6.157  31.472   6.839  0.2711 -0.0826 -0.3015
 3765POPC   D2A45702   6.096  31.420   6.370  0.2749 -0.4765  0.0659
 3765POPC   C3A45703   6.047  30.991   6.274 -0.2327 -0.0698  0.2434
 3765POPC   C4A45704   6.162  30.774   5.885  0.0057  0.0004  0.1540
 3765POPC   C1B45705   5.549  31.819   6.817 -0.1244 -0.0593 -0.0076
 3765POPC   C2B45706   5.693  31.819   6.359 -0.1788 -0.3060  0.0287
 3765POPC   C3B45707   5.911  31.804   5.988  0.3133  0.0581 -0.1747
 3765POPC   C4B45708   5.846  31.646   5.567  0.0681 -0.2054 -0.0916
 3766POPC   NC345709   5.264  18.093   8.171 -0.0199 -0.1374 -0.0414
 3766POPC   PO445710   4.978  18.088   7.912  0.2942  0.4102  0.1514
 3766POPC   GL145711   5.072  18.179   7.565 -0.0326  0.2015  0.0141
 3766POPC   GL245712   5.398  18.209   7.588 -0.0793 -0.4906 -0.2047
 3766POPC   C1A45713   5.273  17.823   7.257 -0.0558 -0.4010  0.3498
 3766POPC   D2A45714   5.525  17.506   7.031 -0.0900 -0.1750 -0.1359
 3766POPC   C3A45715   5.958  17.318   7.108 -0.1971 -0.3049 -0.0265
 3766POPC   C4A45716   6.128  16.951   7.343 -0.0879  0.0133  0.2608
 3766POPC   C1B45717   5.140  18.303   7.178  0.5037 -0.3404  0.2571
 3766POPC   C2B45718   4.974  18.353   6.764 -0.0862  0.0845  0.0671
 3766POPC   C3B45719   4.810  18.441   6.366  0.0288 -0.2908  0.0298
 3766POPC   C4B45720   4.921  18.480   5.908  0.2969 -0.2274 -0.3070
 3767POPC   NC345721  13.444  31.384   7.366  0.1724  0.2916  0.2556
 3767POPC   PO445722  13.574  31.720   7.258 -0.1196 -0.1969  0.0137
 3767POPC   GL145723  13.791  31.569   6.928 -0.1657  0.1630 -0.2153
 3767POPC   GL245724  13.564  31.421   6.848 -0.0174 -0.0660  0.0248
 3767POPC   C1A45725  13.940  31.482   6.524  0.2794  0.1762  0.1167
 3767POPC   D2A45726  14.016  31.545   6.069 -0.0031  0.1120  0.2166
 3767POPC   C3A45727  14.460  31.418   6.097  0.1655  0.2513 -0.1526
 3767POPC   C4A45728  14.859  31.529   5.891  0.0022 -0.0977 -0.0025
 3767POPC   C1B45729  13.470  31.282   6.404  0.0379 -0.0549  0.0453
 3767POPC   C2B45730  13.637  31.204   5.944 -0.0966 -0.1567 -0.1194
 3767POPC   C3B45731  13.618  30.947   5.586 -0.0993  0.0642 -0.2992
 3767POPC   C4B45732  13.941  30.860   5.239  0.0544 -0.0918 -0.1951
 3768POPC   NC345733   6.419   9.632   7.907  0.4375 -0.1630 -0.1370
 3768POPC   PO445734   6.358   9.844   7.617 -0.0154 -0.1138 -0.1518
 3768POPC   GL145735   6.139   9.719   7.392  0.0643  0.0682  0.2738
 3768POPC   GL245736   6.091   9.430   7.425 -0.0174  0.2602 -0.0557
 3768POPC   C1A45737   5.994   9.651   6.967  0.0239  0.0563  0.4219
 3768POPC   D2A45738   5.839   9.672   6.576 -0.0346  0.0011  0.1171
 3768POPC   C3A45739   5.790   9.255   6.342  0.0027  0.0922 -0.0609
 3768POPC   C4A45740   5.634   8.882   6.122  0.0957 -0.0619  0.0376
 3768POPC   C1B45741   6.084   9.171   7.010  0.0377 -0.1607 -0.2161
 3768POPC   C2B45742   6.087   8.966   6.638  0.0987 -0.0693  0.0980
 3768POPC   C3B45743   5.978   8.609   6.390  0.0058  0.0041 -0.0763
 3768POPC   C4B45744   5.642   8.305   6.240 -0.0828 -0.1037  0.0016
 3769POPC   NC345745  10.063  30.878   7.444  0.0147 -0.0632  0.2514
 3769POPC   PO445746  10.246  30.560   7.556 -0.0185  0.0854  0.0117
 3769POPC   GL145747  10.214  30.411   7.139 -0.1265 -0.2511 -0.2504
 3769POPC   GL245748  10.372  30.652   7.089  0.2066 -0.0443 -0.1191
 3769POPC   C1A45749  10.157  30.378   6.655  0.5072  0.0036 -0.2248
 3769POPC   D2A45750   9.938  30.566   6.296  0.2454 -0.0035 -0.1353
 3769POPC   C3A45751  10.160  30.701   5.967 -0.0134 -0.2687  0.0639
 3769POPC   C4A45752  10.313  30.507   5.545 -0.0686  0.2146  0.3074
 3769POPC   C1B45753  10.591  30.602   6.716  0.0460  0.2433 -0.0516
 3769POPC   C2B45754  10.647  30.391   6.362  0.0135  0.1825  0.1495
 3769POPC   C3B45755  10.546  30.332   5.928 -0.2487 -0.0576 -0.0887
 3769POPC   C4B45756  10.327  29.999   5.625 -0.3722  0.0056  0.1100
 3770POPC   NC345757  18.565   5.159   7.374  0.2277 -0.3602  0.3636
 3770POPC   PO445758  18.270   4.924   7.332 -0.0419  0.0204  0.2904
 3770POPC   GL145759  18.308   4.795   6.977 -0.1095 -0.2958  0.0515
 3770POPC   GL245760  18.576   4.869   6.921 -0.1688  0.1117  0.0996
 3770POPC   C1A45761  18.140   4.721   6.527 -0.2606  0.0601 -0.0544
 3770POPC   D2A45762  17.828   4.449   6.226 -0.3410  0.1972 -0.1685
 3770POPC   C3A45763  17.802   4.332   5.822 -0.0451  0.1926  0.0807
 3770POPC   C4A45764  17.755   4.532   5.430 -0.0678 -0.1677 -0.1098
 3770POPC   C1B45765  18.620   5.011   6.537  0.0073  0.0063  0.0421
 3770POPC   C2B45766  18.311   5.214   6.256  0.1181 -0.1896 -0.1135
 3770POPC   C3B45767  18.190   5.357   5.805  0.1847 -0.2303  0.2117
 3770POPC   C4B45768  18.057   5.611   5.498  0.0017 -0.0799 -0.1843
 3771POPC   NC345769  16.992   3.879   7.496 -0.0611  0.1701 -0.0954
 3771POPC   PO445770  16.944   4.157   7.197 -0.1590  0.1686 -0.1265
 3771POPC   GL145771  17.132   3.905   6.849 -0.3039 -0.1595  0.0940
 3771POPC   GL245772  17.324   3.704   7.037  0.0393 -0.2255  0.2397
 3771POPC   C1A45773  16.909   3.867   6.443 -0.0435  0.0063  0.1302
 3771POPC   D2A45774  16.923   3.893   5.954  0.2211 -0.1412 -0.1872
 3771POPC   C3A45775  17.118   3.687   5.614 -0.3826 -0.0391  0.1701
 3771POPC   C4A45776  17.027   3.287   5.401  0.0717 -0.1961  0.1454
 3771POPC   C1B45777  17.360   3.704   6.534 -0.1927 -0.2458  0.1542
 3771POPC   C2B45778  17.476   3.796   6.057 -0.0132  0.1766 -0.3578
 3771POPC   C3B45779  17.676   3.855   5.631  0.0868 -0.1334 -0.3333
 3771POPC   C4B45780  17.523   3.572   5.286 -0.0116 -0.1974  0.0182
 3772POPC   NC345781  24.169   2.848   7.970  0.2243  0.2777 -0.1608
 3772POPC   PO445782  24.107   3.154   7.797 -0.2939  0.2347  0.2724
 3772POPC   GL145783  24.158   3.067   7.422  0.5196 -0.1618  0.0571
 3772POPC   GL245784  24.366   2.916   7.407 -0.1426  0.0821 -0.2718
 3772POPC   C1A45785  23.979   3.185   7.004 -0.0932  0.0594  0.1484
 3772POPC   D2A45786  23.724   3.279   6.629 -0.1196  0.3078 -0.1584
 3772POPC   C3A45787  23.837   3.416   6.192  0.1813  0.2280 -0.3811
 3772POPC   C4A45788  23.945   3.312   5.744 -0.3781  0.0482 -0.0090
 3772POPC   C1B45789  24.540   3.039   6.997  0.1982 -0.5544 -0.3920
 3772POPC   C2B45790  24.596   2.822   6.620 -0.3682 -0.0078 -0.1328
 3772POPC   C3B45791  24.626   2.970   6.207  0.0326 -0.0192  0.1584
 3772POPC   C4B45792  24.934   2.998   5.883 -0.0453  0.0792  0.0593
 3773POPC   NC345793  20.342   4.045   7.714  0.1349 -0.0674 -0.1686
 3773POPC   PO445794  20.729   4.047   7.723 -0.3983 -0.2482 -0.0037
 3773POPC   GL145795  20.765   4.120   7.303 -0.0517  0.0058  0.2491
 3773POPC   GL245796  21.000   3.945   7.283  0.0777  0.1576  0.0539
 3773POPC   C1A45797  20.683   4.310   6.842  0.1012 -0.3700 -0.0693
 3773POPC   D2A45798  20.948   4.461   6.476 -0.3018 -0.1421 -0.0134
 3773POPC   C3A45799  20.578   4.435   6.174 -0.3439 -0.2617 -0.0010
 3773POPC   C4A45800  20.210   4.405   5.932 -0.0427 -0.0062 -0.0467
 3773POPC   C1B45801  20.946   3.900   6.854 -0.1038 -0.1821  0.2618
 3773POPC   C2B45802  20.865   3.975   6.369 -0.0456 -0.1785 -0.4473
 3773POPC   C3B45803  20.818   3.930   5.923  0.0393 -0.0248  0.1162
 3773POPC   C4B45804  21.082   4.122   5.518  0.1147  0.4033 -0.2686
 3774POPC   NC345805  23.088  22.073   7.470  0.2380  0.0500  0.0054
 3774POPC   PO445806  22.709  22.010   7.636 -0.1008  0.1696 -0.0404
 3774POPC   GL145807  22.438  22.034   7.353  0.1135 -0.0452 -0.2675
 3774POPC   GL245808  22.661  22.048   7.121 -0.1151 -0.1023 -0.3804
 3774POPC   C1A45809  22.274  22.231   6.934  0.0034 -0.0083 -0.0103
 3774POPC   D2A45810  22.073  22.439   6.585  0.0965  0.0500  0.0753
 3774POPC   C3A45811  21.621  22.533   6.469 -0.1397  0.5174  0.1920
 3774POPC   C4A45812  21.258  22.646   6.177  0.1346 -0.2908 -0.2300
 3774POPC   C1B45813  22.635  21.986   6.673 -0.0582 -0.0678  0.0548
 3774POPC   C2B45814  22.544  22.104   6.209  0.2424  0.1158 -0.1553
 3774POPC   C3B45815  22.623  22.016   5.796 -0.1429 -0.2996 -0.1351
 3774POPC   C4B45816  22.870  21.973   5.363 -0.2202  0.1328 -0.1876
 3775POPC   NC345817   9.395  21.850   7.822  0.0015  0.0513  0.0085
 3775POPC   PO445818   9.242  22.197   8.011  0.5086 -0.1854 -0.0364
 3775POPC   GL145819   8.865  22.128   7.800  0.1188  0.0878  0.4769
 3775POPC   GL245820   8.577  21.978   7.851  0.0148  0.2013  0.2144
 3775POPC   C1A45821   8.829  22.338   7.414 -0.5096  0.0306 -0.0247
 3775POPC   D2A45822   8.610  22.505   7.075 -0.1902  0.3450 -0.2766
 3775POPC   C3A45823   8.830  22.628   6.698 -0.1044  0.0934  0.0630
 3775POPC   C4A45824   8.653  22.596   6.258 -0.0843 -0.2592 -0.4220
 3775POPC   C1B45825   8.556  21.886   7.422 -0.3740  0.4212 -0.1015
 3775POPC   C2B45826   8.300  21.666   7.112  0.2792 -0.0439  0.1561
 3775POPC   C3B45827   7.954  21.362   6.964 -0.0295  0.1163  0.0253
 3775POPC   C4B45828   7.731  21.087   6.639 -0.2967 -0.3974 -0.1843
 3776POPC   NC345829   1.904  13.104   8.111 -0.0842 -0.0595  0.1111
 3776POPC   PO445830   1.529  12.996   8.197  0.0434  0.2830 -0.1570
 3776POPC   GL145831   1.591  12.839   7.800 -0.1106 -0.2333 -0.0885
 3776POPC   GL245832   1.579  12.562   7.668  0.0779 -0.0444 -0.0746
 3776POPC   C1A45833   1.753  13.163   7.516 -0.1407 -0.1254 -0.2811
 3776POPC   D2A45834   1.807  13.349   7.103  0.1353 -0.2264 -0.2173
 3776POPC   C3A45835   2.173  13.202   6.869 -0.0418 -0.2033  0.0119
 3776POPC   C4A45836   2.575  13.381   6.817  0.2390  0.0191 -0.0048
 3776POPC   C1B45837   1.500  12.680   7.249 -0.1762  0.3590  0.2016
 3776POPC   C2B45838   1.707  12.951   6.897  0.0777  0.0202  0.0717
 3776POPC   C3B45839   1.780  13.305   6.605  0.0147 -0.1829 -0.1528
 3776POPC   C4B45840   2.033  13.721   6.511  0.2525 -0.0511 -0.0746
 3777POPC   NC345841   1.884  24.690   7.586  0.1565  0.0427  0.0958
 3777POPC   PO445842   2.172  24.452   7.679  0.0099 -0.3764  0.0301
 3777POPC   GL145843   2.294  24.604   7.308 -0.2239  0.2043 -0.0886
 3777POPC   GL245844   2.644  24.668   7.236 -0.0609 -0.4198 -0.1765
 3777POPC   C1A45845   2.377  24.618   6.841 -0.1225 -0.0711 -0.1685
 3777POPC   D2A45846   2.184  24.844   6.511  0.1000  0.1390  0.3591
 3777POPC   C3A45847   2.504  24.732   6.220 -0.2031 -0.0311 -0.0041
 3777POPC   C4A45848   2.961  24.828   6.126  0.3565  0.0997 -0.0589
 3777POPC   C1B45849   2.931  24.863   7.047 -0.1639 -0.1109  0.0424
 3777POPC   C2B45850   3.032  24.985   6.632  0.3297  0.0245  0.0739
 3777POPC   C3B45851   3.370  25.319   6.483  0.0002  0.0637  0.3400
 3777POPC   C4B45852   3.619  25.381   6.087  0.0735 -0.0659 -0.0262
 3778POPC   NC345853  13.205  11.234   8.078  0.0127  0.0831  0.3549
 3778POPC   PO445854  13.009  11.320   7.749  0.2436 -0.0765 -0.1416
 3778POPC   GL145855  12.999  11.663   7.444 -0.0720  0.3888  0.0311
 3778POPC   GL245856  12.799  11.661   7.343  0.1366  0.1200 -0.0665
 3778POPC   C1A45857  13.211  11.687   7.027  0.1905 -0.0138  0.0213
 3778POPC   D2A45858  13.138  11.579   6.579 -0.1113  0.1658 -0.1174
 3778POPC   C3A45859  13.257  11.825   6.242  0.1940 -0.1136 -0.1211
 3778POPC   C4A45860  13.069  12.149   5.994 -0.1600  0.1762 -0.1584
 3778POPC   C1B45861  12.340  11.773   7.273 -0.3156 -0.3274  0.0549
 3778POPC   C2B45862  12.018  12.091   7.201  0.1465  0.4309  0.0005
 3778POPC   C3B45863  11.644  12.206   6.995  0.1678 -0.1656 -0.1464
 3778POPC   C4B45864  11.276  12.336   6.718 -0.2627  0.1350  0.0784
 3779POPC   NC345865   2.197   2.827   8.564 -0.5554 -0.0925  0.3668
 3779POPC   PO445866   2.236   2.534   8.319 -0.1485  0.0083 -0.0080
 3779POPC   GL145867   1.942   2.661   8.078 -0.1512 -0.3093 -0.0210
 3779POPC   GL245868   1.802   2.829   8.230 -0.2043 -0.0648  0.1999
 3779POPC   C1A45869   1.941   2.974   7.765  0.3313 -0.1216  0.1904
 3779POPC   D2A45870   1.607   2.967   7.361 -0.2068  0.0447  0.0034
 3779POPC   C3A45871   1.144   3.106   7.379 -0.0590 -0.0220 -0.4641
 3779POPC   C4A45872   0.886   2.839   7.169 -0.1326  0.2288 -0.4624
 3779POPC   C1B45873   1.452   2.826   7.884  0.2141  0.1637 -0.0580
 3779POPC   C2B45874   1.248   2.627   7.552  0.1112 -0.0304 -0.1491
 3779POPC   C3B45875   0.766   2.453   7.515  0.2738 -0.0207 -0.1225
 3779POPC   C4B45876   0.462   2.241   7.254 -0.2199 -0.2095 -0.2984
 3780POPC   NC345877  22.489  26.346   7.976  0.0055 -0.0019 -0.0230
 3780POPC   PO445878  22.618  26.252   7.637 -0.0034 -0.3429  0.0622
 3780POPC   GL145879  22.501  26.333   7.320  0.1198 -0.0662 -0.0819
 3780POPC   GL245880  22.723  26.498   7.207 -0.1192 -0.0101  0.1558
 3780POPC   C1A45881  22.309  26.076   6.981 -0.2176 -0.1877  0.0822
 3780POPC   D2A45882  22.233  25.683   6.700 -0.0446 -0.2748  0.0309
 3780POPC   C3A45883  21.957  25.656   6.350  0.1047 -0.0877  0.0120
 3780POPC   C4A45884  21.534  25.479   6.206 -0.0325  0.3756  0.0086
 3780POPC   C1B45885  22.856  26.741   6.781  0.1395  0.0189  0.1152
 3780POPC   C2B45886  23.295  26.869   6.671 -0.2727  0.0778 -0.2360
 3780POPC   C3B45887  23.354  27.215   6.385 -0.0181 -0.0067  0.1010
 3780POPC   C4B45888  23.370  27.523   6.018 -0.1486 -0.3307 -0.1470
 3781POPC   NC345889  20.567  19.001   7.790 -0.1984  0.2038 -0.0198
 3781POPC   PO445890  20.640  19.274   7.530  0.2773 -0.3183 -0.3348
 3781POPC   GL145891  20.650  19.503   7.216  0.0657 -0.0863  0.1197
 3781POPC   GL245892  20.701  19.258   6.997  0.2967 -0.2783 -0.0451
 3781POPC   C1A45893  20.622  19.644   6.739  0.0974 -0.1752 -0.2715
 3781POPC   D2A45894  20.433  19.710   6.284  0.1335 -0.1119  0.0868
 3781POPC   C3A45895  20.722  19.804   5.928 -0.0529 -0.4008 -0.1768
 3781POPC   C4A45896  20.902  19.760   5.497 -0.1340 -0.2301  0.1734
 3781POPC   C1B45897  20.800  19.232   6.522  0.2148  0.2006  0.1373
 3781POPC   C2B45898  20.684  19.303   6.071  0.0966  0.0902 -0.0366
 3781POPC   C3B45899  20.608  19.384   5.640  0.3587  0.0879  0.1836
 3781POPC   C4B45900  20.389  19.314   5.211  0.2022 -0.0467  0.0606
 3782POPC   NC345901  14.160   0.682   8.232 -0.0787 -0.2299 -0.1311
 3782POPC   PO445902  14.031   0.577   7.857 -0.0179 -0.1537 -0.0597
 3782POPC   GL145903  14.162   0.497   7.511  0.0197 -0.1538 -0.0343
 3782POPC   GL245904  14.200   0.199   7.286  0.0903  0.1219  0.1364
 3782POPC   C1A45905  14.259   0.705   7.045 -0.2593 -0.2304  0.0822
 3782POPC   D2A45906  14.609   0.824   6.805  0.1081  0.0202 -0.2010
 3782POPC   C3A45907  14.744   0.849   6.387  0.1445  0.1030 -0.1525
 3782POPC   C4A45908  14.825   0.698   5.974  0.5558 -0.0815  0.2181
 3782POPC   C1B45909  14.097   0.224   6.851  0.1278  0.1268 -0.1081
 3782POPC   C2B45910  14.294   0.549   6.557  0.1368  0.0444  0.2166
 3782POPC   C3B45911  14.219   0.674   6.133 -0.3386  0.0995 -0.0219
 3782POPC   C4B45912  14.295   1.061   5.957  0.0843  0.1868  0.4565
 3783POPC   NC345913  31.490  30.286   8.521 -0.0460  0.0689  0.1468
 3783POPC   PO445914  31.732  30.236   8.216  0.1740 -0.0379 -0.2238
 3783POPC   GL145915  31.754  30.072   7.840  0.2076  0.1416  0.1316
 3783POPC   GL245916  32.003  29.994   7.826  0.1476  0.0048  0.3779
 3783POPC   C1A45917  31.556  29.756   7.572 -0.0752 -0.0165  0.0826
 3783POPC   D2A45918  31.453  29.379   7.263  0.3529  0.2709 -0.1677
 3783POPC   C3A45919  31.188  29.453   6.944 -0.0711 -0.0254  0.1145
 3783POPC   C4A45920  30.992  29.457   6.526  0.1004  0.0998 -0.2206
 3783POPC   C1B45921  32.036  29.770   7.427 -0.0321  0.0803  0.0150
 3783POPC   C2B45922  31.942  29.497   7.103 -0.0168  0.1651  0.0804
 3783POPC   C3B45923  31.664  29.343   6.793  0.1357 -0.0908 -0.3690
 3783POPC   C4B45924  31.426  29.304   6.344  0.0929 -0.2551 -0.1661
 3784POPC   NC345925   7.710   0.755   7.835  0.2532  0.1884  0.1665
 3784POPC   PO445926   7.964   0.465   7.908 -0.0023  0.1791 -0.0979
 3784POPC   GL145927   8.033   0.565   7.519 -0.2085 -0.3035  0.2629
 3784POPC   GL245928   8.194   0.830   7.628  0.4131 -0.0019 -0.0976
 3784POPC   C1A45929   8.132   0.779   7.089 -0.2083 -0.1094 -0.2396
 3784POPC   D2A45930   8.417   0.901   6.736 -0.2902 -0.2109 -0.4791
 3784POPC   C3A45931   8.534   0.683   6.360 -0.0862 -0.0476  0.0731
 3784POPC   C4A45932   8.678   0.732   5.915  0.0604  0.0992  0.0911
 3784POPC   C1B45933   8.377   1.265   7.692 -0.3412 -0.0226  0.3969
 3784POPC   C2B45934   8.661   1.495   7.881  0.2029 -0.0076 -0.2353
 3784POPC   C3B45935   8.660   1.936   8.106  0.2189  0.1133 -0.0258
 3784POPC   C4B45936   8.620   2.195   8.489 -0.5727 -0.1763  0.0570
 3785POPC   NC345937   8.954  24.609   7.837 -0.0428 -0.1046  0.4110
 3785POPC   PO445938   8.846  24.859   7.513  0.1514 -0.0298  0.0598
 3785POPC   GL145939   9.008  25.140   7.354  0.1207  0.1636 -0.1556
 3785POPC   GL245940   9.292  25.082   7.406 -0.0217  0.2770 -0.2182
 3785POPC   C1A45941   9.014  25.320   6.910 -0.2345 -0.0247 -0.0556
 3785POPC   D2A45942   8.689  25.432   6.583 -0.0790  0.1981 -0.0457
 3785POPC   C3A45943   8.766  25.152   6.286  0.1227 -0.0529  0.0278
 3785POPC   C4A45944   8.981  25.065   5.920 -0.2779 -0.2009  0.0393
 3785POPC   C1B45945   9.566  25.086   7.004  0.3068 -0.0025 -0.2129
 3785POPC   C2B45946   9.680  25.008   6.602 -0.1005 -0.0016 -0.2102
 3785POPC   C3B45947   9.862  25.165   6.180 -0.0625  0.1248  0.0960
 3785POPC   C4B45948   9.909  25.410   5.798 -0.4642  0.1304 -0.0674
 3786POPC   NC345949  19.929   0.564   7.911  0.1028  0.1503 -0.3139
 3786POPC   PO445950  19.939   0.589   7.483  0.2805 -0.1381  0.0524
 3786POPC   GL145951  19.870   0.736   7.073 -0.3117 -0.0979 -0.2852
 3786POPC   GL245952  20.158   0.904   7.119 -0.1660  0.1425  0.3820
 3786POPC   C1A45953  19.569   0.497   6.777 -0.0871  0.0868  0.1050
 3786POPC   D2A45954  19.433   0.598   6.371  0.0477  0.3546 -0.0534
 3786POPC   C3A45955  19.394   0.283   5.996  0.2246  0.0345 -0.0186
 3786POPC   C4A45956  19.210  -0.033   5.669 -0.1845  0.0633  0.0459
 3786POPC   C1B45957  20.193   0.802   6.645  0.2083 -0.2016  0.0681
 3786POPC   C2B45958  20.111   0.868   6.151  0.2326  0.3596  0.0520
 3786POPC   C3B45959  20.164   0.860   5.651 -0.0014 -0.2956 -0.0413
 3786POPC   C4B45960  20.189   0.848   5.213  0.2819 -0.1841  0.3139
 3787POPC   NC345961  10.610  30.245   7.521 -0.2209  0.2635  0.1609
 3787POPC   PO445962  10.487  30.152   7.859  0.0339  0.2118  0.0577
 3787POPC   GL145963  10.901  30.175   8.032  0.1115  0.0302  0.6209
 3787POPC   GL245964  10.942  29.997   7.794 -0.3568 -0.3088 -0.3244
 3787POPC   C1A45965  11.372  30.244   7.932  0.1146  0.0082 -0.5232
 3787POPC   D2A45966  11.785  30.394   7.822 -0.1690  0.1375 -0.0135
 3787POPC   C3A45967  12.115  30.198   7.599  0.0521 -0.1261  0.1725
 3787POPC   C4A45968  12.255  29.886   7.290  0.0831 -0.1440 -0.2089
 3787POPC   C1B45969  10.862  29.794   7.360 -0.0264 -0.0973 -0.4239
 3787POPC   C2B45970  10.860  29.795   6.862  0.0367  0.0516  0.2373
 3787POPC   C3B45971  10.883  29.690   6.422  0.0036  0.1987 -0.2329
 3787POPC   C4B45972  11.191  29.567   6.138 -0.0987  0.3037 -0.3178
 3788POPC   NC345973  19.112  29.449   7.679  0.2654  0.0008  0.0387
 3788POPC   PO445974  18.922  29.754   7.837  0.0903 -0.2310 -0.0328
 3788POPC   GL145975  18.659  29.535   7.712  0.4103  0.3023 -0.4179
 3788POPC   GL245976  18.455  29.665   7.594 -0.1260  0.3882 -0.0084
 3788POPC   C1A45977  18.689  29.231   7.362  0.0266 -0.1657  0.0596
 3788POPC   D2A45978  18.889  29.359   6.974 -0.2148 -0.1396  0.1418
 3788POPC   C3A45979  18.770  29.400   6.527 -0.3292 -0.3430  0.2449
 3788POPC   C4A45980  18.705  29.480   6.034 -0.0115  0.1883 -0.0803
 3788POPC   C1B45981  18.400  29.541   7.109 -0.0814  0.1087 -0.5254
 3788POPC   C2B45982  18.144  29.378   6.748 -0.1929 -0.1626 -0.0300
 3788POPC   C3B45983  17.828  29.338   6.437  0.1570 -0.1960 -0.1865
 3788POPC   C4B45984  17.667  29.325   6.057  0.2238  0.3591 -0.1334
 3789POPC   NC345985  18.052   9.880   8.232  0.0180  0.0710  0.3480
 3789POPC   PO445986  17.939  10.245   8.074  0.0855  0.0495 -0.0576
 3789POPC   GL145987  17.945  10.102   7.714 -0.0356  0.3809  0.0572
 3789POPC   GL245988  17.986  10.353   7.566  0.2182  0.1575 -0.1871
 3789POPC   C1A45989  18.310   9.945   7.416  0.1997 -0.1610  0.1057
 3789POPC   D2A45990  18.636  10.062   7.064  0.1542 -0.1026 -0.0002
 3789POPC   C3A45991  18.471  10.077   6.628 -0.0472  0.0637 -0.0841
 3789POPC   C4A45992  18.132  10.199   6.302  0.0568  0.0936 -0.0131
 3789POPC   C1B45993  18.144  10.374   7.114 -0.1642  0.2600  0.0937
 3789POPC   C2B45994  18.287  10.593   6.700 -0.0434  0.1500 -0.1651
 3789POPC   C3B45995  18.255  10.728   6.277  0.0758 -0.1161 -0.1215
 3789POPC   C4B45996  18.536  10.848   5.919 -0.5251  0.1308 -0.1284
 3790POPC   NC345997  17.005  15.616   7.945  0.0627  0.1100 -0.0603
 3790POPC   PO445998  16.693  15.443   8.100 -0.0537  0.1594  0.0576
 3790POPC   GL145999  16.440  15.386   7.757 -0.0958 -0.0744 -0.2988
 3790POPC   GL246000  16.520  15.577   7.538 -0.1270  0.1552  0.1474
 3790POPC   C1A46001  16.219  15.075   7.472 -0.4271  0.1788  0.1950
 3790POPC   D2A46002  15.866  14.785   7.348 -0.1018  0.1682  0.2811
 3790POPC   C3A46003  15.950  14.727   6.865  0.3348 -0.3601 -0.1742
 3790POPC   C4A46004  16.051  14.726   6.372 -0.1224  0.2138 -0.3006
 3790POPC   C1B46005  16.457  15.462   7.040 -0.0685  0.1655 -0.2100
 3790POPC   C2B46006  16.554  15.424   6.576 -0.3142  0.1556 -0.2220
 3790POPC   C3B46007  16.975  15.453   6.359 -0.0409  0.1117  0.1281
 3790POPC   C4B46008  17.396  15.560   6.189 -0.0037  0.1913  0.0032
 3791POPC   NC346009  21.788  14.465   7.504  0.2399  0.0722 -0.0601
 3791POPC   PO446010  21.663  14.864   7.420 -0.2292 -0.2462 -0.0156
 3791POPC   GL146011  21.659  14.972   7.002  0.2185 -0.3436 -0.1155
 3791POPC   GL246012  21.600  14.648   6.903  0.2725  0.2815 -0.2779
 3791POPC   C1A46013  21.875  15.017   6.565  0.2473  0.4095 -0.2242
 3791POPC   D2A46014  22.224  14.997   6.220 -0.3682 -0.0494 -0.3129
 3791POPC   C3A46015  22.067  14.593   5.947  0.0520 -0.1339  0.0041
 3791POPC   C4A46016  22.061  14.170   5.898 -0.0321  0.0410 -0.0621
 3791POPC   C1B46017  21.711  14.530   6.491 -0.1698  0.0695 -0.0144
 3791POPC   C2B46018  21.572  14.464   6.028 -0.0377  0.0261 -0.0160
 3791POPC   C3B46019  21.439  14.530   5.581  0.1308 -0.1138 -0.0809
 3791POPC   C4B46020  21.503  14.650   5.175 -0.0540 -0.4679  0.0443
 3792POPC   NC346021  21.154   3.990   7.908 -0.1789  0.0220 -0.3853
 3792POPC   PO446022  21.007   3.660   7.964  0.1419  0.2159 -0.5105
 3792POPC   GL146023  21.082   3.630   7.572 -0.4015  0.2522  0.0851
 3792POPC   GL246024  20.937   3.389   7.504 -0.0905  0.0395  0.0747
 3792POPC   C1A46025  21.317   3.460   7.206 -0.0183 -0.2272 -0.1015
 3792POPC   D2A46026  21.453   3.181   6.854  0.0141 -0.0458  0.0615
 3792POPC   C3A46027  21.065   2.954   6.860 -0.4063  0.2717 -0.0661
 3792POPC   C4A46028  20.789   2.621   7.058  0.0032  0.0089  0.1810
 3792POPC   C1B46029  20.834   3.434   7.064 -0.0588  0.1557 -0.1800
 3792POPC   C2B46030  21.033   3.401   6.647  0.1639  0.0885  0.0943
 3792POPC   C3B46031  21.086   3.478   6.154  0.1669 -0.0106 -0.3997
 3792POPC   C4B46032  21.263   3.651   5.824 -0.0800 -0.0845  0.4431
 3793POPC   NC346033  26.865   8.300   8.159 -0.2028  0.0097 -0.1179
 3793POPC   PO446034  26.690   8.036   7.905  0.4909 -0.2757  0.2418
 3793POPC   GL146035  26.343   8.135   7.824  0.1624  0.0388 -0.2859
 3793POPC   GL246036  26.447   8.320   7.567 -0.1864 -0.1837 -0.1894
 3793POPC   C1A46037  25.947   8.376   7.695 -0.3280  0.2518 -0.1862
 3793POPC   D2A46038  25.793   8.726   7.426  0.3149 -0.0672 -0.2035
 3793POPC   C3A46039  25.787   8.656   6.973 -0.0721  0.0790 -0.4645
 3793POPC   C4A46040  25.988   8.636   6.545 -0.0461  0.3203  0.0032
 3793POPC   C1B46041  26.131   8.149   7.299  0.2658  0.1422  0.0725
 3793POPC   C2B46042  26.052   8.140   6.834 -0.0083 -0.1241  0.1877
 3793POPC   C3B46043  26.047   8.172   6.368 -0.0927 -0.0187 -0.1632
 3793POPC   C4B46044  25.835   8.004   5.974  0.0269 -0.0011  0.2844
 3794POPC   NC346045   8.758   8.549   7.695  0.1092  0.1483  0.0399
 3794POPC   PO446046   8.475   8.442   7.955  0.0705  0.0210  0.0256
 3794POPC   GL146047   8.277   8.194   7.730 -0.0440  0.2369 -0.1393
 3794POPC   GL246048   8.395   7.977   7.554  0.2302 -0.0115  0.1587
 3794POPC   C1A46049   8.132   8.281   7.277 -0.1897 -0.2749 -0.0368
 3794POPC   D2A46050   8.057   8.306   6.829  0.1016 -0.2571 -0.1145
 3794POPC   C3A46051   7.821   8.110   6.482 -0.0948 -0.0384 -0.1205
 3794POPC   C4A46052   7.698   7.885   6.090 -0.0208 -0.0385 -0.2572
 3794POPC   C1B46053   7.923   7.834   7.435  0.2643 -0.0433  0.1990
 3794POPC   C2B46054   7.688   7.932   7.037  0.1523 -0.3030 -0.2025
 3794POPC   C3B46055   7.272   8.107   6.874 -0.1807  0.4428  0.4805
 3794POPC   C4B46056   6.975   8.381   6.602  0.0879  0.1011 -0.1940
 3795POPC   NC346057  26.684  23.900   7.765  0.2229 -0.4774 -0.0789
 3795POPC   PO446058  27.006  23.801   7.916  0.2223 -0.0353  0.3368
 3795POPC   GL146059  26.961  23.481   7.652 -0.2408 -0.1188 -0.0190
 3795POPC   GL246060  27.207  23.277   7.670 -0.2338  0.0698 -0.2550
 3795POPC   C1A46061  26.784  23.074   7.518 -0.2086 -0.3819 -0.1540
 3795POPC   D2A46062  26.778  22.709   7.282 -0.0066  0.2513  0.2064
 3795POPC   C3A46063  26.731  22.739   6.836 -0.2305 -0.0501 -0.0695
 3795POPC   C4A46064  26.735  22.419   6.482  0.1620  0.1300  0.0922
 3795POPC   C1B46065  27.136  22.906   7.862 -0.1869  0.3626 -0.3514
 3795POPC   C2B46066  27.001  22.577   8.216 -0.0629 -0.3852 -0.0502
 3795POPC   C3B46067  27.082  22.179   8.281 -0.1443 -0.3010 -0.1099
 3795POPC   C4B46068  27.140  21.748   8.397  0.4351  0.0365 -0.0926
 3796POPC   NC346069   8.999  31.569   7.682 -0.1951  0.1851  0.0145
 3796POPC   PO446070   9.158  31.852   7.872  0.1228  0.0893  0.0068
 3796POPC   GL146071   9.230  31.846   7.438  0.1571  0.0569  0.2909
 3796POPC   GL246072   9.528  32.022   7.446 -0.1093  0.2623  0.2300
 3796POPC   C1A46073   8.962  31.804   7.064  0.3267  0.0591 -0.2472
 3796POPC   D2A46074   8.927  31.468   6.749 -0.0026 -0.0849  0.0299
 3796POPC   C3A46075   9.043  31.725   6.362 -0.0841  0.2786 -0.1788
 3796POPC   C4A46076   8.919  32.111   6.172  0.2768 -0.2915  0.0447
 3796POPC   C1B46077   9.569  32.023   7.000  0.0595 -0.0529 -0.0940
 3796POPC   C2B46078   9.294  32.010   6.658 -0.0699  0.1285  0.0488
 3796POPC   C3B46079   9.454  32.038   6.201 -0.2222 -0.1983  0.2782
 3796POPC   C4B46080   9.265  32.359   5.893  0.1381 -0.3482 -0.3501
 3797POPC   NC346081  25.752  19.186   8.095  0.0657  0.1266 -0.1933
 3797POPC   PO446082  25.694  19.355   7.741 -0.3438 -0.1265 -0.0698
 3797POPC   GL146083  25.811  18.983   7.561  0.3054  0.1130  0.1254
 3797POPC   GL246084  25.634  19.019   7.326 -0.1084 -0.2015 -0.2424
 3797POPC   C1A46085  25.738  18.559   7.469  0.1949  0.2944  0.4214
 3797POPC   D2A46086  25.705  18.104   7.445  0.1532 -0.1293 -0.1999
 3797POPC   C3A46087  25.655  18.098   6.991  0.1233 -0.1858 -0.2297
 3797POPC   C4A46088  25.436  17.957   6.638  0.1777 -0.1160 -0.1072
 3797POPC   C1B46089  25.598  18.682   6.975 -0.1814  0.1325 -0.0356
 3797POPC   C2B46090  25.469  18.439   6.620  0.3968 -0.1231 -0.1174
 3797POPC   C3B46091  25.391  18.220   6.175 -0.1338  0.0819 -0.2680
 3797POPC   C4B46092  25.423  18.322   5.767  0.1732  0.4693 -0.0614
 3798POPC   NC346093  20.342  28.711   8.404 -0.3449  0.4267 -0.1339
 3798POPC   PO446094  20.243  29.005   8.137 -0.0907  0.0769 -0.2368
 3798POPC   GL146095  20.364  29.182   7.762 -0.3058  0.0213  0.3567
 3798POPC   GL246096  20.673  29.161   7.809  0.2341  0.1150  0.2756
 3798POPC   C1A46097  20.220  29.329   7.322 -0.2367 -0.1811  0.1366
 3798POPC   D2A46098  19.937  29.503   7.017  0.3491  0.1839 -0.1226
 3798POPC   C3A46099  19.833  29.517   6.561 -0.2684 -0.2213  0.0270
 3798POPC   C4A46100  19.994  29.264   6.200 -0.0428 -0.0080 -0.3979
 3798POPC   C1B46101  20.907  29.134   7.433 -0.0252  0.2852  0.0113
 3798POPC   C2B46102  20.882  28.903   6.994  0.0318 -0.1401 -0.0075
 3798POPC   C3B46103  21.133  28.773   6.594  0.0818  0.3108  0.0048
 3798POPC   C4B46104  21.362  28.544   6.345  0.1682 -0.4273 -0.2154
 3799POPC   NC346105  25.917   5.913   8.276  0.0668  0.0050  0.0443
 3799POPC   PO446106  25.869   5.572   8.043  0.1666  0.0276  0.0554
 3799POPC   GL146107  26.004   5.220   7.862  0.1464 -0.0684 -0.0665
 3799POPC   GL246108  25.933   4.899   7.785 -0.0407  0.0943 -0.0825
 3799POPC   C1A46109  26.450   5.099   7.633  0.0402 -0.1808 -0.3558
 3799POPC   D2A46110  26.463   4.953   7.204  0.0280  0.0738  0.1212
 3799POPC   C3A46111  26.304   5.201   6.956  0.0696  0.0910  0.0645
 3799POPC   C4A46112  26.007   5.353   6.720 -0.3575 -0.1394 -0.0586
 3799POPC   C1B46113  25.968   5.088   7.354  0.0286  0.1434 -0.1535
 3799POPC   C2B46114  25.900   4.919   6.925  0.2395  0.1022 -0.4177
 3799POPC   C3B46115  26.068   4.893   6.504 -0.1107  0.3152  0.1538
 3799POPC   C4B46116  26.266   4.691   6.099  0.1527 -0.0504  0.1337
 3800POPC   NC346117  16.332  11.278   8.069 -0.2470 -0.0122  0.0664
 3800POPC   PO446118  16.620  11.552   8.084 -0.0429  0.0202  0.1868
 3800POPC   GL146119  16.623  11.495   7.655 -0.1582  0.2889  0.6132
 3800POPC   GL246120  16.624  11.224   7.682 -0.2725 -0.1261 -0.2597
 3800POPC   C1A46121  16.721  11.626   7.235 -0.1408  0.1246 -0.0084
 3800POPC   D2A46122  16.605  11.610   6.786  0.0183  0.2988 -0.0657
 3800POPC   C3A46123  16.435  11.905   6.548 -0.1035  0.2929 -0.3893
 3800POPC   C4A46124  16.073  12.153   6.433 -0.1290  0.3463 -0.0189
 3800POPC   C1B46125  16.655  10.974   7.344  0.1032 -0.2230  0.1962
 3800POPC   C2B46126  16.770  10.814   6.913  0.0718  0.1447 -0.0940
 3800POPC   C3B46127  16.830  10.516   6.597  0.2032 -0.2239 -0.3221
 3800POPC   C4B46128  17.154  10.407   6.267 -0.2601 -0.0103 -0.0449
 3801POPC   NC346129   3.543  17.297   7.803  0.0447  0.2086  0.0407
 3801POPC   PO446130   3.497  16.892   7.797  0.0468  0.0949 -0.2258
 3801POPC   GL146131   3.587  17.031   7.352  0.2095  0.2650 -0.2798
 3801POPC   GL246132   3.827  17.198   7.322 -0.1098  0.0490  0.0237
 3801POPC   C1A46133   3.690  16.860   6.924 -0.1423  0.1200 -0.1162
 3801POPC   D2A46134   3.618  16.727   6.485  0.2281 -0.1590 -0.3344
 3801POPC   C3A46135   3.574  16.923   6.053 -0.0719  0.0530 -0.0056
 3801POPC   C4A46136   3.497  17.170   5.635 -0.2079  0.1997 -0.0580
 3801POPC   C1B46137   4.152  16.892   7.117  0.1072 -0.1405 -0.1471
 3801POPC   C2B46138   4.171  16.812   6.645  0.0103 -0.1423 -0.2774
 3801POPC   C3B46139   4.034  16.738   6.220 -0.2288  0.0611  0.2071
 3801POPC   C4B46140   3.993  16.953   5.787  0.4881  0.1707 -0.0319
 3802POPC   NC346141   9.985   9.235   7.916 -0.0064  0.0690 -0.2726
 3802POPC   PO446142  10.304   9.201   7.676  0.1968  0.0609 -0.0648
 3802POPC   GL146143  10.152   9.224   7.301 -0.3713  0.0206  0.0853
 3802POPC   GL246144   9.894   9.411   7.264  0.1541  0.4308 -0.0724
 3802POPC   C1A46145  10.356   9.382   6.921 -0.0248 -0.1426  0.2079
 3802POPC   D2A46146  10.411   9.460   6.469 -0.1235 -0.1112  0.0283
 3802POPC   C3A46147  10.096   9.746   6.267  0.1808 -0.2111 -0.1730
 3802POPC   C4A46148   9.884  10.148   6.283 -0.0723  0.0260  0.4467
 3802POPC   C1B46149   9.897   9.206   6.839 -0.0736  0.1369 -0.0183
 3802POPC   C2B46150   9.930   9.329   6.376 -0.1547 -0.2381  0.2784
 3802POPC   C3B46151   9.537   9.470   6.099  0.2605 -0.0383  0.0087
 3802POPC   C4B46152   9.276   9.585   5.763 -0.1807  0.0012  0.2683
 3803POPC   NC346153   7.773  16.443   7.857 -0.1082 -0.1040  0.0409
 3803POPC   PO446154   7.985  16.123   7.774  0.1273  0.0526  0.0807
 3803POPC   GL146155   7.835  15.885   7.453 -0.0620  0.0584  0.0201
 3803POPC   GL246156   7.836  16.096   7.311 -0.0076  0.2886  0.0237
 3803POPC   C1A46157   7.745  15.645   7.044  0.0831  0.2852  0.2034
 3803POPC   D2A46158   7.738  15.377   6.740  0.1272  0.0528  0.0974
 3803POPC   C3A46159   8.106  15.405   6.410 -0.0337 -0.2324  0.0034
 3803POPC   C4A46160   8.471  15.585   6.102  0.0665 -0.0834 -0.0340
 3803POPC   C1B46161   7.594  16.159   6.906 -0.1984 -0.1090 -0.0783
 3803POPC   C2B46162   7.298  15.977   6.577  0.3152 -0.3242 -0.1329
 3803POPC   C3B46163   7.077  15.896   6.171  0.0865 -0.1318 -0.1206
 3803POPC   C4B46164   7.064  15.928   5.714  0.2562 -0.2049 -0.1479
 3804POPC   NC346165  23.227  29.669   8.128  0.0288  0.0721 -0.1629
 3804POPC   PO446166  23.318  29.364   8.317 -0.0007 -0.0495 -0.0711
 3804POPC   GL146167  23.632  29.430   7.965  0.1740 -0.1026  0.1618
 3804POPC   GL246168  23.741  29.160   7.862  0.0456 -0.1232  0.1882
 3804POPC   C1A46169  23.565  29.516   7.538 -0.1883  0.1130  0.2446
 3804POPC   D2A46170  23.844  29.858   7.315  0.0747 -0.0458 -0.1106
 3804POPC   C3A46171  23.743  29.895   6.894 -0.0319 -0.1621  0.2240
 3804POPC   C4A46172  23.859  30.222   6.625 -0.1156 -0.1445  0.2303
 3804POPC   C1B46173  23.719  28.866   7.559 -0.1712 -0.0655  0.0979
 3804POPC   C2B46174  23.881  28.762   7.083  0.1474 -0.1863  0.2178
 3804POPC   C3B46175  23.924  28.814   6.622 -0.1390 -0.2058 -0.1744
 3804POPC   C4B46176  23.822  28.541   6.155 -0.2262  0.0663  0.1747
 3805POPC   NC346177  28.411   1.910   7.467  0.0774  0.0523  0.1415
 3805POPC   PO446178  28.078   1.821   7.658  0.0674 -0.3929  0.2252
 3805POPC   GL146179  28.070   1.557   7.372 -0.0008 -0.0371  0.0451
 3805POPC   GL246180  27.870   1.488   7.259  0.1419  0.0151 -0.2082
 3805POPC   C1A46181  28.436   1.396   7.186  0.1541 -0.0350  0.2963
 3805POPC   D2A46182  28.443   1.212   6.753 -0.5804 -0.1827  0.2730
 3805POPC   C3A46183  28.564   1.427   6.389  0.1311 -0.1681  0.2387
 3805POPC   C4A46184  28.377   1.410   5.927 -0.3342 -0.0390 -0.1297
 3805POPC   C1B46185  28.046   1.567   6.845  0.0512  0.2162  0.0636
 3805POPC   C2B46186  28.190   1.830   6.448 -0.0668  0.0208  0.1408
 3805POPC   C3B46187  27.999   2.217   6.197 -0.0072 -0.2120 -0.0975
 3805POPC   C4B46188  27.870   2.236   5.739  0.0617  0.1502  0.0816
 3806POPC   NC346189  21.771  12.524   7.538 -0.0124 -0.3011  0.1575
 3806POPC   PO446190  21.736  12.898   7.567 -0.1620  0.2174  0.3059
 3806POPC   GL146191  21.671  12.814   7.170  0.0992 -0.0337 -0.2090
 3806POPC   GL246192  21.718  13.098   7.064  0.5412 -0.0163 -0.2138
 3806POPC   C1A46193  21.518  12.664   6.746 -0.2883 -0.0119 -0.1235
 3806POPC   D2A46194  21.211  12.370   6.559 -0.0939  0.1521 -0.1753
 3806POPC   C3A46195  20.953  12.312   6.146  0.1007  0.1604 -0.0211
 3806POPC   C4A46196  21.132  12.238   5.741  0.2016 -0.1929 -0.0560
 3806POPC   C1B46197  21.732  13.149   6.620 -0.1053  0.1679  0.0018
 3806POPC   C2B46198  21.793  13.274   6.167  0.1469  0.0892  0.1059
 3806POPC   C3B46199  21.825  13.215   5.741 -0.1496 -0.1802 -0.4418
 3806POPC   C4B46200  22.054  13.197   5.316  0.0856 -0.1521 -0.2902
 3807POPC   NC346201  15.371  19.450   7.630  0.2335  0.1805  0.0646
 3807POPC   PO446202  15.367  19.022   7.712  0.2477 -0.1179 -0.0194
 3807POPC   GL146203  15.679  19.118   7.461 -0.1181  0.1618 -0.0517
 3807POPC   GL246204  15.503  19.104   7.230 -0.2264 -0.1410 -0.1985
 3807POPC   C1A46205  15.862  18.789   7.171 -0.2264  0.0695  0.0364
 3807POPC   D2A46206  15.802  18.369   7.119 -0.1903 -0.2179 -0.1674
 3807POPC   C3A46207  15.549  18.177   6.806 -0.0445  0.0746  0.1400
 3807POPC   C4A46208  15.215  17.885   6.662 -0.0203  0.2877  0.2188
 3807POPC   C1B46209  15.379  19.182   6.845  0.2131  0.1791 -0.0164
 3807POPC   C2B46210  15.069  19.118   6.529 -0.0520 -0.1238  0.1033
 3807POPC   C3B46211  15.240  19.227   6.141 -0.1501  0.0809 -0.5605
 3807POPC   C4B46212  15.489  19.097   5.786  0.2192  0.0866 -0.1628
 3808POPC   NC346213  22.328   7.170   7.797  0.0019  0.0836 -0.1171
 3808POPC   PO446214  22.383   7.529   7.599  0.0256  0.1143 -0.0246
 3808POPC   GL146215  22.478   7.422   7.277  0.1953 -0.1129  0.0864
 3808POPC   GL246216  22.416   7.135   7.255  0.2062 -0.1292  0.0307
 3808POPC   C1A46217  22.440   7.664   6.920 -0.1108 -0.0085 -0.0069
 3808POPC   D2A46218  22.149   7.763   6.566 -0.0844 -0.1567  0.1207
 3808POPC   C3A46219  22.279   7.567   6.157 -0.1252 -0.0626  0.0249
 3808POPC   C4A46220  22.287   7.734   5.745  0.2223 -0.1238 -0.2691
 3808POPC   C1B46221  22.523   7.165   6.794 -0.0506 -0.0112 -0.3441
 3808POPC   C2B46222  22.633   7.158   6.299 -0.2039  0.1653  0.0151
 3808POPC   C3B46223  22.641   7.319   5.860 -0.1311  0.1992 -0.0822
 3808POPC   C4B46224  22.986   7.418   5.530 -0.0023  0.1899 -0.0335
 3809POPC   NC346225  26.369  24.284   7.810 -0.3730 -0.2447  0.0084
 3809POPC   PO446226  26.211  23.945   7.933 -0.2313  0.2452 -0.3211
 3809POPC   GL146227  26.043  23.798   7.540  0.1906  0.0619 -0.0522
 3809POPC   GL246228  26.256  23.947   7.419  0.5377  0.2598  0.0181
 3809POPC   C1A46229  26.138  23.477   7.177 -0.1161 -0.0698 -0.0666
 3809POPC   D2A46230  26.236  23.220   6.830  0.0122 -0.1234 -0.0478
 3809POPC   C3A46231  26.232  22.912   6.493 -0.0743  0.1908  0.0332
 3809POPC   C4A46232  26.316  22.733   6.107 -0.0615  0.1084  0.2559
 3809POPC   C1B46233  25.976  23.950   7.046  0.1454 -0.1157 -0.1927
 3809POPC   C2B46234  25.910  23.935   6.575  0.0286 -0.1472  0.2505
 3809POPC   C3B46235  25.972  23.808   6.138 -0.3574 -0.1099 -0.1744
 3809POPC   C4B46236  25.958  23.564   5.751 -0.0123  0.0379 -0.2101
 3810POPC   NC346237  17.243  24.977   7.618  0.1222 -0.0410  0.0800
 3810POPC   PO446238  17.555  25.173   7.742 -0.1714 -0.2650  0.1230
 3810POPC   GL146239  17.602  25.314   7.403  0.1093  0.1037  0.1930
 3810POPC   GL246240  17.499  25.135   7.236  0.0893  0.1840  0.0733
 3810POPC   C1A46241  17.753  25.548   7.024 -0.4450  0.2474 -0.3116
 3810POPC   D2A46242  17.659  25.554   6.572 -0.0279 -0.0720 -0.2391
 3810POPC   C3A46243  17.665  25.322   6.255 -0.1269  0.0133  0.2720
 3810POPC   C4A46244  17.972  25.000   5.991  0.3228 -0.4065  0.1595
 3810POPC   C1B46245  17.358  25.248   6.801  0.0691 -0.2976  0.4190
 3810POPC   C2B46246  17.204  25.378   6.369  0.1787  0.0300  0.1775
 3810POPC   C3B46247  16.903  25.193   6.100 -0.2242  0.0869  0.0551
 3810POPC   C4B46248  16.753  24.974   5.712  0.1660  0.0977 -0.0594
 3811POPC   NC346249  17.804  31.706   7.401  0.1144  0.0778  0.2015
 3811POPC   PO446250  17.662  31.386   7.533 -0.0798 -0.2291  0.0155
 3811POPC   GL146251  17.792  31.239   7.254 -0.0054 -0.0057  0.0129
 3811POPC   GL246252  17.692  30.989   7.147  0.2718  0.0518  0.3231
 3811POPC   C1A46253  17.811  31.536   6.901 -0.2361 -0.1442  0.0514
 3811POPC   D2A46254  17.811  31.933   6.552 -0.2877 -0.2657 -0.1255
 3811POPC   C3A46255  18.110  31.945   6.210  0.0749 -0.2223  0.0555
 3811POPC   C4A46256  18.410  32.023   5.840 -0.0578  0.0508 -0.1920
 3811POPC   C1B46257  17.894  30.999   6.708  0.3693 -0.0974 -0.0882
 3811POPC   C2B46258  17.952  30.974   6.256  0.0760  0.0577  0.0237
 3811POPC   C3B46259  17.951  31.094   5.825 -0.1088 -0.0177  0.0427
 3811POPC   C4B46260  17.778  31.255   5.398  0.1479  0.0815 -0.0176
 3812POPC   NC346261   1.655   0.551   7.451  0.2085 -0.0646  0.0212
 3812POPC   PO446262   1.863   0.949   7.473  0.1423  0.1845 -0.1066
 3812POPC   GL146263   1.908   0.997   7.095  0.0890  0.0959  0.0979
 3812POPC   GL246264   1.703   0.800   6.949  0.0221  0.1773  0.1945
 3812POPC   C1A46265   1.857   1.419   6.841 -0.0890  0.1814  0.0351
 3812POPC   D2A46266   1.653   1.755   6.599 -0.0054 -0.2542  0.1649
 3812POPC   C3A46267   1.875   2.094   6.371 -0.0373  0.2986  0.1936
 3812POPC   C4A46268   2.065   2.499   6.198 -0.0738 -0.4243  0.0167
 3812POPC   C1B46269   1.781   1.005   6.562 -0.1425 -0.2736 -0.4140
 3812POPC   C2B46270   1.529   0.854   6.210  0.3364 -0.0738 -0.1164
 3812POPC   C3B46271   1.367   0.812   5.778 -0.4864  0.3785 -0.2041
 3812POPC   C4B46272   1.117   0.588   5.463 -0.1351  0.4419 -0.2061
 3813POPC   NC346273  31.652   8.076   7.764 -0.0729  0.4506 -0.0536
 3813POPC   PO446274  31.910   7.715   7.687  0.0361 -0.0958 -0.1560
 3813POPC   GL146275  31.829   7.508   7.469 -0.2138  0.1566  0.0586
 3813POPC   GL246276  32.031   7.595   7.222  0.0621  0.0891  0.0365
 3813POPC   C1A46277  32.037   7.105   7.318  0.0034  0.0877  0.1446
 3813POPC   D2A46278  32.303   6.769   7.098  0.2124 -0.1135  0.0857
 3813POPC   C3A46279  32.316   6.828   6.627  0.0917  0.0895 -0.2031
 3813POPC   C4A46280  32.168   6.676   6.277 -0.0870  0.1276 -0.1425
 3813POPC   C1B46281  31.819   7.582   6.862 -0.0931  0.1847 -0.0976
 3813POPC   C2B46282  31.559   7.813   6.575 -0.3946 -0.1034  0.1240
 3813POPC   C3B46283  31.482   7.901   6.149 -0.1914  0.1488  0.0022
 3813POPC   C4B46284  31.665   8.087   5.715  0.0736 -0.1784 -0.0289
 3814POPC   NC346285  16.839  22.269   7.762 -0.3777  0.0528  0.0265
 3814POPC   PO446286  16.975  21.895   7.832 -0.3904  0.2764 -0.0767
 3814POPC   GL146287  16.974  21.968   7.452 -0.0015 -0.0398 -0.1175
 3814POPC   GL246288  16.686  21.798   7.402 -0.1898  0.0503  0.4911
 3814POPC   C1A46289  17.065  21.799   7.016  0.0618  0.0705  0.3048
 3814POPC   D2A46290  17.098  21.386   7.038 -0.0568 -0.0501  0.1621
 3814POPC   C3A46291  17.131  21.175   6.650  0.0023  0.0669 -0.0628
 3814POPC   C4A46292  17.152  21.212   6.190 -0.0597  0.0467 -0.1325
 3814POPC   C1B46293  16.626  21.578   6.988  0.0698 -0.0583 -0.5220
 3814POPC   C2B46294  16.811  21.504   6.580 -0.2812 -0.0852 -0.1494
 3814POPC   C3B46295  17.100  21.710   6.228  0.0515 -0.0942  0.2062
 3814POPC   C4B46296  17.271  22.055   5.943  0.1375 -0.1924 -0.1830
 3815POPC   NC346297  23.466  21.385   7.404  0.1841  0.0363  0.2610
 3815POPC   PO446298  23.478  21.776   7.448 -0.0812  0.2595  0.0944
 3815POPC   GL146299  23.434  21.752   7.095 -0.0466 -0.8305  0.0068
 3815POPC   GL246300  23.178  21.848   6.983  0.0951  0.1934  0.0818
 3815POPC   C1A46301  23.368  21.396   6.766 -0.0669  0.1829  0.1674
 3815POPC   D2A46302  23.427  21.010   6.495 -0.2646  0.0754  0.0942
 3815POPC   C3A46303  23.362  20.949   6.022  0.0352 -0.4121  0.2175
 3815POPC   C4A46304  23.075  20.805   5.718 -0.0352  0.0153  0.1637
 3815POPC   C1B46305  23.072  22.173   6.622  0.0214 -0.1801 -0.3647
 3815POPC   C2B46306  22.979  22.409   6.211  0.0670  0.1871  0.5617
 3815POPC   C3B46307  22.816  22.701   5.963 -0.3528  0.1237 -0.0181
 3815POPC   C4B46308  22.683  23.023   5.664 -0.0776 -0.0741 -0.2830
 3816POPC   NC346309  15.127   3.756   7.817 -0.0254 -0.0820 -0.0930
 3816POPC   PO446310  15.455   3.585   7.973 -0.1562 -0.0775 -0.2125
 3816POPC   GL146311  15.425   3.532   7.524 -0.3384 -0.3081 -0.3362
 3816POPC   GL246312  15.214   3.286   7.507 -0.0732 -0.3447  0.0770
 3816POPC   C1A46313  15.628   3.466   7.112  0.2263 -0.1761 -0.1321
 3816POPC   D2A46314  15.812   3.664   6.709 -0.3142 -0.2604  0.1577
 3816POPC   C3A46315  15.555   3.687   6.287 -0.1109 -0.0092 -0.1854
 3816POPC   C4A46316  15.464   3.653   5.842 -0.0419 -0.1167  0.3028
 3816POPC   C1B46317  15.210   2.886   7.246 -0.0113 -0.2687  0.0712
 3816POPC   C2B46318  15.204   2.803   6.806 -0.1915  0.2608  0.0530
 3816POPC   C3B46319  15.322   2.830   6.333 -0.0867  0.0480  0.1225
 3816POPC   C4B46320  15.731   2.649   6.142 -0.2244 -0.4127  0.0939
 3817POPC   NC346321  18.097  30.645   7.853 -0.3084  0.0740 -0.2580
 3817POPC   PO446322  17.994  30.234   7.880 -0.3520 -0.1499  0.0571
 3817POPC   GL146323  17.827  30.350   7.552 -0.2832  0.3371 -0.0335
 3817POPC   GL246324  17.823  30.618   7.443 -0.0578  0.0718  0.0369
 3817POPC   C1A46325  17.578  30.209   7.196  0.1756  0.4176  0.2781
 3817POPC   D2A46326  17.386  29.936   6.832  0.1306 -0.0147 -0.1675
 3817POPC   C3A46327  17.595  29.474   6.924 -0.2400 -0.0871  0.0327
 3817POPC   C4A46328  17.822  29.142   7.204  0.0178  0.2463  0.3064
 3817POPC   C1B46329  17.973  30.576   7.001  0.0227  0.1253  0.0862
 3817POPC   C2B46330  18.275  30.683   6.684 -0.2347 -0.1806 -0.0805
 3817POPC   C3B46331  18.495  30.790   6.234  0.0546  0.3961  0.0258
 3817POPC   C4B46332  18.491  30.925   5.792  0.4625  0.1583 -0.0757
 3818POPC   NC346333   2.272  18.799   7.107 -0.1496  0.4891  0.2245
 3818POPC   PO446334   2.429  19.031   7.377 -0.1324 -0.2491 -0.1846
 3818POPC   GL146335   2.517  19.174   7.025  0.0682 -0.2080  0.1887
 3818POPC   GL246336   2.415  19.463   7.058  0.1095  0.0285 -0.1016
 3818POPC   C1A46337   2.558  19.164   6.586  0.0424  0.1853 -0.0862
 3818POPC   D2A46338   2.548  19.101   6.122 -0.0516 -0.0221  0.2935
 3818POPC   C3A46339   2.286  19.419   6.167 -0.1586 -0.1547  0.0403
 3818POPC   C4A46340   1.930  19.712   6.066 -0.2114 -0.2203  0.2468
 3818POPC   C1B46341   2.206  19.701   6.742  0.1323  0.2436  0.1242
 3818POPC   C2B46342   2.061  19.991   6.460 -0.0083  0.2724  0.0178
 3818POPC   C3B46343   1.891  20.210   6.116 -0.0902 -0.0571  0.1042
 3818POPC   C4B46344   1.714  20.422   5.725  0.1262 -0.1011 -0.1751
 3819POPC   NC346345  19.361   7.858   7.640 -0.0724  0.0873 -0.1758
 3819POPC   PO446346  19.608   8.211   7.603 -0.1411  0.0066  0.0601
 3819POPC   GL146347  19.408   8.183   7.223  0.0635 -0.1014 -0.0412
 3819POPC   GL246348  19.348   7.926   7.136 -0.0277  0.0107  0.1664
 3819POPC   C1A46349  19.353   8.295   6.757  0.0530  0.3253 -0.2418
 3819POPC   D2A46350  19.520   8.500   6.345 -0.1541 -0.3197  0.0942
 3819POPC   C3A46351  19.260   8.844   6.152  0.2190 -0.2168  0.1577
 3819POPC   C4A46352  19.280   9.107   5.774 -0.3227 -0.0781  0.5925
 3819POPC   C1B46353  19.117   7.802   6.754  0.3212  0.3383  0.0679
 3819POPC   C2B46354  18.793   8.000   6.461 -0.0644  0.2093 -0.0117
 3819POPC   C3B46355  18.428   7.990   6.215 -0.0083  0.1283  0.1959
 3819POPC   C4B46356  18.223   8.272   5.878  0.1913  0.1209 -0.2158
 3820POPC   NC346357  15.376   1.171   7.702 -0.0031  0.0615 -0.2622
 3820POPC   PO446358  15.027   1.189   7.872  0.0138  0.0455  0.0059
 3820POPC   GL146359  14.844   0.998   7.585  0.2098  0.0569  0.0021
 3820POPC   GL246360  14.816   1.206   7.394  0.1321 -0.0648 -0.0477
 3820POPC   C1A46361  15.174   0.921   7.266 -0.0093 -0.2072  0.2182
 3820POPC   D2A46362  15.553   0.669   7.260  0.0125  0.0135 -0.0304
 3820POPC   C3A46363  15.759   0.573   6.907 -0.0113 -0.0409  0.1505
 3820POPC   C4A46364  15.653   0.676   6.484 -0.1019 -0.0719 -0.2105
 3820POPC   C1B46365  14.912   1.213   6.934 -0.0679  0.0593  0.2509
 3820POPC   C2B46366  14.943   1.481   6.551 -0.0122 -0.0570 -0.2909
 3820POPC   C3B46367  15.214   1.810   6.401 -0.2041 -0.2152 -0.0291
 3820POPC   C4B46368  15.431   1.922   6.009  0.1869 -0.2958  0.2347
 3821POPC   NC346369   4.316  27.822   7.900 -0.0194 -0.0161  0.2191
 3821POPC   PO446370   4.304  28.193   8.111 -0.2133  0.0471  0.3628
 3821POPC   GL146371   4.135  28.290   7.763  0.1101 -0.0473 -0.0123
 3821POPC   GL246372   3.873  28.276   7.605  0.2457 -0.1746  0.0514
 3821POPC   C1A46373   4.267  28.392   7.295 -0.2306  0.0618  0.3272
 3821POPC   D2A46374   4.097  28.371   6.861 -0.2756 -0.5125  0.0663
 3821POPC   C3A46375   4.161  27.941   6.758  0.0051 -0.1284  0.1566
 3821POPC   C4A46376   4.273  27.655   6.371 -0.2160  0.0410 -0.3411
 3821POPC   C1B46377   3.822  28.107   7.147 -0.0850 -0.0341  0.1748
 3821POPC   C2B46378   3.709  28.156   6.664  0.0157 -0.0278 -0.2983
 3821POPC   C3B46379   3.509  28.348   6.318  0.1932 -0.0841  0.0073
 3821POPC   C4B46380   3.520  28.238   5.877  0.0760  0.0800  0.0018
 3822POPC   NC346381  26.568   0.405   7.741 -0.0249  0.0061 -0.1797
 3822POPC   PO446382  26.594   0.785   7.724 -0.1404  0.4050 -0.0476
 3822POPC   GL146383  26.836   0.875   7.405 -0.4024 -0.2615 -0.1186
 3822POPC   GL246384  26.679   0.780   7.191  0.2062  0.3834 -0.2012
 3822POPC   C1A46385  27.174   0.750   7.103  0.0997  0.0691 -0.0709
 3822POPC   D2A46386  27.246   0.697   6.645  0.0873  0.2334  0.0023
 3822POPC   C3A46387  27.053   0.843   6.240 -0.1230 -0.0227 -0.2982
 3822POPC   C4A46388  27.063   1.186   5.871 -0.2805  0.0154  0.2744
 3822POPC   C1B46389  26.827   0.962   6.818 -0.1355  0.0823  0.0685
 3822POPC   C2B46390  27.161   1.200   6.566 -0.1353 -0.0850 -0.0318
 3822POPC   C3B46391  27.350   1.381   6.189  0.1621 -0.1158  0.0827
 3822POPC   C4B46392  27.630   1.496   5.817  0.2131 -0.1371  0.0734
 3823POPC   NC346393  18.320  18.112   7.999 -0.1893  0.0747 -0.2607
 3823POPC   PO446394  18.439  17.765   8.197 -0.1380 -0.0558 -0.0702
 3823POPC   GL146395  18.161  17.647   7.841 -0.1605  0.0669  0.3064
 3823POPC   GL246396  18.356  17.529   7.577  0.2232 -0.0811  0.2096
 3823POPC   C1A46397  17.895  17.652   7.478 -0.1295  0.0767  0.1634
 3823POPC   D2A46398  17.727  17.659   7.002  0.1940 -0.0821  0.0473
 3823POPC   C3A46399  17.880  17.605   6.525  0.1750 -0.1868 -0.2663
 3823POPC   C4A46400  17.877  17.401   6.130  0.4323  0.4128 -0.0442
 3823POPC   C1B46401  18.166  17.389   7.187  0.1100  0.3234  0.0795
 3823POPC   C2B46402  18.044  17.225   6.757 -0.2139 -0.1184 -0.1827
 3823POPC   C3B46403  17.737  17.064   6.435  0.5678 -0.3594 -0.0769
 3823POPC   C4B46404  17.639  16.927   5.976  0.1769 -0.2414  0.0418
 3824POPC   NC346405   8.340  27.537   8.071  0.3097 -0.1194 -0.2854
 3824POPC   PO446406   8.559  27.168   8.046  0.1299 -0.1564  0.2200
 3824POPC   GL146407   8.628  27.366   7.657 -0.0411  0.1061  0.3567
 3824POPC   GL246408   8.805  27.226   7.464  0.2545  0.0399  0.2190
 3824POPC   C1A46409   8.492  27.778   7.481 -0.1626  0.0950  0.0361
 3824POPC   D2A46410   8.602  28.214   7.357  0.0620  0.3358 -0.0894
 3824POPC   C3A46411   8.786  28.173   6.945 -0.0904  0.0430 -0.0570
 3824POPC   C4A46412   8.909  28.483   6.610  0.1259  0.1818 -0.2216
 3824POPC   C1B46413   8.973  27.241   7.042 -0.0400  0.2542 -0.4025
 3824POPC   C2B46414   8.809  27.097   6.685  0.0251  0.0421  0.1513
 3824POPC   C3B46415   8.979  26.844   6.361  0.1404  0.0695  0.2748
 3824POPC   C4B46416   9.133  26.812   5.902 -0.4181 -0.0170 -0.1947
 3825POPC   NC346417  28.039   7.778   7.747  0.0348 -0.1814 -0.2536
 3825POPC   PO446418  27.658   7.740   7.814 -0.1382 -0.0115 -0.0711
 3825POPC   GL146419  27.574   7.914   7.521 -0.2187 -0.1728 -0.0305
 3825POPC   GL246420  27.799   7.908   7.321 -0.0610  0.2656 -0.1155
 3825POPC   C1A46421  27.221   7.891   7.245 -0.2646  0.1132 -0.0053
 3825POPC   D2A46422  26.981   7.749   6.894 -0.0086 -0.4697 -0.0843
 3825POPC   C3A46423  27.110   7.390   6.642  0.0149 -0.2506 -0.0013
 3825POPC   C4A46424  27.006   7.040   6.363 -0.1131  0.0137  0.0829
 3825POPC   C1B46425  27.883   8.037   6.916  0.0169  0.0513  0.0247
 3825POPC   C2B46426  27.874   8.070   6.415  0.1382  0.0302  0.0142
 3825POPC   C3B46427  28.084   8.195   6.030  0.2346  0.0775 -0.2045
 3825POPC   C4B46428  28.365   8.069   5.658 -0.0384 -0.0387  0.1935
 3826POPC   NC346429  30.123  26.271   7.503 -0.0891 -0.0843 -0.0886
 3826POPC   PO446430  30.442  26.219   7.750  0.2003 -0.2073 -0.0549
 3826POPC   GL146431  30.586  26.387   7.487 -0.0846  0.1358  0.5787
 3826POPC   GL246432  30.771  26.666   7.520  0.0750  0.2931 -0.2337
 3826POPC   C1A46433  30.399  26.363   7.032  0.2406 -0.2160 -0.2753
 3826POPC   D2A46434  30.402  26.626   6.681 -0.1276 -0.0260  0.0090
 3826POPC   C3A46435  30.708  26.883   6.506  0.0986  0.0566 -0.0549
 3826POPC   C4A46436  30.904  27.309   6.477 -0.0703 -0.1192  0.2046
 3826POPC   C1B46437  30.844  26.865   7.115  0.0855 -0.0080 -0.1827
 3826POPC   C2B46438  31.221  26.983   6.787 -0.2152 -0.1354  0.2378
 3826POPC   C3B46439  31.305  26.853   6.360  0.2057 -0.2427  0.2191
 3826POPC   C4B46440  31.379  26.686   5.962  0.0290 -0.2443 -0.0103
 3827POPC   NC346441   0.586  29.283   8.795 -0.2178  0.0665  0.1067
 3827POPC   PO446442   0.655  29.475   8.463 -0.0952 -0.1390 -0.0483
 3827POPC   GL146443   0.493  29.399   8.151 -0.0901  0.1458  0.0739
 3827POPC   GL246444   0.516  29.153   8.095 -0.0352  0.0940  0.3187
 3827POPC   C1A46445   0.076  29.463   7.985 -0.0249  0.0971 -0.0983
 3827POPC   D2A46446  -0.185  29.170   7.726 -0.0500 -0.3549 -0.1242
 3827POPC   C3A46447  -0.476  28.874   7.479 -0.2888 -0.1578 -0.1947
 3827POPC   C4A46448  -0.952  28.876   7.583 -0.0294 -0.1626  0.1395
 3827POPC   C1B46449   0.317  29.156   7.650  0.0838 -0.3047 -0.0939
 3827POPC   C2B46450   0.005  28.969   7.345 -0.1801  0.2251 -0.1388
 3827POPC   C3B46451  -0.345  28.956   7.002 -0.0578  0.3282  0.0209
 3827POPC   C4B46452  -0.415  28.801   6.609 -0.0736 -0.0824  0.0153
 3828POPC   NC346453  13.838  30.567   8.087  0.0671  0.3569 -0.2649
 3828POPC   PO446454  13.534  30.814   7.935 -0.3430  0.3219 -0.1832
 3828POPC   GL146455  13.466  30.937   7.495 -0.0284  0.3001 -0.2842
 3828POPC   GL246456  13.288  30.717   7.501 -0.0734  0.0846 -0.0648
 3828POPC   C1A46457  13.359  30.979   7.028 -0.0726 -0.1639  0.0525
 3828POPC   D2A46458  13.365  30.872   6.628 -0.0850  0.0987 -0.1723
 3828POPC   C3A46459  13.530  30.573   6.351 -0.0089  0.0887 -0.0666
 3828POPC   C4A46460  13.644  30.198   6.133  0.1579  0.1039 -0.1477
 3828POPC   C1B46461  13.006  30.650   7.089 -0.0591  0.3063  0.0276
 3828POPC   C2B46462  12.751  30.646   6.698 -0.1329  0.0655  0.2328
 3828POPC   C3B46463  12.721  30.605   6.252 -0.0894 -0.1398  0.0139
 3828POPC   C4B46464  12.592  30.382   5.812 -0.1465 -0.0301 -0.1083
 3829POPC   NC346465  12.265   0.433   7.938 -0.0852 -0.1992  0.0266
 3829POPC   PO446466  12.083   0.557   7.625  0.3528  0.0596 -0.1027
 3829POPC   GL146467  12.095   0.379   7.259 -0.2831  0.0912  0.0926
 3829POPC   GL246468  12.053   0.639   7.150  0.2186  0.1645  0.0866
 3829POPC   C1A46469  11.688   0.329   7.007 -0.1204 -0.2595 -0.2583
 3829POPC   D2A46470  11.734   0.650   6.688 -0.0422  0.0483 -0.0352
 3829POPC   C3A46471  11.686   0.656   6.225  0.0788  0.0245  0.1045
 3829POPC   C4A46472  11.838   0.516   5.835 -0.1033 -0.0658 -0.0970
 3829POPC   C1B46473  12.123   0.338   6.776 -0.1828  0.1150  0.0987
 3829POPC   C2B46474  12.084   0.200   6.306  0.2596 -0.1396 -0.1937
 3829POPC   C3B46475  11.868  -0.026   5.968  0.0891  0.0795 -0.2554
 3829POPC   C4B46476  11.973  -0.094   5.508 -0.5033  0.3074  0.1554
 3830POPC   NC346477  23.463   4.505   8.166  0.2588 -0.1007 -0.0903
 3830POPC   PO446478  23.399   4.781   7.875  0.1658  0.1350 -0.0415
 3830POPC   GL146479  23.216   5.037   7.524  0.1733 -0.1873  0.3618
 3830POPC   GL246480  23.028   4.904   7.341  0.1453 -0.1008 -0.1070
 3830POPC   C1A46481  23.476   5.195   7.140 -0.0830  0.1734 -0.4196
 3830POPC   D2A46482  23.689   5.534   6.957 -0.1223 -0.1680  0.3433
 3830POPC   C3A46483  23.734   5.708   6.539 -0.2290  0.2924  0.3391
 3830POPC   C4A46484  23.874   5.778   6.103  0.0923  0.3023 -0.2044
 3830POPC   C1B46485  23.076   5.000   6.912 -0.0574 -0.1776 -0.0146
 3830POPC   C2B46486  22.822   4.844   6.634  0.0644 -0.2678  0.0492
 3830POPC   C3B46487  22.550   4.986   6.289 -0.1689 -0.1429 -0.3192
 3830POPC   C4B46488  22.219   4.981   5.964 -0.1544 -0.2087 -0.2276
 3831POPC   NC346489  17.901  25.580   7.797  0.1361 -0.0696 -0.0956
 3831POPC   PO446490  18.061  25.886   7.595 -0.1444  0.2176 -0.2029
 3831POPC   GL146491  18.150  25.514   7.350 -0.1346 -0.1226  0.1323
 3831POPC   GL246492  18.272  25.688   7.126 -0.2675 -0.1699  0.0431
 3831POPC   C1A46493  18.155  25.227   6.982 -0.0088  0.1954 -0.2169
 3831POPC   D2A46494  18.266  25.252   6.566 -0.1224 -0.1090 -0.2771
 3831POPC   C3A46495  18.299  25.372   6.136 -0.0001  0.0925  0.4400
 3831POPC   C4A46496  17.929  25.500   5.868 -0.1257  0.5558 -0.2975
 3831POPC   C1B46497  18.745  25.798   7.126 -0.2450  0.0657  0.1955
 3831POPC   C2B46498  19.019  25.827   6.803  0.1206  0.1249 -0.2096
 3831POPC   C3B46499  19.121  25.811   6.359 -0.0081 -0.1802  0.2091
 3831POPC   C4B46500  19.374  25.783   5.925  0.1316  0.1135  0.3185
 3832POPC   NC346501  11.647  23.541   7.555 -0.0233  0.2042 -0.2067
 3832POPC   PO446502  11.467  23.837   7.395  0.3394 -0.2638 -0.3213
 3832POPC   GL146503  11.598  23.911   7.050  0.0289 -0.1142  0.2224
 3832POPC   GL246504  11.385  23.945   6.942  0.0762 -0.1211 -0.0290
 3832POPC   C1A46505  11.806  23.855   6.598  0.2908 -0.1055 -0.1628
 3832POPC   D2A46506  11.858  23.814   6.106 -0.0613  0.1083  0.0511
 3832POPC   C3A46507  12.090  23.805   5.748  0.1919 -0.1107  0.2291
 3832POPC   C4A46508  12.492  23.772   5.599  0.0775 -0.2093  0.2897
 3832POPC   C1B46509  11.318  23.857   6.527  0.2936  0.1289 -0.2121
 3832POPC   C2B46510  11.342  24.011   6.086  0.0315 -0.0404  0.1442
 3832POPC   C3B46511  11.295  23.764   5.680 -0.1912 -0.0740 -0.1339
 3832POPC   C4B46512  11.163  23.352   5.425  0.2916 -0.0037  0.0715
 3833POPC   NC346513   9.971  26.842   7.796  0.1632 -0.1243  0.1668
 3833POPC   PO446514  10.368  26.921   7.835  0.0123  0.0513  0.1781
 3833POPC   GL146515  10.236  26.888   7.471 -0.0511  0.0795  0.1327
 3833POPC   GL246516  10.311  26.565   7.464  0.3102  0.2418 -0.1370
 3833POPC   C1A46517  10.241  27.089   7.043  0.0140  0.0951 -0.1386
 3833POPC   D2A46518  10.250  27.207   6.593 -0.1011 -0.2141  0.1151
 3833POPC   C3A46519   9.967  27.572   6.492 -0.2032  0.1159  0.3952
 3833POPC   C4A46520   9.652  27.653   6.194 -0.2331 -0.0350 -0.0685
 3833POPC   C1B46521  10.447  26.604   7.003 -0.1282  0.3052 -0.1667
 3833POPC   C2B46522  10.298  26.546   6.549 -0.2063 -0.0853 -0.1821
 3833POPC   C3B46523  10.157  26.520   6.150 -0.0862  0.1463  0.0373
 3833POPC   C4B46524   9.956  26.635   5.760  0.0784 -0.2176  0.1561
 3834POPC   NC346525   8.211  29.417   7.573 -0.1541  0.2914  0.0304
 3834POPC   PO446526   8.327  29.042   7.647 -0.1154  0.2151  0.1139
 3834POPC   GL146527   8.443  29.067   7.249 -0.0281  0.0832  0.1869
 3834POPC   GL246528   8.204  29.117   7.091 -0.3005 -0.0559 -0.1290
 3834POPC   C1A46529   8.532  28.777   6.856 -0.1590 -0.0660  0.3474
 3834POPC   D2A46530   8.450  28.833   6.420 -0.0439  0.0197  0.2088
 3834POPC   C3A46531   8.268  28.683   6.025  0.0547  0.1953  0.0655
 3834POPC   C4A46532   8.140  28.291   5.834  0.0370 -0.0805  0.2702
 3834POPC   C1B46533   7.994  28.993   6.739 -0.0984  0.0210  0.1693
 3834POPC   C2B46534   7.892  28.820   6.316  0.1371 -0.2238 -0.1125
 3834POPC   C3B46535   7.832  28.718   5.871 -0.2308 -0.0979 -0.0907
 3834POPC   C4B46536   7.526  28.644   5.479 -0.1087  0.3462  0.0567
 3835POPC   NC346537   2.075  11.258   7.856 -0.1270 -0.0510 -0.0613
 3835POPC   PO446538   1.734  11.158   7.760 -0.2778  0.0392  0.0669
 3835POPC   GL146539   1.708  11.162   7.365 -0.1802  0.2122 -0.0222
 3835POPC   GL246540   1.991  11.259   7.345  0.1787  0.1199 -0.2011
 3835POPC   C1A46541   1.423  11.209   7.012  0.3696 -0.3049  0.2236
 3835POPC   D2A46542   1.473  11.271   6.564  0.0561  0.0603  0.2481
 3835POPC   C3A46543   1.220  11.131   6.201 -0.2750  0.2512 -0.0203
 3835POPC   C4A46544   1.362  11.098   5.780 -0.0895 -0.2870  0.0824
 3835POPC   C1B46545   1.952  11.371   6.918 -0.1091  0.0177  0.2049
 3835POPC   C2B46546   1.984  11.526   6.449  0.1557  0.3583 -0.0758
 3835POPC   C3B46547   2.259  11.368   6.083 -0.5191  0.2881 -0.0415
 3835POPC   C4B46548   2.389  11.302   5.616  0.0670 -0.0955 -0.2045
 3836POPC   NC346549   0.431   4.237   7.753 -0.0265 -0.1402 -0.1136
 3836POPC   PO446550   0.154   4.086   7.984 -0.0450 -0.1055 -0.1503
 3836POPC   GL146551  -0.096   4.209   7.594 -0.2203 -0.0274  0.2456
 3836POPC   GL246552  -0.289   4.481   7.632  0.1329 -0.1201  0.1460
 3836POPC   C1A46553  -0.207   4.030   7.200  0.0139 -0.3526  0.1001
 3836POPC   D2A46554  -0.206   3.735   6.857  0.1678 -0.1157  0.0408
 3836POPC   C3A46555   0.160   3.510   6.671 -0.0733 -0.0121 -0.0268
 3836POPC   C4A46556   0.466   3.444   6.356  0.1651 -0.1001 -0.2893
 3836POPC   C1B46557  -0.218   4.611   7.184 -0.0532  0.0018  0.4143
 3836POPC   C2B46558  -0.303   4.675   6.702 -0.1163  0.0121 -0.0308
 3836POPC   C3B46559  -0.340   4.900   6.276 -0.1916 -0.1769  0.3047
 3836POPC   C4B46560  -0.184   5.239   6.065 -0.0909  0.1577  0.0060
 3837POPC   NC346561  12.915  18.314   7.454  0.2010  0.0963  0.1355
 3837POPC   PO446562  13.168  18.508   7.703  0.0041  0.0546  0.1627
 3837POPC   GL146563  13.325  18.632   7.264 -0.0989  0.1432 -0.2109
 3837POPC   GL246564  13.267  18.399   7.147  0.0574  0.0215  0.2595
 3837POPC   C1A46565  13.756  18.758   7.108  0.0582 -0.0756 -0.3570
 3837POPC   D2A46566  14.085  18.775   6.805  0.1127  0.4167 -0.0912
 3837POPC   C3A46567  13.953  18.578   6.410  0.1177 -0.0834 -0.3791
 3837POPC   C4A46568  14.043  18.469   5.967  0.3376  0.2259  0.4122
 3837POPC   C1B46569  13.240  18.495   6.712  0.0046  0.0665 -0.3752
 3837POPC   C2B46570  13.109  18.547   6.253  0.0024 -0.1059  0.1165
 3837POPC   C3B46571  13.028  18.750   5.805  0.0224  0.1153  0.2030
 3837POPC   C4B46572  12.819  18.590   5.450  0.0092 -0.2487  0.0907
 3838POPC   NC346573  17.863   9.069   7.880  0.2189  0.0310 -0.2073
 3838POPC   PO446574  17.636   8.783   8.015  0.1602 -0.2638  0.2301
 3838POPC   GL146575  17.545   8.630   7.769  0.0948  0.2658 -0.1294
 3838POPC   GL246576  17.311   8.702   7.680  0.1454  0.0547 -0.3185
 3838POPC   C1A46577  17.508   8.277   7.500  0.2335  0.1305 -0.0826
 3838POPC   D2A46578  17.650   7.907   7.277 -0.2234  0.0306  0.2797
 3838POPC   C3A46579  17.752   7.951   6.818 -0.1979 -0.0212  0.1476
 3838POPC   C4A46580  17.929   8.101   6.400  0.0548 -0.0841 -0.4511
 3838POPC   C1B46581  17.070   8.771   7.323  0.1669 -0.2470 -0.1387
 3838POPC   C2B46582  16.944   8.757   6.867  0.3030  0.1072  0.1741
 3838POPC   C3B46583  16.999   8.760   6.382  0.0140 -0.0111  0.1533
 3838POPC   C4B46584  17.018   8.858   5.930  0.1773  0.0338 -0.2721
 3839POPC   NC346585   0.417  18.324   7.756  0.0658 -0.0341 -0.2817
 3839POPC   PO446586   0.650  18.536   7.505  0.2049  0.1028  0.3188
 3839POPC   GL146587   0.486  18.698   7.200 -0.4262  0.1317 -0.0037
 3839POPC   GL246588   0.249  18.605   7.204 -0.0433  0.2312 -0.0569
 3839POPC   C1A46589   0.386  18.980   6.889 -0.0774 -0.1468  0.1145
 3839POPC   D2A46590   0.150  18.901   6.500 -0.3132 -0.1160 -0.0284
 3839POPC   C3A46591  -0.249  19.022   6.474 -0.2752  0.0298  0.0144
 3839POPC   C4A46592  -0.604  18.815   6.608 -0.1790  0.1336 -0.0994
 3839POPC   C1B46593   0.390  18.540   6.753  0.0222 -0.1061 -0.4261
 3839POPC   C2B46594   0.582  18.541   6.312  0.0152 -0.0871 -0.2593
 3839POPC   C3B46595   0.593  18.485   5.892  0.2136 -0.3452  0.0322
 3839POPC   C4B46596   0.328  18.561   5.532 -0.0912  0.0598 -0.1244
 3840POPC   NC346597   6.314   3.844   7.724  0.0597  0.0136 -0.0342
 3840POPC   PO446598   5.948   3.852   7.605  0.0720 -0.0604 -0.1624
 3840POPC   GL146599   5.985   4.069   7.235  0.0355  0.0961  0.0907
 3840POPC   GL246600   5.963   4.348   7.129  0.0801 -0.0381  0.1310
 3840POPC   C1A46601   5.914   3.755   6.912  0.1370  0.3886 -0.0805
 3840POPC   D2A46602   6.075   3.379   6.654  0.0126 -0.1991  0.1872
 3840POPC   C3A46603   5.991   3.343   6.171 -0.0072  0.0583 -0.0154
 3840POPC   C4A46604   6.049   2.999   5.891 -0.0355 -0.2256 -0.1233
 3840POPC   C1B46605   5.988   4.212   6.734  0.3227  0.0338  0.5433
 3840POPC   C2B46606   5.991   4.333   6.262  0.1452  0.0659 -0.3633
 3840POPC   C3B46607   6.133   4.295   5.845  0.0934  0.1948 -0.2393
 3840POPC   C4B46608   6.413   4.081   5.553 -0.0868  0.2075 -0.1289
 3841POPC   NC346609   8.009  27.205   8.036  0.1179  0.1118 -0.1825
 3841POPC   PO446610   7.793  27.523   8.168  0.3660  0.1389  0.0435
 3841POPC   GL146611   7.620  27.493   7.872 -0.0336  0.1584 -0.2051
 3841POPC   GL246612   7.501  27.726   7.741  0.2450 -0.4738  0.2145
 3841POPC   C1A46613   7.742  27.380   7.412  0.0352  0.0815 -0.2215
 3841POPC   D2A46614   8.005  27.367   6.998 -0.0901  0.1270  0.1406
 3841POPC   C3A46615   8.032  27.524   6.546  0.0699 -0.0688  0.2890
 3841POPC   C4A46616   7.854  27.722   6.182 -0.0864  0.0569 -0.2799
 3841POPC   C1B46617   7.272  27.749   7.310 -0.3157 -0.1252  0.1807
 3841POPC   C2B46618   7.220  27.873   6.856 -0.2175  0.1214 -0.1405
 3841POPC   C3B46619   7.144  27.893   6.401  0.2915  0.0988  0.1237
 3841POPC   C4B46620   7.299  27.815   5.981 -0.0929 -0.0147  0.3318
 3842POPC   NC346621   9.320  28.439   7.955  0.3321  0.1439 -0.1159
 3842POPC   PO446622   9.493  28.572   7.611 -0.1159  0.0743  0.1219
 3842POPC   GL146623   9.449  28.444   7.226  0.3257 -0.3435 -0.3234
 3842POPC   GL246624   9.136  28.497   7.182  0.3358  0.1872 -0.0137
 3842POPC   C1A46625   9.803  28.318   6.952  0.0168  0.3436  0.2287
 3842POPC   D2A46626  10.190  28.592   6.823 -0.1799  0.0719 -0.0059
 3842POPC   C3A46627  10.388  28.541   6.406  0.1232  0.0143  0.0855
 3842POPC   C4A46628  10.386  28.548   5.976  0.0304  0.1018  0.2498
 3842POPC   C1B46629   9.386  28.516   6.789  0.1203 -0.0814  0.0312
 3842POPC   C2B46630   9.335  28.617   6.370 -0.0842  0.0287 -0.0597
 3842POPC   C3B46631   9.534  28.625   5.948 -0.3737 -0.0437 -0.0031
 3842POPC   C4B46632   9.890  28.938   5.920 -0.2543 -0.0431 -0.2690
 3843POPC   NC346633  16.177  19.604   7.840 -0.1324 -0.1041  0.0255
 3843POPC   PO446634  15.834  19.398   7.820 -0.0828  0.1632 -0.0057
 3843POPC   GL146635  16.006  19.541   7.397  0.3120 -0.1538 -0.3514
 3843POPC   GL246636  15.740  19.564   7.286 -0.1322 -0.1342 -0.0017
 3843POPC   C1A46637  16.212  19.548   6.961  0.1032  0.2159 -0.1406
 3843POPC   D2A46638  16.139  19.764   6.571  0.2456 -0.1027 -0.2051
 3843POPC   C3A46639  16.326  19.615   6.195  0.0883 -0.1357 -0.1426
 3843POPC   C4A46640  16.658  19.490   5.829 -0.0334 -0.2641 -0.1665
 3843POPC   C1B46641  15.686  19.529   6.820  0.5262  0.0609  0.0679
 3843POPC   C2B46642  15.701  19.454   6.334  0.1897  0.0506  0.0012
 3843POPC   C3B46643  15.808  19.581   5.890  0.0275  0.0676  0.1374
 3843POPC   C4B46644  15.805  19.743   5.452  0.4124 -0.0004  0.3610
 3844POPC   NC346645   2.894  20.483   7.351 -0.2961 -0.1637 -0.1760
 3844POPC   PO446646   2.521  20.607   7.335  0.0190 -0.2344 -0.2917
 3844POPC   GL146647   2.441  20.532   6.966  0.3286  0.0338  0.1220
 3844POPC   GL246648   2.294  20.375   6.778  0.2854 -0.3041 -0.0707
 3844POPC   C1A46649   2.485  20.865   6.582 -0.0480  0.0318  0.0243
 3844POPC   D2A46650   2.611  21.216   6.390  0.1519  0.1737 -0.0590
 3844POPC   C3A46651   2.826  21.341   6.004  0.1080 -0.3761 -0.1445
 3844POPC   C4A46652   2.780  21.388   5.564 -0.1248  0.3316  0.0772
 3844POPC   C1B46653   2.318  20.474   6.352  0.0830  0.0207  0.1853
 3844POPC   C2B46654   2.415  20.804   6.048 -0.0645  0.0621  0.1229
 3844POPC   C3B46655   2.782  20.900   5.756  0.0540  0.0682  0.0348
 3844POPC   C4B46656   3.226  21.124   5.751  0.3181  0.0671  0.4791
 3845POPC   NC346657   1.998  23.827   7.525  0.0242  0.3036 -0.3309
 3845POPC   PO446658   2.219  23.639   7.807  0.1687 -0.1430 -0.0025
 3845POPC   GL146659   2.408  23.689   7.396 -0.1083  0.3262  0.0167
 3845POPC   GL246660   2.565  23.399   7.406  0.1531  0.2706  0.0508
 3845POPC   C1A46661   2.569  23.729   6.928  0.3988 -0.0048  0.0893
 3845POPC   D2A46662   2.826  23.944   6.658  0.2468 -0.0758 -0.1113
 3845POPC   C3A46663   2.971  23.888   6.226 -0.1023  0.0870  0.1862
 3845POPC   C4A46664   3.247  23.778   5.855 -0.0286  0.0819 -0.2936
 3845POPC   C1B46665   2.382  23.297   6.963  0.2485 -0.0664 -0.0193
 3845POPC   C2B46666   2.528  23.387   6.580  0.3097 -0.0872  0.0616
 3845POPC   C3B46667   2.598  23.631   6.233 -0.1222 -0.2058  0.2231
 3845POPC   C4B46668   2.489  23.660   5.802 -0.1299  0.2579  0.0908
 3846POPC   NC346669   7.785  24.160   7.736 -0.2383  0.0358 -0.0624
 3846POPC   PO446670   7.466  24.268   7.599  0.1056 -0.1279  0.1828
 3846POPC   GL146671   7.410  24.408   7.244 -0.1544 -0.1545 -0.0275
 3846POPC   GL246672   7.529  24.242   7.009 -0.0711  0.0802  0.1286
 3846POPC   C1A46673   7.120  24.453   6.846 -0.0113 -0.0673  0.1729
 3846POPC   D2A46674   6.873  24.291   6.464 -0.0676  0.4230  0.2710
 3846POPC   C3A46675   7.050  24.268   6.043 -0.0550  0.0016 -0.0236
 3846POPC   C4A46676   6.998  24.466   5.617  0.2401 -0.0582 -0.1378
 3846POPC   C1B46677   7.464  24.165   6.512 -0.3404  0.0690 -0.0020
 3846POPC   C2B46678   7.692  24.378   6.117  0.1656 -0.1212 -0.0060
 3846POPC   C3B46679   7.527  24.711   5.801  0.2850  0.4826 -0.3892
 3846POPC   C4B46680   7.189  24.974   5.714  0.1142  0.0656  0.2279
 3847POPC   NC346681   1.940   7.372   7.768  0.1987  0.0839 -0.3957
 3847POPC   PO446682   2.266   7.563   7.743  0.0480 -0.3992 -0.0517
 3847POPC   GL146683   2.355   7.446   7.323  0.2017  0.1548 -0.1721
 3847POPC   GL246684   2.495   7.713   7.306  0.0465 -0.0307 -0.1023
 3847POPC   C1A46685   2.253   7.348   6.885  0.4148  0.0471 -0.0572
 3847POPC   D2A46686   1.793   7.345   6.773 -0.2443 -0.0943 -0.0761
 3847POPC   C3A46687   1.841   7.263   6.312 -0.0865  0.0064 -0.2047
 3847POPC   C4A46688   1.882   6.923   5.933  0.1353  0.1236 -0.1604
 3847POPC   C1B46689   2.420   7.843   6.838 -0.1002 -0.1071  0.1567
 3847POPC   C2B46690   2.597   7.696   6.408 -0.0539  0.0674 -0.1693
 3847POPC   C3B46691   2.687   7.524   5.964 -0.1026 -0.3858  0.0202
 3847POPC   C4B46692   2.804   7.413   5.538 -0.1030  0.2927  0.3144
 3848POPC   NC346693  15.739  14.299   8.062 -0.1053 -0.2735 -0.5127
 3848POPC   PO446694  15.907  14.559   7.815 -0.2449 -0.0451 -0.0714
 3848POPC   GL146695  16.241  14.367   7.575  0.2225 -0.2291  0.3902
 3848POPC   GL246696  16.326  14.060   7.598  0.0089  0.5150 -0.0062
 3848POPC   C1A46697  16.366  14.222   7.129  0.0784  0.0243 -0.1429
 3848POPC   D2A46698  16.810  14.336   7.024  0.0218  0.6728 -0.1316
 3848POPC   C3A46699  16.903  14.723   6.921 -0.0827 -0.1504  0.3118
 3848POPC   C4A46700  16.920  15.245   6.900  0.0758 -0.3150  0.1668
 3848POPC   C1B46701  16.237  13.727   7.273 -0.5231 -0.0386 -0.1501
 3848POPC   C2B46702  16.148  13.721   6.793 -0.3840  0.0732 -0.0233
 3848POPC   C3B46703  16.259  13.708   6.326  0.0466 -0.1947 -0.0890
 3848POPC   C4B46704  16.337  13.825   5.901 -0.1573  0.0237  0.0774
 3849POPC   NC346705  26.278  31.410   7.523 -0.0989  0.1060  0.0892
 3849POPC   PO446706  26.591  31.668   7.597 -0.0564  0.0557 -0.0458
 3849POPC   GL146707  26.525  31.631   7.157 -0.1503  0.1903  0.3369
 3849POPC   GL246708  26.582  31.373   7.111  0.0487  0.1481  0.1515
 3849POPC   C1A46709  26.349  31.871   6.795  0.3003  0.3275 -0.0204
 3849POPC   D2A46710  26.193  32.082   6.418 -0.1745 -0.0458  0.1639
 3849POPC   C3A46711  25.763  32.191   6.312 -0.1803  0.2844 -0.0024
 3849POPC   C4A46712  25.489  32.255   5.976 -0.0125  0.0854 -0.3395
 3849POPC   C1B46713  26.429  31.351   6.679 -0.1089 -0.1426  0.0839
 3849POPC   C2B46714  26.379  31.083   6.324  0.1741  0.2410  0.2259
 3849POPC   C3B46715  26.216  31.302   5.857 -0.1421 -0.0177 -0.4029
 3849POPC   C4B46716  26.337  31.660   5.606 -0.1207 -0.0131 -0.0434
 3850POPC   NC346717  21.044  28.316   7.950  0.0622 -0.1603  0.0398
 3850POPC   PO446718  21.424  28.347   8.076 -0.2153  0.0388 -0.1105
 3850POPC   GL146719  21.451  28.361   7.685 -0.2641  0.0265 -0.0636
 3850POPC   GL246720  21.359  28.625   7.557  0.2383 -0.3625  0.1686
 3850POPC   C1A46721  21.522  28.235   7.248 -0.1112  0.4022  0.0697
 3850POPC   D2A46722  21.671  27.865   6.922  0.1759 -0.0109  0.0177
 3850POPC   C3A46723  21.713  27.908   6.496  0.2365  0.1087 -0.1347
 3850POPC   C4A46724  21.886  27.948   6.077  0.4495 -0.3824  0.0278
 3850POPC   C1B46725  20.892  28.628   7.523  0.1719  0.0589  0.2207
 3850POPC   C2B46726  20.524  28.846   7.418  0.3879 -0.0116  0.1947
 3850POPC   C3B46727  20.360  28.973   6.996 -0.0786  0.1760 -0.0385
 3850POPC   C4B46728  20.276  29.256   6.623 -0.1196 -0.2589 -0.1243
 3851POPC   NC346729   4.101  19.473   7.359  0.1928 -0.2270  0.0106
 3851POPC   PO446730   3.767  19.299   7.407 -0.3459 -0.1627  0.2119
 3851POPC   GL146731   3.815  19.325   7.023  0.2331 -0.2120  0.0825
 3851POPC   GL246732   3.801  19.041   6.964 -0.2980  0.1321  0.0841
 3851POPC   C1A46733   3.829  19.310   6.543  0.4062 -0.1646 -0.0743
 3851POPC   D2A46734   4.097  19.291   6.189  0.3752 -0.1750  0.0222
 3851POPC   C3A46735   4.058  19.561   5.836 -0.0910 -0.1580  0.0963
 3851POPC   C4A46736   3.885  19.725   5.451 -0.1425 -0.1530  0.2459
 3851POPC   C1B46737   3.665  18.816   6.547  0.1195  0.0913 -0.0377
 3851POPC   C2B46738   3.876  18.807   6.177 -0.0298 -0.2454 -0.1605
 3851POPC   C3B46739   4.110  18.861   5.789 -0.2369 -0.1913 -0.1257
 3851POPC   C4B46740   4.489  18.759   5.541  0.0977  0.1390 -0.2459
 3852POPC   NC346741   8.327   9.433   7.844 -0.1219  0.0845 -0.0020
 3852POPC   PO446742   8.037   9.233   8.002  0.1390 -0.2087  0.1318
 3852POPC   GL146743   8.097   8.908   7.774  0.2579  0.1084 -0.1872
 3852POPC   GL246744   8.396   8.908   7.801 -0.0603  0.2447  0.0354
 3852POPC   C1A46745   8.070   8.805   7.283 -0.2900 -0.0318 -0.2757
 3852POPC   D2A46746   7.982   8.897   6.871 -0.1106 -0.1069  0.2140
 3852POPC   C3A46747   7.900   8.683   6.471  0.3464  0.0099  0.2667
 3852POPC   C4A46748   7.688   8.623   6.069 -0.1053  0.0184  0.2042
 3852POPC   C1B46749   8.486   8.988   7.400 -0.1188  0.0135  0.0657
 3852POPC   C2B46750   8.539   9.005   6.963 -0.1211  0.0056  0.3269
 3852POPC   C3B46751   8.354   8.867   6.504 -0.0126  0.1577  0.1257
 3852POPC   C4B46752   8.407   8.491   6.228  0.2053  0.2462 -0.2678
 3853POPC   NC346753   4.516  25.991   7.396  0.2254  0.1254 -0.0630
 3853POPC   PO446754   4.664  26.092   7.745 -0.3694 -0.0403  0.3749
 3853POPC   GL146755   4.874  26.452   7.593 -0.1164 -0.3461  0.0206
 3853POPC   GL246756   4.970  26.337   7.424 -0.0168  0.0458  0.2390
 3853POPC   C1A46757   4.649  26.665   7.237 -0.1616  0.3661  0.2108
 3853POPC   D2A46758   4.703  26.853   6.785 -0.0342 -0.0583  0.0909
 3853POPC   C3A46759   5.134  26.998   6.687 -0.0907 -0.1654 -0.0540
 3853POPC   C4A46760   5.426  27.316   6.563 -0.0078 -0.1198 -0.1378
 3853POPC   C1B46761   5.097  26.106   7.068  0.3248 -0.2811 -0.0804
 3853POPC   C2B46762   5.196  26.038   6.636  0.0593  0.0928 -0.1605
 3853POPC   C3B46763   5.274  25.809   6.254  0.0015 -0.1273  0.1149
 3853POPC   C4B46764   5.513  25.490   5.952 -0.0543 -0.0894  0.0848
 3854POPC   NC346765  20.018   2.912   8.023 -0.4743  0.2096  0.2207
 3854POPC   PO446766  20.004   2.525   8.096  0.2654  0.2516  0.0604
 3854POPC   GL146767  19.872   2.423   7.722  0.0066 -0.2483  0.0137
 3854POPC   GL246768  20.050   2.580   7.550 -0.0946 -0.2082 -0.0887
 3854POPC   C1A46769  19.555   2.525   7.405 -0.4240 -0.0556  0.2525
 3854POPC   D2A46770  19.262   2.716   7.061 -0.0031 -0.0535 -0.0402
 3854POPC   C3A46771  19.322   2.778   6.594 -0.0310  0.1069 -0.0293
 3854POPC   C4A46772  19.029   2.780   6.226  0.2970  0.1661  0.1958
 3854POPC   C1B46773  20.000   2.295   7.217  0.1157 -0.3441 -0.1619
 3854POPC   C2B46774  20.022   1.970   6.869 -0.3106 -0.1076  0.0224
 3854POPC   C3B46775  20.123   1.833   6.397  0.0989 -0.0028 -0.3076
 3854POPC   C4B46776  20.315   1.926   5.953  0.0842  0.0246  0.1216
 3855POPC   NC346777  18.105  28.379   7.624  0.0383 -0.0212 -0.2909
 3855POPC   PO446778  18.189  28.762   7.651  0.1744 -0.1042 -0.0165
 3855POPC   GL146779  18.082  28.779   7.282  0.3125 -0.0585  0.2083
 3855POPC   GL246780  18.087  28.459   7.155  0.0609  0.1115 -0.1585
 3855POPC   C1A46781  18.380  28.935   6.955 -0.2251  0.0351  0.0301
 3855POPC   D2A46782  18.741  28.885   6.625 -0.0324 -0.1152  0.1257
 3855POPC   C3A46783  18.792  29.021   6.157 -0.0003  0.1388 -0.1223
 3855POPC   C4A46784  19.092  29.111   5.838  0.0125 -0.2469  0.2155
 3855POPC   C1B46785  17.914  28.362   6.721 -0.1364  0.1569  0.0304
 3855POPC   C2B46786  17.736  28.554   6.384 -0.4667 -0.1514  0.1859
 3855POPC   C3B46787  17.793  28.809   6.035  0.0117  0.1162 -0.1248
 3855POPC   C4B46788  17.827  29.068   5.677  0.0726  0.2594  0.0840
 3856POPC   NC346789  21.551  29.187   8.093  0.1332 -0.0982  0.3361
 3856POPC   PO446790  21.517  29.484   7.838 -0.1288  0.0483 -0.1941
 3856POPC   GL146791  21.410  29.641   7.499 -0.0230  0.2397 -0.2245
 3856POPC   GL246792  21.125  29.587   7.544  0.0310 -0.3463  0.0145
 3856POPC   C1A46793  21.363  30.015   7.178 -0.0993 -0.1139 -0.0715
 3856POPC   D2A46794  21.141  30.185   6.799 -0.1153 -0.2114 -0.1110
 3856POPC   C3A46795  21.267  30.137   6.384 -0.1016  0.1984 -0.1973
 3856POPC   C4A46796  21.203  30.081   5.939  0.4200 -0.1011  0.0910
 3856POPC   C1B46797  21.255  29.365   7.115  0.0479 -0.2918 -0.0879
 3856POPC   C2B46798  21.216  29.224   6.688  0.1757 -0.1517 -0.0340
 3856POPC   C3B46799  21.560  29.336   6.419 -0.3132 -0.3521 -0.2256
 3856POPC   C4B46800  22.026  29.329   6.420  0.1550 -0.3824  0.0190
 3857POPC   NC346801  30.188   5.094   7.811 -0.0191 -0.1489 -0.1540
 3857POPC   PO446802  29.942   4.809   7.656 -0.2131 -0.0399 -0.1207
 3857POPC   GL146803  30.066   4.752   7.327 -0.2314 -0.1102 -0.1047
 3857POPC   GL246804  30.275   4.932   7.344  0.0194  0.2477 -0.1582
 3857POPC   C1A46805  30.157   4.375   7.101  0.2929 -0.0907  0.3535
 3857POPC   D2A46806  30.013   4.017   6.800  0.0983  0.0889  0.0603
 3857POPC   C3A46807  30.088   3.999   6.293  0.5190  0.1321 -0.0418
 3857POPC   C4A46808  30.066   4.143   5.838 -0.1001 -0.0529  0.3516
 3857POPC   C1B46809  29.996   4.810   6.940  0.1504  0.0504 -0.1479
 3857POPC   C2B46810  30.030   4.649   6.541  0.2706 -0.1203 -0.0233
 3857POPC   C3B46811  29.963   4.602   6.040 -0.1714 -0.0739 -0.3505
 3857POPC   C4B46812  29.720   4.463   5.702  0.0014  0.1648  0.1567
 3858POPC   NC346813   1.054  31.024   7.724  0.1537 -0.2148 -0.1603
 3858POPC   PO446814   0.763  31.139   8.011 -0.0152  0.1825  0.0965
 3858POPC   GL146815   0.647  30.849   7.669 -0.0948 -0.0045 -0.0202
 3858POPC   GL246816   0.340  30.949   7.713  0.0384 -0.2316  0.0406
 3858POPC   C1A46817   0.604  31.056   7.210  0.0305  0.0740  0.1210
 3858POPC   D2A46818   0.634  31.177   6.722  0.1555  0.1515  0.2563
 3858POPC   C3A46819   0.523  31.657   6.543 -0.1889  0.1183  0.2391
 3858POPC   C4A46820   0.762  32.067   6.562 -0.1678 -0.2657 -0.0466
 3858POPC   C1B46821   0.242  30.766   7.302  0.0813  0.0654  0.2993
 3858POPC   C2B46822  -0.060  30.650   7.011 -0.1793 -0.2091 -0.0654
 3858POPC   C3B46823  -0.160  30.318   6.729  0.1572  0.0212  0.2006
 3858POPC   C4B46824   0.039  30.174   6.356  0.1356  0.0125  0.1465
 3859POPC   NC346825  21.346   6.796   7.843  0.0467  0.1363  0.1538
 3859POPC   PO446826  21.534   6.459   7.739 -0.0855 -0.1848  0.3550
 3859POPC   GL146827  21.400   6.739   7.398 -0.1113 -0.1030 -0.1326
 3859POPC   GL246828  21.538   6.998   7.383 -0.1574 -0.2089 -0.1072
 3859POPC   C1A46829  21.245   6.637   6.975 -0.0486 -0.0465 -0.2160
 3859POPC   D2A46830  21.337   6.430   6.620  0.1911  0.1259  0.0053
 3859POPC   C3A46831  21.565   6.358   6.205 -0.0430 -0.0970  0.2363
 3859POPC   C4A46832  21.664   6.373   5.761 -0.1338 -0.0605 -0.2358
 3859POPC   C1B46833  21.564   7.323   7.036 -0.0772 -0.2549 -0.2851
 3859POPC   C2B46834  21.659   7.600   6.693  0.0169  0.4518 -0.1187
 3859POPC   C3B46835  21.627   7.727   6.233  0.0640 -0.1952 -0.0932
 3859POPC   C4B46836  21.489   8.096   5.998  0.2343 -0.2953  0.1034
 3860POPC   NC346837  16.506  13.786   8.071  0.3103 -0.1866  0.1893
 3860POPC   PO446838  16.528  13.393   7.987  0.1380 -0.0850 -0.0043
 3860POPC   GL146839  16.508  13.452   7.554 -0.1103 -0.2771  0.2445
 3860POPC   GL246840  16.667  13.717   7.536  0.2120  0.2490 -0.0508
 3860POPC   C1A46841  16.466  13.319   7.087  0.1689  0.0583 -0.2352
 3860POPC   D2A46842  16.478  13.331   6.600  0.1898  0.0382  0.0402
 3860POPC   C3A46843  16.366  13.115   6.216  0.4743  0.0709 -0.0171
 3860POPC   C4A46844  16.477  12.797   5.882  0.1065  0.1977 -0.1501
 3860POPC   C1B46845  16.721  13.822   7.032  0.1647  0.1832  0.1648
 3860POPC   C2B46846  16.525  13.984   6.653 -0.0153  0.1421  0.0777
 3860POPC   C3B46847  16.748  14.004   6.257  0.0556 -0.0574 -0.1284
 3860POPC   C4B46848  17.030  14.333   6.148  0.0456  0.0592  0.0665
 3861POPC   NC346849  12.293   2.389   7.591  0.1875 -0.1743  0.0517
 3861POPC   PO446850  12.510   2.715   7.647  0.0389  0.1193 -0.0922
 3861POPC   GL146851  12.663   2.896   7.333  0.2915  0.1468  0.0568
 3861POPC   GL246852  12.851   2.772   7.220  0.1981 -0.0168  0.3024
 3861POPC   C1A46853  12.480   3.109   6.943 -0.0807  0.0618 -0.1107
 3861POPC   D2A46854  12.629   3.208   6.496  0.0924 -0.2971  0.0740
 3861POPC   C3A46855  13.080   3.071   6.289  0.1274  0.0947 -0.1696
 3861POPC   C4A46856  13.247   2.814   5.946 -0.0138 -0.1771 -0.0989
 3861POPC   C1B46857  12.912   2.431   6.989 -0.0326 -0.0067  0.1399
 3861POPC   C2B46858  13.158   2.231   6.603  0.0172  0.3216  0.1587
 3861POPC   C3B46859  13.491   1.908   6.502 -0.3036  0.1690 -0.1635
 3861POPC   C4B46860  13.729   1.859   6.068 -0.2223 -0.0662 -0.0329
 3862POPC   NC346861   1.561  23.319   8.220 -0.0034 -0.0891 -0.0068
 3862POPC   PO446862   1.649  23.152   7.892  0.0704 -0.1304  0.0159
 3862POPC   GL146863   1.909  23.046   7.604 -0.1547  0.1672  0.0547
 3862POPC   GL246864   2.005  23.321   7.536 -0.0135  0.1933 -0.0901
 3862POPC   C1A46865   2.158  22.946   7.223 -0.2536 -0.0495  0.0991
 3862POPC   D2A46866   2.446  22.742   6.954 -0.1677  0.1560 -0.0215
 3862POPC   C3A46867   2.452  22.544   6.545  0.3191 -0.0589  0.1470
 3862POPC   C4A46868   2.365  22.605   6.105  0.0093 -0.1421  0.1844
 3862POPC   C1B46869   1.832  23.357   7.091  0.1758  0.0885 -0.4630
 3862POPC   C2B46870   1.982  23.394   6.648 -0.1422 -0.0364 -0.2723
 3862POPC   C3B46871   2.055  23.429   6.188  0.0867  0.2294 -0.0192
 3862POPC   C4B46872   1.911  23.630   5.820 -0.0151 -0.0013 -0.1445
 3863POPC   NC346873  10.386  22.411   8.347 -0.0727 -0.2028 -0.0630
 3863POPC   PO446874  10.516  22.332   7.978  0.1555  0.0899  0.1320
 3863POPC   GL146875  10.467  22.517   7.578  0.0324  0.4429 -0.0240
 3863POPC   GL246876  10.685  22.325   7.517  0.0375 -0.0107 -0.0905
 3863POPC   C1A46877  10.298  22.263   7.199 -0.1106  0.1329 -0.2231
 3863POPC   D2A46878  10.296  22.136   6.755  0.3133  0.0481  0.4529
 3863POPC   C3A46879  10.286  22.405   6.403  0.0059 -0.0010  0.0308
 3863POPC   C4A46880  10.655  22.577   6.183  0.2237  0.1432 -0.0777
 3863POPC   C1B46881  10.726  22.493   7.094 -0.2439 -0.1353  0.0663
 3863POPC   C2B46882  10.518  22.720   6.720  0.1170  0.0568 -0.2161
 3863POPC   C3B46883  10.126  22.826   6.530  0.0421  0.6246 -0.1738
 3863POPC   C4B46884   9.926  22.872   6.143  0.0001 -0.1443 -0.1459
 3864POPC   NC346885  17.191  29.561   7.910 -0.1366 -0.0444 -0.0237
 3864POPC   PO446886  17.075  29.190   7.686  0.1250 -0.3697  0.0954
 3864POPC   GL146887  16.918  29.480   7.464  0.3572  0.3891 -0.1071
 3864POPC   GL246888  16.680  29.633   7.531 -0.0729  0.2071  0.2003
 3864POPC   C1A46889  16.973  29.648   7.013 -0.1201  0.1827  0.1502
 3864POPC   D2A46890  17.168  29.478   6.598  0.1459  0.1018  0.4138
 3864POPC   C3A46891  17.207  29.573   6.181 -0.2605  0.1277 -0.0617
 3864POPC   C4A46892  17.008  29.341   5.843  0.1444  0.1824 -0.1787
 3864POPC   C1B46893  16.532  29.525   7.145  0.0031 -0.2272  0.1396
 3864POPC   C2B46894  16.658  29.441   6.710 -0.5466 -0.1675 -0.1079
 3864POPC   C3B46895  16.703  29.440   6.259 -0.0626 -0.0385  0.0576
 3864POPC   C4B46896  16.567  29.201   5.901 -0.4000  0.0926 -0.2617
 3865POPC   NC346897   9.330   4.680   8.071  0.1263 -0.1358  0.0939
 3865POPC   PO446898   9.168   4.894   7.824  0.0955  0.4482 -0.1582
 3865POPC   GL146899   9.175   4.825   7.383  0.3204 -0.0452 -0.1252
 3865POPC   GL246900   9.176   4.612   7.159 -0.0057  0.1663 -0.2359
 3865POPC   C1A46901   9.018   5.053   6.992  0.1622 -0.1496 -0.0111
 3865POPC   D2A46902   8.648   4.984   6.655 -0.0466  0.0785  0.1261
 3865POPC   C3A46903   8.689   5.098   6.271 -0.3964 -0.1034 -0.1459
 3865POPC   C4A46904   8.654   5.084   5.798 -0.3825 -0.1069 -0.0697
 3865POPC   C1B46905   8.880   4.595   6.799  0.1931  0.2694 -0.1112
 3865POPC   C2B46906   8.872   4.321   6.469 -0.2799  0.3393 -0.0988
 3865POPC   C3B46907   8.779   4.020   6.134 -0.4588 -0.1212 -0.2566
 3865POPC   C4B46908   8.708   4.000   5.656 -0.2024  0.0078  0.0430
 3866POPC   NC346909  26.171  17.697   7.674  0.1037  0.4200 -0.2065
 3866POPC   PO446910  26.154  17.469   8.029 -0.2531  0.0746  0.4069
 3866POPC   GL146911  25.853  17.333   7.853  0.5018 -0.0298  0.0552
 3866POPC   GL246912  25.822  17.087   7.937 -0.0561  0.2508 -0.1671
 3866POPC   C1A46913  25.500  17.212   7.496  0.2075 -0.1203 -0.3416
 3866POPC   D2A46914  25.203  17.078   7.165 -0.2148 -0.1587  0.1485
 3866POPC   C3A46915  24.782  16.863   7.238 -0.3424 -0.0462  0.0321
 3866POPC   C4A46916  24.411  16.941   7.482 -0.0837 -0.0919 -0.1847
 3866POPC   C1B46917  25.382  16.932   7.941 -0.1075 -0.0947  0.0180
 3866POPC   C2B46918  25.003  16.979   8.159  0.0750  0.0598 -0.2795
 3866POPC   C3B46919  24.699  16.728   8.403  0.1120 -0.1703  0.2100
 3866POPC   C4B46920  24.240  16.661   8.397  0.0001 -0.0234 -0.2469
 3867POPC   NC346921   7.851  30.061   7.462 -0.1108  0.0926  0.1251
 3867POPC   PO446922   8.133  30.269   7.663 -0.0831 -0.5532  0.1095
 3867POPC   GL146923   8.066  30.607   7.287 -0.0367  0.2836 -0.0205
 3867POPC   GL246924   8.128  30.421   7.153  0.0152 -0.3311 -0.1443
 3867POPC   C1A46925   8.511  30.734   7.299  0.1112 -0.1152  0.1403
 3867POPC   D2A46926   8.638  31.194   7.191  0.1945 -0.3143 -0.1138
 3867POPC   C3A46927   8.440  31.411   6.856  0.0223 -0.0895 -0.1341
 3867POPC   C4A46928   8.127  31.664   6.600 -0.0061 -0.1873 -0.2321
 3867POPC   C1B46929   8.379  30.288   6.787  0.0616 -0.0584 -0.3026
 3867POPC   C2B46930   8.543  30.113   6.373 -0.0796 -0.0879 -0.0319
 3867POPC   C3B46931   8.550  30.217   5.942 -0.0440 -0.1423 -0.1471
 3867POPC   C4B46932   8.797  30.525   5.658 -0.1303  0.0105 -0.2599
 3868POPC   NC346933  23.861   9.464   7.866  0.1043 -0.0221  0.1817
 3868POPC   PO446934  24.236   9.487   8.032  0.3277  0.0719 -0.0923
 3868POPC   GL146935  24.357   9.543   7.661 -0.0266 -0.1455  0.1770
 3868POPC   GL246936  24.346   9.258   7.494  0.2461  0.3030  0.2531
 3868POPC   C1A46937  24.148   9.609   7.247  0.0336  0.1138  0.0945
 3868POPC   D2A46938  24.014   9.835   6.867 -0.2949  0.1690  0.0448
 3868POPC   C3A46939  23.992   9.790   6.424  0.0963  0.1309  0.1493
 3868POPC   C4A46940  24.110  10.064   6.056  0.2053 -0.0623  0.1166
 3868POPC   C1B46941  24.673   9.098   7.143  0.2220 -0.0224  0.0193
 3868POPC   C2B46942  24.889   8.737   6.862  0.1226 -0.1222  0.2445
 3868POPC   C3B46943  24.922   8.478   6.430  0.2259  0.1243 -0.1473
 3868POPC   C4B46944  25.164   8.381   6.048 -0.0372  0.0978  0.0552
 3869POPC   NC346945  21.186  20.266   7.213 -0.6145  0.1338 -0.0515
 3869POPC   PO446946  21.358  20.058   7.502 -0.0286 -0.0911  0.0884
 3869POPC   GL146947  21.463  19.823   7.245 -0.0863 -0.3566 -0.1718
 3869POPC   GL246948  21.797  19.834   7.213  0.2349  0.3381  0.2013
 3869POPC   C1A46949  21.379  19.665   6.795  0.0979 -0.0655 -0.0097
 3869POPC   D2A46950  21.058  19.647   6.464  0.2109  0.2695  0.2372
 3869POPC   C3A46951  21.213  19.572   6.047 -0.1848  0.2255 -0.2363
 3869POPC   C4A46952  21.152  19.271   5.763 -0.1251 -0.1830  0.0016
 3869POPC   C1B46953  21.888  19.664   6.792 -0.0724 -0.0554  0.2506
 3869POPC   C2B46954  21.768  19.537   6.385  0.0962 -0.2513  0.2738
 3869POPC   C3B46955  21.658  19.354   5.937  0.0647  0.0588  0.0317
 3869POPC   C4B46956  21.585  19.133   5.576 -0.2066  0.1742 -0.1402
 3870POPC   NC346957  27.750  13.801   7.650  0.0429 -0.0219 -0.1323
 3870POPC   PO446958  27.411  13.787   7.851  0.2629 -0.0450  0.1038
 3870POPC   GL146959  27.285  13.883   7.445  0.1074 -0.0075 -0.1693
 3870POPC   GL246960  27.057  13.678   7.429  0.0919 -0.0398  0.1526
 3870POPC   C1A46961  27.558  14.020   7.111  0.3440 -0.0728  0.0033
 3870POPC   D2A46962  27.732  14.036   6.620  0.3332  0.3081  0.1517
 3870POPC   C3A46963  27.766  13.799   6.224 -0.0959  0.0171  0.1270
 3870POPC   C4A46964  27.717  13.880   5.773  0.3246 -0.2031  0.5370
 3870POPC   C1B46965  27.197  13.592   6.973 -0.0589  0.0984 -0.0904
 3870POPC   C2B46966  27.514  13.582   6.699  0.1210  0.0419 -0.2372
 3870POPC   C3B46967  27.938  13.561   6.696 -0.1811  0.2230 -0.0822
 3870POPC   C4B46968  28.330  13.683   6.494  0.0076  0.0557  0.1947
 3871POPC   NC346969  19.181   0.961   7.952 -0.1719 -0.0664 -0.4345
 3871POPC   PO446970  19.512   0.839   7.758  0.1646  0.4998  0.3529
 3871POPC   GL146971  19.519   0.637   7.364  0.0704  0.5966 -0.1596
 3871POPC   GL246972  19.191   0.716   7.366 -0.1418 -0.0964  0.2314
 3871POPC   C1A46973  19.512   0.960   7.002 -0.0766  0.4724 -0.1739
 3871POPC   D2A46974  19.381   1.234   6.651  0.1088  0.3040  0.0564
 3871POPC   C3A46975  19.641   1.052   6.271 -0.0578 -0.2289 -0.2297
 3871POPC   C4A46976  19.860   1.170   5.886  0.3258  0.1310  0.2687
 3871POPC   C1B46977  18.795   0.864   7.196  0.1868 -0.0579  0.1826
 3871POPC   C2B46978  18.627   0.958   6.798 -0.0026 -0.0477 -0.1098
 3871POPC   C3B46979  18.554   1.162   6.405  0.0233  0.1038  0.0580
 3871POPC   C4B46980  18.471   1.566   6.174 -0.3735 -0.1329  0.0290
 3872POPC   NC346981  20.422  22.430   8.342 -0.1632 -0.0871  0.1897
 3872POPC   PO446982  20.301  22.692   8.044  0.2309  0.0756 -0.1802
 3872POPC   GL146983  19.957  22.722   7.881  0.0110 -0.1120 -0.2506
 3872POPC   GL246984  19.725  22.511   7.825  0.2289  0.2257 -0.0115
 3872POPC   C1A46985  20.061  22.509   7.484  0.0529  0.0335  0.2108
 3872POPC   D2A46986  20.152  22.122   7.336 -0.0541  0.0242  0.3271
 3872POPC   C3A46987  20.076  21.734   7.546  0.0413  0.3961  0.2190
 3872POPC   C4A46988  19.818  21.332   7.589  0.2067 -0.1278 -0.0129
 3872POPC   C1B46989  19.570  22.811   7.494 -0.0711  0.0296  0.0659
 3872POPC   C2B46990  19.787  23.143   7.260  0.0707 -0.5178 -0.0638
 3872POPC   C3B46991  19.750  23.457   6.871  0.1840  0.0038  0.0232
 3872POPC   C4B46992  19.409  23.311   6.559 -0.2026 -0.1101 -0.2592
 3873POPC   NC346993  15.772  16.397   8.123 -0.2079  0.0114  0.3355
 3873POPC   PO446994  15.929  16.072   8.038 -0.0906 -0.2425 -0.4128
 3873POPC   GL146995  15.941  16.242   7.689  0.0376  0.0934  0.0850
 3873POPC   GL246996  16.177  16.283   7.548 -0.0788  0.2854 -0.2264
 3873POPC   C1A46997  15.807  16.353   7.241 -0.3894 -0.1283 -0.1015
 3873POPC   D2A46998  15.840  16.341   6.794 -0.0625 -0.2871 -0.0880
 3873POPC   C3A46999  15.571  16.450   6.429  0.1775  0.0519 -0.0147
 3873POPC   C4A47000  15.478  16.851   6.208 -0.0711 -0.1233  0.2360
 3873POPC   C1B47001  16.163  15.985   7.179  0.0750  0.0833  0.3799
 3873POPC   C2B47002  16.140  15.831   6.674 -0.0429  0.3824 -0.1213
 3873POPC   C3B47003  16.203  15.711   6.209  0.0464  0.0854  0.0213
 3873POPC   C4B47004  16.134  15.500   5.753  0.1839 -0.1629 -0.1294
 3874POPC   NC347005  21.702  16.646   8.109 -0.0938  0.0647  0.1133
 3874POPC   PO447006  21.676  16.929   7.829 -0.0577  0.1209 -0.2664
 3874POPC   GL147007  21.981  16.928   7.551  0.0678  0.3237 -0.1959
 3874POPC   GL247008  21.841  17.082   7.325 -0.0177  0.2433 -0.2456
 3874POPC   C1A47009  22.260  16.969   7.176 -0.6170  0.1174 -0.1945
 3874POPC   D2A47010  22.341  16.980   6.694 -0.3595 -0.1419 -0.1641
 3874POPC   C3A47011  22.446  17.354   6.479 -0.1912  0.2797  0.0286
 3874POPC   C4A47012  22.789  17.394   6.121 -0.0134 -0.2102 -0.2853
 3874POPC   C1B47013  21.821  16.915   6.906 -0.0543  0.1475 -0.2047
 3874POPC   C2B47014  21.903  16.712   6.565  0.0923 -0.1505 -0.0338
 3874POPC   C3B47015  21.901  16.717   6.113  0.3332  0.2925 -0.0464
 3874POPC   C4B47016  21.944  16.543   5.673  0.0046  0.0934 -0.2872
 3875POPC   NC347017  23.514  11.795   7.794 -0.3821  0.1190 -0.5040
 3875POPC   PO447018  23.541  12.168   7.710  0.0935  0.1111  0.2022
 3875POPC   GL147019  23.506  11.987   7.346 -0.3790  0.0247 -0.2803
 3875POPC   GL247020  23.764  11.914   7.270  0.2467 -0.1356 -0.1751
 3875POPC   C1A47021  23.423  12.021   6.888  0.0611 -0.2886 -0.0048
 3875POPC   D2A47022  23.674  12.021   6.517 -0.0748 -0.0141  0.0995
 3875POPC   C3A47023  23.846  12.247   6.158  0.1275  0.0744  0.0200
 3875POPC   C4A47024  24.166  12.140   5.928 -0.2222 -0.1185 -0.0406
 3875POPC   C1B47025  23.868  12.282   6.976 -0.0852 -0.0553  0.4569
 3875POPC   C2B47026  23.834  12.511   6.589  0.1169  0.2430 -0.1018
 3875POPC   C3B47027  23.862  12.712   6.145 -0.2388  0.1335  0.3546
 3875POPC   C4B47028  23.818  12.998   5.812  0.0295 -0.0985  0.3978
 3876POPC   NC347029  27.313   5.600   7.813  0.1062  0.0114  0.1230
 3876POPC   PO447030  27.138   5.957   7.761  0.2135  0.2600  0.1263
 3876POPC   GL147031  27.248   5.742   7.359  0.3487 -0.0520 -0.2726
 3876POPC   GL247032  27.528   5.686   7.319  0.0951 -0.2987  0.1216
 3876POPC   C1A47033  27.287   6.037   7.017 -0.0086  0.1141 -0.0940
 3876POPC   D2A47034  27.201   6.085   6.595  0.1252  0.0432  0.4064
 3876POPC   C3A47035  27.145   6.128   6.163 -0.0175 -0.0749 -0.1075
 3876POPC   C4A47036  26.734   6.112   5.969 -0.1846 -0.2462 -0.1773
 3876POPC   C1B47037  27.350   5.451   6.933  0.0420 -0.0852 -0.0416
 3876POPC   C2B47038  27.530   5.295   6.513 -0.2337  0.1374 -0.0409
 3876POPC   C3B47039  27.570   5.082   6.132  0.1123 -0.2108  0.2366
 3876POPC   C4B47040  27.770   4.956   5.739  0.0524 -0.2979 -0.0624
 3877POPC   NC347041   1.405  24.992   7.453  0.0232 -0.0057 -0.2917
 3877POPC   PO447042   1.019  24.863   7.496 -0.0711  0.1219 -0.0538
 3877POPC   GL147043   1.122  24.895   7.115 -0.2593  0.0328 -0.0964
 3877POPC   GL247044   0.866  24.965   7.009 -0.2890  0.0837  0.0631
 3877POPC   C1A47045   1.497  24.738   6.864 -0.2940 -0.1591  0.0810
 3877POPC   D2A47046   1.595  24.609   6.407  0.0732 -0.1049  0.2388
 3877POPC   C3A47047   1.827  24.818   6.111 -0.0018 -0.2847  0.2752
 3877POPC   C4A47048   2.168  24.951   5.888 -0.0600 -0.1019  0.0678
 3877POPC   C1B47049   0.559  24.959   6.668  0.0525  0.2733  0.1076
 3877POPC   C2B47050   0.479  24.600   6.454  0.1200 -0.0696 -0.1703
 3877POPC   C3B47051   0.425  24.431   6.072 -0.1742 -0.1990  0.0217
 3877POPC   C4B47052   0.314  24.388   5.624 -0.1883  0.1557 -0.2959
 3878POPC   NC347053  18.843  19.788   7.848 -0.1318  0.0405  0.1176
 3878POPC   PO447054  19.158  19.562   7.909  0.2147 -0.2364  0.0936
 3878POPC   GL147055  18.977  19.470   7.486  0.1026  0.3652  0.0858
 3878POPC   GL247056  18.860  19.632   7.342 -0.0911 -0.0525  0.0127
 3878POPC   C1A47057  19.132  19.289   7.091  0.0921 -0.1144 -0.0857
 3878POPC   D2A47058  19.212  19.339   6.637 -0.3072 -0.0354 -0.0724
 3878POPC   C3A47059  19.499  19.692   6.548  0.1068  0.2895  0.1724
 3878POPC   C4A47060  19.985  19.729   6.595 -0.0348 -0.1829  0.1674
 3878POPC   C1B47061  18.428  19.827   7.256 -0.0550  0.1068 -0.2620
 3878POPC   C2B47062  18.389  20.142   6.904 -0.0276  0.0785 -0.0143
 3878POPC   C3B47063  18.162  20.216   6.501 -0.1090  0.2683 -0.0809
 3878POPC   C4B47064  17.800  20.486   6.356 -0.2591  0.1017 -0.0691
 3879POPC   NC347065   7.620  28.701   8.203  0.2521 -0.1476 -0.0789
 3879POPC   PO447066   7.952  28.648   7.954 -0.1190 -0.0236 -0.0275
 3879POPC   GL147067   8.011  28.651   7.510 -0.1338 -0.2817  0.1094
 3879POPC   GL247068   8.231  28.658   7.297  0.2654 -0.1077  0.3705
 3879POPC   C1A47069   7.752  28.707   7.110 -0.2465 -0.2517  0.1154
 3879POPC   D2A47070   7.506  28.804   6.745  0.1145  0.2784  0.1989
 3879POPC   C3A47071   7.388  28.876   6.352  0.1420  0.1487 -0.0654
 3879POPC   C4A47072   7.298  28.769   5.952 -0.3518  0.0988 -0.0382
 3879POPC   C1B47073   8.217  28.303   7.023  0.1149  0.0160 -0.0401
 3879POPC   C2B47074   8.427  28.311   6.620  0.1115  0.1894  0.0636
 3879POPC   C3B47075   8.631  28.261   6.279  0.0419  0.2064  0.3852
 3879POPC   C4B47076   8.533  27.955   5.900  0.1340 -0.0440 -0.1456
 3880POPC   NC347077  29.148   9.265   8.279  0.1806 -0.1473  0.1256
 3880POPC   PO447078  29.444   9.313   8.019  0.1103  0.0613  0.2516
 3880POPC   GL147079  29.149   9.340   7.842 -0.1713  0.2852  0.0463
 3880POPC   GL247080  28.985   9.141   7.828  0.4788  0.0456  0.1177
 3880POPC   C1A47081  29.093   9.589   7.471 -0.3632  0.0915 -0.1949
 3880POPC   D2A47082  29.045   9.643   6.965 -0.1358 -0.0879  0.0499
 3880POPC   C3A47083  28.690   9.353   6.870  0.0671 -0.1272 -0.0106
 3880POPC   C4A47084  28.482   9.170   6.537 -0.0465 -0.1797  0.2771
 3880POPC   C1B47085  29.192   9.084   7.390 -0.1081 -0.0347 -0.2293
 3880POPC   C2B47086  29.040   9.054   6.978  0.2265  0.0225 -0.0193
 3880POPC   C3B47087  29.019   9.098   6.537  0.0184  0.0749  0.0558
 3880POPC   C4B47088  28.918   8.905   6.105  0.3819  0.1509 -0.2525
 3881POPC   NC347089  21.375   0.740   7.917 -0.1804  0.1257 -0.0264
 3881POPC   PO447090  21.729   0.908   7.754  0.3286  0.0379  0.0644
 3881POPC   GL147091  21.533   0.957   7.393  0.1178 -0.0226  0.6814
 3881POPC   GL247092  21.298   0.713   7.407 -0.0543  0.1636 -0.0841
 3881POPC   C1A47093  21.717   0.954   6.943  0.1249 -0.1592  0.2067
 3881POPC   D2A47094  21.860   0.743   6.607 -0.0687  0.2273 -0.0414
 3881POPC   C3A47095  21.706   0.703   6.137  0.1389 -0.0628  0.1163
 3881POPC   C4A47096  21.623   0.586   5.677  0.1000  0.1718  0.1698
 3881POPC   C1B47097  21.261   0.722   6.978 -0.1063  0.3062  0.1626
 3881POPC   C2B47098  21.365   0.765   6.527 -0.0510 -0.0482  0.3127
 3881POPC   C3B47099  21.205   0.719   6.090  0.2013  0.0344 -0.0469
 3881POPC   C4B47100  21.117   0.725   5.633 -0.1890 -0.0803 -0.2296
 3882POPC   NC347101  26.792  18.316   7.296 -0.0807 -0.2618  0.2611
 3882POPC   PO447102  27.138  18.521   7.244  0.2458 -0.0259 -0.4712
 3882POPC   GL147103  26.927  18.799   7.056  0.1943 -0.2696 -0.2693
 3882POPC   GL247104  27.009  18.692   6.748 -0.3167  0.0741 -0.0020
 3882POPC   C1A47105  27.043  19.243   6.941  0.1040  0.1960  0.0199
 3882POPC   D2A47106  27.058  19.577   6.640  0.2098  0.1007  0.4111
 3882POPC   C3A47107  26.824  19.483   6.241  0.1216  0.0035 -0.1414
 3882POPC   C4A47108  26.450  19.223   6.081 -0.4679 -0.5120 -0.0048
 3882POPC   C1B47109  26.957  18.970   6.336 -0.1174  0.0259 -0.0171
 3882POPC   C2B47110  27.065  19.065   5.932  0.0425 -0.0528  0.2284
 3882POPC   C3B47111  26.916  18.799   5.516 -0.1359  0.0095  0.1452
 3882POPC   C4B47112  26.944  18.719   5.062  0.1053  0.3450  0.2623
 3883POPC   NC347113  31.449  16.410   7.662 -0.1831 -0.3713 -0.1798
 3883POPC   PO447114  31.174  16.494   7.928 -0.0593 -0.0262 -0.1626
 3883POPC   GL147115  30.927  16.446   7.710  0.1055 -0.0090  0.1877
 3883POPC   GL247116  30.948  16.146   7.667 -0.1636 -0.2215 -0.4773
 3883POPC   C1A47117  31.062  16.483   7.280 -0.0052  0.0204  0.0866
 3883POPC   D2A47118  31.114  16.876   7.033  0.0599 -0.1863  0.0318
 3883POPC   C3A47119  31.262  16.786   6.595  0.3897  0.1042  0.0923
 3883POPC   C4A47120  31.515  16.508   6.273 -0.0132  0.0778  0.0363
 3883POPC   C1B47121  31.132  15.970   7.266  0.0818 -0.0670  0.3525
 3883POPC   C2B47122  31.186  15.775   6.865  0.2458 -0.0904 -0.0448
 3883POPC   C3B47123  31.012  15.559   6.417 -0.1997 -0.2325  0.2496
 3883POPC   C4B47124  31.017  15.594   5.972 -0.1641  0.1823 -0.1533
 3884POPC   NC347125   1.716   1.512   7.896 -0.2716 -0.1306  0.2610
 3884POPC   PO447126   1.532   1.234   7.746  0.1721 -0.1507 -0.2478
 3884POPC   GL147127   1.547   1.517   7.451  0.0133 -0.3509  0.2614
 3884POPC   GL247128   1.791   1.494   7.305 -0.1624  0.2753 -0.1008
 3884POPC   C1A47129   1.318   1.709   7.061  0.0814  0.0083  0.1496
 3884POPC   D2A47130   1.159   1.748   6.648 -0.0305 -0.1919  0.2223
 3884POPC   C3A47131   1.395   1.697   6.182 -0.2023 -0.2128  0.3909
 3884POPC   C4A47132   1.639   1.959   5.891  0.2985  0.3019 -0.1583
 3884POPC   C1B47133   1.769   1.895   7.106  0.1224 -0.2744 -0.0464
 3884POPC   C2B47134   1.689   2.228   6.822 -0.0019 -0.1517  0.2130
 3884POPC   C3B47135   1.562   2.612   6.603 -0.0218 -0.0954 -0.0314
 3884POPC   C4B47136   1.490   2.906   6.267  0.0933  0.0362  0.1542
 3885POPC   NC347137   9.572  31.611   7.835 -0.4164  0.0347  0.1802
 3885POPC   PO447138   9.851  31.298   7.818  0.2200  0.1675  0.0306
 3885POPC   GL147139   9.728  31.222   7.533 -0.1313  0.0187  0.2501
 3885POPC   GL247140   9.809  31.538   7.394  0.0943  0.0373 -0.1566
 3885POPC   C1A47141   9.733  31.107   7.076 -0.0986 -0.0371  0.0418
 3885POPC   D2A47142   9.798  31.306   6.672 -0.4344  0.0401  0.1629
 3885POPC   C3A47143   9.740  31.752   6.554 -0.1456 -0.2838  0.0289
 3885POPC   C4A47144   9.746  32.216   6.610  0.2595  0.2838  0.0265
 3885POPC   C1B47145   9.954  31.727   7.027 -0.1756  0.3212 -0.0941
 3885POPC   C2B47146  10.148  32.102   6.933  0.1326  0.5731 -0.2466
 3885POPC   C3B47147  10.335  32.363   6.595  0.1520 -0.2498  0.0531
 3885POPC   C4B47148  10.582  32.315   6.157  0.0795 -0.1147  0.2862
 3886POPC   NC347149  30.774  12.440   7.772 -0.1819 -0.1486  0.1542
 3886POPC   PO447150  30.938  12.468   8.139  0.4706  0.2450 -0.1132
 3886POPC   GL147151  31.212  12.663   7.784  0.3152  0.2404 -0.3289
 3886POPC   GL247152  30.963  12.829   7.568 -0.2290  0.2975  0.2002
 3886POPC   C1A47153  31.298  12.526   7.301 -0.0310 -0.2160  0.2421
 3886POPC   D2A47154  31.504  12.468   6.906  0.3588 -0.1506  0.3039
 3886POPC   C3A47155  31.803  12.757   6.717 -0.2452  0.0043 -0.0824
 3886POPC   C4A47156  32.047  13.132   6.802 -0.0310  0.0535  0.2750
 3886POPC   C1B47157  30.732  12.600   7.263  0.0339  0.0962 -0.3776
 3886POPC   C2B47158  30.606  12.739   6.863  0.1180 -0.1798  0.0724
 3886POPC   C3B47159  30.739  12.885   6.441  0.0012  0.2814  0.1078
 3886POPC   C4B47160  30.917  13.004   6.019  0.0064  0.1129  0.1281
 3887POPC   NC347161  21.180  31.069   7.904 -0.0560 -0.0500 -0.0397
 3887POPC   PO447162  21.100  30.648   7.839  0.2179 -0.3598  0.1649
 3887POPC   GL147163  21.229  30.497   7.461  0.3234  0.0088 -0.1882
 3887POPC   GL247164  21.064  30.539   7.226 -0.0673  0.0263 -0.1125
 3887POPC   C1A47165  21.570  30.483   7.152 -0.1774 -0.0083 -0.3810
 3887POPC   D2A47166  21.615  30.583   6.733  0.0663 -0.0960 -0.1979
 3887POPC   C3A47167  21.605  31.034   6.591 -0.1662  0.1720  0.3220
 3887POPC   C4A47168  21.250  31.261   6.427  0.1663 -0.0442  0.1331
 3887POPC   C1B47169  20.700  30.780   6.941 -0.3331  0.0470 -0.5981
 3887POPC   C2B47170  20.697  30.606   6.492  0.1286  0.1418  0.3379
 3887POPC   C3B47171  20.763  30.517   6.028  0.4386  0.2303 -0.1091
 3887POPC   C4B47172  20.822  30.634   5.601  0.1280  0.1184  0.0509
 3888POPC   NC347173   1.656  27.507   7.797  0.2544 -0.0370  0.2107
 3888POPC   PO447174   1.505  27.142   7.844  0.0455 -0.0171 -0.0593
 3888POPC   GL147175   1.881  27.176   7.578  0.1662 -0.2787 -0.4684
 3888POPC   GL247176   2.023  26.914   7.584  0.1054 -0.1941  0.2370
 3888POPC   C1A47177   1.648  27.325   7.217 -0.0620  0.0099 -0.2032
 3888POPC   D2A47178   1.338  27.201   6.878  0.2416  0.1874  0.1147
 3888POPC   C3A47179   1.329  27.168   6.432 -0.1449 -0.0007  0.1364
 3888POPC   C4A47180   1.417  26.880   6.030  0.4195 -0.4380 -0.2870
 3888POPC   C1B47181   2.079  26.885   7.126 -0.0343 -0.0251 -0.2386
 3888POPC   C2B47182   1.979  27.205   6.751 -0.1406 -0.4749 -0.1500
 3888POPC   C3B47183   2.166  27.473   6.404 -0.1080  0.0893 -0.1435
 3888POPC   C4B47184   2.067  27.720   6.019  0.0533  0.0116 -0.2569
 3889POPC   NC347185   2.868   5.573   8.719 -0.0964 -0.3298  0.0424
 3889POPC   PO447186   2.786   5.434   8.322  0.2243  0.2201 -0.0942
 3889POPC   GL147187   2.492   5.355   8.064  0.0783  0.0409  0.0203
 3889POPC   GL247188   2.576   5.324   7.775  0.1006 -0.1820  0.2747
 3889POPC   C1A47189   2.216   4.951   7.949  0.0854 -0.1096 -0.2747
 3889POPC   D2A47190   1.778   4.728   8.118  0.0692 -0.1858  0.2496
 3889POPC   C3A47191   1.671   4.282   8.012  0.1426 -0.2800 -0.5852
 3889POPC   C4A47192   1.409   3.865   8.016  0.1767 -0.0496 -0.1782
 3889POPC   C1B47193   2.605   5.220   7.276  0.1921  0.0073  0.0312
 3889POPC   C2B47194   2.784   5.011   6.925 -0.3311  0.1108  0.0374
 3889POPC   C3B47195   2.844   4.932   6.507 -0.0059  0.0551  0.1961
 3889POPC   C4B47196   2.872   4.748   6.046 -0.1527 -0.0100 -0.4666
 3890POPC   NC347197  25.956  15.908   8.080  0.0843  0.0581  0.0346
 3890POPC   PO447198  25.738  16.208   8.169 -0.3517 -0.0396  0.0382
 3890POPC   GL147199  25.555  15.927   7.861 -0.0306 -0.2579 -0.0564
 3890POPC   GL247200  25.302  15.988   7.993 -0.1686 -0.1059  0.1633
 3890POPC   C1A47201  25.522  15.796   7.442  0.0774  0.3592  0.0689
 3890POPC   D2A47202  25.724  15.789   6.996  0.4153  0.2055  0.1408
 3890POPC   C3A47203  25.680  15.940   6.563  0.2596  0.2101  0.0727
 3890POPC   C4A47204  25.531  16.068   6.105 -0.0421  0.3287  0.1730
 3890POPC   C1B47205  25.250  16.235   7.599  0.0969 -0.0840  0.0525
 3890POPC   C2B47206  25.012  16.330   7.179 -0.2304  0.1584  0.0556
 3890POPC   C3B47207  24.876  16.541   6.822  0.0046  0.0127  0.0507
 3890POPC   C4B47208  24.664  16.922   6.629 -0.0684 -0.1371 -0.2679
 3891POPC   NC347209  31.305   0.564   7.736 -0.1131  0.1847 -0.0800
 3891POPC   PO447210  31.170   0.799   7.467  0.0455  0.0909 -0.1355
 3891POPC   GL147211  31.161   0.683   7.097 -0.0212 -0.1838  0.0034
 3891POPC   GL247212  31.405   0.778   7.044 -0.0053 -0.2259  0.1878
 3891POPC   C1A47213  31.112   0.345   6.775  0.0096  0.2367  0.3714
 3891POPC   D2A47214  31.275   0.059   6.475  0.4402 -0.0919 -0.0532
 3891POPC   C3A47215  31.670  -0.103   6.240 -0.2458 -0.0225  0.3570
 3891POPC   C4A47216  32.115   0.006   6.067  0.3301 -0.3346 -0.1231
 3891POPC   C1B47217  31.232   0.909   6.605 -0.1913  0.2883 -0.2704
 3891POPC   C2B47218  31.269   1.046   6.173  0.3641 -0.0392  0.2468
 3891POPC   C3B47219  30.959   1.113   5.905 -0.0993  0.0710  0.2579
 3891POPC   C4B47220  30.594   1.312   5.757  0.2356  0.0453  0.1566
 3892POPC   NC347221  31.070  13.419   8.159 -0.0771  0.2906  0.3548
 3892POPC   PO447222  30.904  13.751   8.287 -0.0112 -0.0606  0.1583
 3892POPC   GL147223  30.809  13.652   7.917  0.1861 -0.1943  0.1086
 3892POPC   GL247224  30.785  13.918   7.822  0.2538 -0.0219 -0.2722
 3892POPC   C1A47225  30.692  13.269   7.639 -0.0238 -0.0955 -0.2249
 3892POPC   D2A47226  30.495  12.889   7.607  0.0371 -0.0781  0.0448
 3892POPC   C3A47227  30.312  12.899   7.200  0.1517  0.0485 -0.0015
 3892POPC   C4A47228  30.058  13.227   6.972 -0.1048 -0.1962  0.1911
 3892POPC   C1B47229  30.688  13.681   7.431  0.2580 -0.1369 -0.0320
 3892POPC   C2B47230  30.559  13.385   7.125  0.1387 -0.5037  0.0508
 3892POPC   C3B47231  30.516  13.335   6.626 -0.0528 -0.0508 -0.2794
 3892POPC   C4B47232  30.617  13.484   6.208 -0.1633 -0.1166  0.3553
 3893POPC   NC347233  20.431  12.680   8.241 -0.2684 -0.4639  0.3817
 3893POPC   PO447234  20.648  12.462   7.990 -0.0842  0.2602  0.0631
 3893POPC   GL147235  20.770  12.596   7.626 -0.2290 -0.0520  0.2666
 3893POPC   GL247236  20.664  12.814   7.519  0.0799 -0.1330  0.0850
 3893POPC   C1A47237  20.508  12.270   7.406 -0.0492 -0.1863  0.0331
 3893POPC   D2A47238  20.406  11.923   7.097 -0.0696  0.0112 -0.0921
 3893POPC   C3A47239  20.432  11.666   6.788 -0.2590  0.1292  0.0460
 3893POPC   C4A47240  20.424  11.498   6.407 -0.2282 -0.0289 -0.8200
 3893POPC   C1B47241  20.624  12.630   7.095  0.1787  0.1639 -0.5281
 3893POPC   C2B47242  20.709  12.559   6.675 -0.0677  0.1581  0.0168
 3893POPC   C3B47243  20.388  12.520   6.355 -0.1675 -0.0460 -0.1049
 3893POPC   C4B47244  20.076  12.372   6.081 -0.0646  0.1199  0.1882
 3894POPC   NC347245  19.705  24.029   8.765 -0.0033  0.4400  0.0245
 3894POPC   PO447246  19.402  23.804   8.889  0.0245  0.0470 -0.1615
 3894POPC   GL147247  19.521  23.749   8.489 -0.1668  0.0554  0.0629
 3894POPC   GL247248  19.406  23.774   8.186 -0.0980 -0.1952 -0.1928
 3894POPC   C1A47249  19.883  23.492   8.275  0.0729  0.2534 -0.0774
 3894POPC   D2A47250  20.013  23.186   7.972 -0.1505  0.2059  0.1369
 3894POPC   C3A47251  20.203  23.240   7.570 -0.2379  0.1231  0.0137
 3894POPC   C4A47252  20.122  23.497   7.217 -0.1065 -0.1837  0.0258
 3894POPC   C1B47253  19.244  24.188   8.397 -0.1626  0.0844  0.0134
 3894POPC   C2B47254  19.259  24.605   8.535 -0.2278 -0.0532 -0.1287
 3894POPC   C3B47255  19.569  24.954   8.293  0.0372 -0.1206  0.2487
 3894POPC   C4B47256  19.553  25.047   7.871 -0.0185 -0.0601  0.1824
 3895POPC   NC347257  23.074  20.411   7.361  0.3845  0.1866  0.1156
 3895POPC   PO447258  23.419  20.511   7.429 -0.0621 -0.2260  0.1913
 3895POPC   GL147259  23.772  20.574   7.234 -0.0873 -0.2021  0.2220
 3895POPC   GL247260  23.870  20.309   7.090  0.1156 -0.1896  0.0964
 3895POPC   C1A47261  24.128  20.782   7.006 -0.0091 -0.2068  0.0882
 3895POPC   D2A47262  24.348  20.911   6.565 -0.0465 -0.0686  0.1771
 3895POPC   C3A47263  24.391  21.328   6.361  0.0483 -0.1093  0.0938
 3895POPC   C4A47264  24.070  21.624   6.150 -0.1678  0.1321 -0.0176
 3895POPC   C1B47265  23.830  20.076   6.704  0.3122 -0.0848 -0.0154
 3895POPC   C2B47266  23.785  19.990   6.248 -0.0881 -0.0458 -0.1413
 3895POPC   C3B47267  23.672  19.909   5.822  0.1615  0.0248 -0.1983
 3895POPC   C4B47268  23.717  20.172   5.453 -0.3683  0.0614  0.0587
 3896POPC   NC347269  11.395  10.731   7.365 -0.0421 -0.2982 -0.2910
 3896POPC   PO447270  11.493  10.957   7.689 -0.2001  0.1169 -0.2416
 3896POPC   GL147271  11.129  11.097   7.811  0.1425 -0.0555 -0.0036
 3896POPC   GL247272  11.178  11.089   8.110  0.2178  0.2968 -0.1375
 3896POPC   C1A47273  10.880  11.353   7.498 -0.2095 -0.0658  0.5215
 3896POPC   D2A47274  10.690  11.667   7.151 -0.0700 -0.0255  0.2338
 3896POPC   C3A47275  10.943  11.519   6.804  0.0893 -0.1739  0.1628
 3896POPC   C4A47276  11.215  11.303   6.468 -0.2841 -0.3006 -0.1627
 3896POPC   C1B47277  10.881  11.522   8.018 -0.0325 -0.1536  0.4524
 3896POPC   C2B47278  10.760  11.826   7.664 -0.0621 -0.0645 -0.3116
 3896POPC   C3B47279  10.386  11.933   7.544  0.2909 -0.1227  0.1484
 3896POPC   C4B47280  10.181  12.257   7.383  0.3602  0.0169 -0.0895
 3897POPC   NC347281  21.885   2.458   7.696  0.1748 -0.0965 -0.2970
 3897POPC   PO447282  21.511   2.604   7.594  0.0066 -0.0656  0.2341
 3897POPC   GL147283  21.730   2.498   7.230  0.0196 -0.3125  0.1157
 3897POPC   GL247284  21.500   2.621   7.055 -0.1464  0.4364 -0.1043
 3897POPC   C1A47285  21.995   2.443   6.837 -0.0702 -0.1347  0.0646
 3897POPC   D2A47286  21.963   2.473   6.372  0.4037 -0.0903  0.2519
 3897POPC   C3A47287  21.967   2.176   6.048  0.0830 -0.0903 -0.0314
 3897POPC   C4A47288  21.878   2.048   5.632  0.0331  0.0042 -0.0563
 3897POPC   C1B47289  21.540   2.573   6.599 -0.2506 -0.3424 -0.1152
 3897POPC   C2B47290  21.615   2.768   6.215  0.0508 -0.1533  0.0643
 3897POPC   C3B47291  21.604   3.135   5.907 -0.0558  0.0019 -0.1219
 3897POPC   C4B47292  21.727   3.528   5.751  0.0992 -0.1479 -0.0387
 3898POPC   NC347293   4.382  10.980   7.676 -0.1594 -0.0550 -0.0895
 3898POPC   PO447294   4.342  11.327   7.863  0.0544 -0.0928 -0.2765
 3898POPC   GL147295   4.118  11.583   7.727 -0.3054  0.1061 -0.1764
 3898POPC   GL247296   4.171  11.683   7.436  0.2221 -0.0631  0.2221
 3898POPC   C1A47297   3.942  11.989   7.748 -0.5911 -0.0935 -0.1346
 3898POPC   D2A47298   4.002  12.312   7.467  0.1481 -0.1487  0.0984
 3898POPC   C3A47299   4.118  12.354   6.994  0.2047 -0.2943 -0.0375
 3898POPC   C4A47300   4.196  12.741   6.874 -0.0366 -0.1396  0.3535
 3898POPC   C1B47301   4.111  11.757   7.030 -0.2164  0.0934  0.3067
 3898POPC   C2B47302   4.196  11.622   6.600 -0.1289  0.0858 -0.0603
 3898POPC   C3B47303   4.018  11.560   6.151 -0.0212  0.0842  0.0299
 3898POPC   C4B47304   3.888  11.471   5.697  0.2155 -0.0584 -0.2154
 3899POPC   NC347305  12.662  27.144   8.004 -0.2560  0.2902 -0.2184
 3899POPC   PO447306  12.927  27.404   7.850 -0.2110  0.1286 -0.1843
 3899POPC   GL147307  12.885  27.548   7.494 -0.0636  0.3348 -0.2054
 3899POPC   GL247308  12.752  27.377   7.198 -0.0944  0.3092  0.2001
 3899POPC   C1A47309  12.588  27.791   7.246  0.0995  0.2944  0.2823
 3899POPC   D2A47310  12.413  27.927   6.888 -0.2627  0.1140 -0.0834
 3899POPC   C3A47311  12.221  28.190   6.608  0.1826  0.0425 -0.1725
 3899POPC   C4A47312  11.909  28.342   6.333  0.0002 -0.0760 -0.0887
 3899POPC   C1B47313  12.645  26.938   7.028  0.0059 -0.1236 -0.1350
 3899POPC   C2B47314  12.661  26.727   6.557 -0.1555 -0.1910 -0.2327
 3899POPC   C3B47315  12.576  26.789   6.085  0.2445 -0.0733 -0.1947
 3899POPC   C4B47316  12.919  26.731   5.767 -0.1450  0.3581 -0.0257
 3900POPC   NC347317   5.053  14.829   8.575  0.1295  0.2144  0.2123
 3900POPC   PO447318   4.893  14.765   8.215 -0.2932  0.1253 -0.1517
 3900POPC   GL147319   4.678  14.841   7.772  0.1109  0.0655 -0.2437
 3900POPC   GL247320   4.512  14.550   7.766  0.2639  0.1627  0.0425
 3900POPC   C1A47321   4.374  15.035   7.493 -0.1426  0.1415 -0.0605
 3900POPC   D2A47322   4.110  15.381   7.487  0.0216 -0.2063  0.2488
 3900POPC   C3A47323   3.992  15.599   7.095 -0.2217  0.1411  0.1197
 3900POPC   C4A47324   4.128  15.779   6.674  0.2639  0.1616 -0.0055
 3900POPC   C1B47325   4.774  14.588   7.409  0.0739 -0.1219  0.2844
 3900POPC   C2B47326   4.908  14.398   6.979 -0.0672  0.1364 -0.0340
 3900POPC   C3B47327   4.946  14.589   6.589  0.4898  0.0934  0.1756
 3900POPC   C4B47328   4.779  14.689   6.223  0.0509 -0.0309 -0.1298
 3901POPC   NC347329  30.228  25.373   7.586 -0.0838  0.0737 -0.1527
 3901POPC   PO447330  29.834  25.419   7.709 -0.1557  0.0083 -0.1258
 3901POPC   GL147331  29.727  25.372   7.375 -0.0029 -0.0093 -0.0643
 3901POPC   GL247332  29.462  25.320   7.227 -0.2755  0.2994  0.2133
 3901POPC   C1A47333  29.883  25.377   6.954  0.2624 -0.1873 -0.2237
 3901POPC   D2A47334  29.898  25.459   6.471 -0.4250  0.0353  0.0136
 3901POPC   C3A47335  29.821  25.647   6.042 -0.0272 -0.0470 -0.2178
 3901POPC   C4A47336  29.704  25.996   5.828 -0.3633 -0.2419 -0.0218
 3901POPC   C1B47337  29.426  25.423   6.754 -0.1230 -0.0917 -0.0336
 3901POPC   C2B47338  29.432  25.614   6.324  0.2155 -0.0153  0.0330
 3901POPC   C3B47339  29.184  25.585   5.954 -0.2471  0.3205  0.1222
 3901POPC   C4B47340  28.756  25.798   5.816  0.0128  0.2916  0.1301
 3902POPC   NC347341  27.494  23.718   7.837  0.1466 -0.1424  0.1483
 3902POPC   PO447342  27.375  24.109   7.759 -0.0720 -0.0018  0.0749
 3902POPC   GL147343  27.470  24.032   7.387  0.2425 -0.3511  0.1005
 3902POPC   GL247344  27.504  24.264   7.153 -0.0160  0.1615  0.0281
 3902POPC   C1A47345  27.308  23.858   7.003 -0.2775  0.0557 -0.0137
 3902POPC   D2A47346  27.014  23.650   6.786 -0.0191 -0.0416  0.1576
 3902POPC   C3A47347  27.083  23.425   6.351 -0.0963  0.1776 -0.0395
 3902POPC   C4A47348  27.093  23.524   5.922  0.0839  0.2962 -0.1425
 3902POPC   C1B47349  27.391  24.206   6.708 -0.2210 -0.0727 -0.0350
 3902POPC   C2B47350  27.575  23.954   6.354  0.0198 -0.0821 -0.0832
 3902POPC   C3B47351  27.610  23.649   5.997  0.0915 -0.0972 -0.3980
 3902POPC   C4B47352  27.737  23.243   5.844 -0.2746  0.3810  0.0890
 3903POPC   NC347353   4.943  19.223   7.276 -0.0749 -0.0123  0.0570
 3903POPC   PO447354   4.673  19.024   7.475  0.0504 -0.3798  0.0489
 3903POPC   GL147355   4.583  19.040   7.111  0.0117  0.1953  0.4758
 3903POPC   GL247356   4.370  19.178   7.073  0.0533  0.0398  0.1133
 3903POPC   C1A47357   4.624  18.849   6.742  0.2492  0.1032  0.1440
 3903POPC   D2A47358   4.383  18.509   6.476  0.0348  0.0229  0.0725
 3903POPC   C3A47359   4.237  18.462   6.065  0.1839  0.0652  0.1358
 3903POPC   C4A47360   4.031  18.256   5.676  0.1674 -0.2154 -0.1508
 3903POPC   C1B47361   4.354  19.378   6.657  0.2745  0.0520  0.1249
 3903POPC   C2B47362   4.632  19.397   6.280  0.0787 -0.2061  0.0277
 3903POPC   C3B47363   4.523  19.220   5.839  0.3881  0.1616 -0.1191
 3903POPC   C4B47364   4.264  19.304   5.465  0.2435  0.2435 -0.0666
 3904POPC   NC347365  31.022  10.452   8.263  0.1669  0.0312 -0.0272
 3904POPC   PO447366  31.260  10.427   7.971  0.0891  0.1300  0.1069
 3904POPC   GL147367  31.467  10.480   7.637 -0.0841  0.1100 -0.2271
 3904POPC   GL247368  31.333  10.598   7.391 -0.0795 -0.4795 -0.0670
 3904POPC   C1A47369  31.733  10.341   7.273  0.2229  0.0427 -0.1694
 3904POPC   D2A47370  32.162  10.235   7.074  0.2134 -0.1693 -0.0018
 3904POPC   C3A47371  32.262  10.228   6.602 -0.1647  0.2391  0.0329
 3904POPC   C4A47372  32.512  10.341   6.203  0.3409  0.0102  0.2135
 3904POPC   C1B47373  31.437  10.561   6.935 -0.0596 -0.0387 -0.2973
 3904POPC   C2B47374  31.426  10.463   6.447  0.1645  0.0065  0.0690
 3904POPC   C3B47375  31.438  10.186   6.038  0.0062  0.1506  0.1590
 3904POPC   C4B47376  31.523  10.008   5.614  0.0187  0.1418 -0.1773
 3905POPC   NC347377  24.793  21.964   8.364 -0.0019  0.0925 -0.0508
 3905POPC   PO447378  24.716  22.302   8.143  0.0592  0.0514 -0.1831
 3905POPC   GL147379  24.885  22.211   7.808 -0.0228  0.1520  0.0891
 3905POPC   GL247380  25.027  22.015   7.822  0.0951  0.1041 -0.2115
 3905POPC   C1A47381  25.189  22.382   7.480  0.0386 -0.1586  0.2098
 3905POPC   D2A47382  25.458  22.613   7.165 -0.0403 -0.2758 -0.0364
 3905POPC   C3A47383  25.321  22.645   6.686 -0.2114 -0.0926 -0.2100
 3905POPC   C4A47384  25.379  22.510   6.252 -0.2912  0.1788 -0.1025
 3905POPC   C1B47385  25.426  22.172   7.916  0.0124 -0.0276  0.0250
 3905POPC   C2B47386  25.819  22.340   8.023  0.1475 -0.0249  0.4324
 3905POPC   C3B47387  26.305  22.285   8.082  0.1682  0.0972 -0.2114
 3905POPC   C4B47388  26.709  22.070   7.965 -0.0965  0.0156  0.1515
 3906POPC   NC347389   9.786   2.982   7.759 -0.2521 -0.1792  0.0300
 3906POPC   PO447390   9.978   2.687   7.958  0.0311 -0.4124 -0.0455
 3906POPC   GL147391   9.856   2.497   7.696  0.1349 -0.4148  0.3684
 3906POPC   GL247392   9.656   2.304   7.787  0.3436 -0.0311  0.0821
 3906POPC   C1A47393  10.050   2.139   7.432  0.1387  0.0447  0.0376
 3906POPC   D2A47394  10.316   1.845   7.592  0.2808 -0.0564  0.1613
 3906POPC   C3A47395  10.363   1.458   7.339  0.1411  0.1064 -0.2923
 3906POPC   C4A47396  10.506   1.065   7.548  0.0476  0.2389 -0.0460
 3906POPC   C1B47397   9.592   2.213   7.292  0.1890 -0.1740  0.2208
 3906POPC   C2B47398   9.671   2.064   6.912  0.1227  0.0102 -0.4092
 3906POPC   C3B47399   9.953   1.994   6.599 -0.0948  0.4625  0.0352
 3906POPC   C4B47400  10.191   2.012   6.199  0.0872 -0.0720  0.1846
 3907POPC   NC347401  18.053  14.727   7.958 -0.0922  0.1658  0.0678
 3907POPC   PO447402  17.968  15.139   7.906 -0.1134  0.2203 -0.2668
 3907POPC   GL147403  17.934  15.442   7.705 -0.1131  0.1153 -0.1072
 3907POPC   GL247404  17.804  15.318   7.474 -0.1344  0.1770 -0.2799
 3907POPC   C1A47405  18.254  15.475   7.421 -0.0568  0.1970  0.1626
 3907POPC   D2A47406  18.153  15.133   7.081 -0.1046 -0.1198  0.3483
 3907POPC   C3A47407  18.086  15.081   6.645  0.0888 -0.2780  0.2716
 3907POPC   C4A47408  18.172  15.077   6.162 -0.1021 -0.1312 -0.2373
 3907POPC   C1B47409  17.713  14.910   7.277  0.0522  0.2893 -0.3822
 3907POPC   C2B47410  17.849  14.729   6.849 -0.2264 -0.0243  0.2043
 3907POPC   C3B47411  17.940  14.683   6.371  0.1673  0.0699 -0.0126
 3907POPC   C4B47412  18.142  14.623   5.993  0.1730 -0.1525  0.2191
 3908POPC   NC347413  31.184   1.228   7.699  0.4083 -0.1058 -0.0290
 3908POPC   PO447414  30.822   1.136   7.582  0.0199  0.0549 -0.2906
 3908POPC   GL147415  30.713   1.085   7.212  0.0089 -0.2526  0.1512
 3908POPC   GL247416  30.525   1.364   7.226 -0.0836 -0.0527  0.1224
 3908POPC   C1A47417  30.795   0.766   6.865  0.0740  0.2989  0.4611
 3908POPC   D2A47418  30.756   0.976   6.495  0.0017 -0.1019  0.1705
 3908POPC   C3A47419  30.624   0.797   6.061  0.1087  0.0393 -0.0201
 3908POPC   C4A47420  30.785   0.669   5.634 -0.0422 -0.2684  0.0910
 3908POPC   C1B47421  30.592   1.357   6.768  0.0489 -0.1185  0.0838
 3908POPC   C2B47422  30.409   1.351   6.366  0.1501  0.0048 -0.1153
 3908POPC   C3B47423  30.580   1.730   6.104 -0.0059  0.2765  0.0896
 3908POPC   C4B47424  30.392   1.944   5.723  0.3592  0.2936 -0.3186
 3909POPC   NC347425   6.744  12.500   7.034 -0.1370 -0.1399  0.0877
 3909POPC   PO447426   7.014  12.430   7.339  0.0059  0.1659 -0.1788
 3909POPC   GL147427   7.237  12.558   7.146  0.0969 -0.0104 -0.0386
 3909POPC   GL247428   7.284  12.826   7.129  0.0768  0.0249  0.1025
 3909POPC   C1A47429   7.154  12.557   6.709  0.1109 -0.1389 -0.2049
 3909POPC   D2A47430   7.475  12.534   6.305 -0.0504 -0.1376 -0.1387
 3909POPC   C3A47431   7.298  12.447   5.876 -0.1772 -0.1941 -0.0841
 3909POPC   C4A47432   7.449  12.628   5.472 -0.0856 -0.1158 -0.1847
 3909POPC   C1B47433   7.518  12.965   6.722  0.2143  0.1487  0.1878
 3909POPC   C2B47434   7.860  12.847   6.444 -0.0368  0.0071 -0.0350
 3909POPC   C3B47435   8.175  12.869   6.157 -0.0856  0.0712  0.2269
 3909POPC   C4B47436   8.592  12.977   5.997  0.2424 -0.0903 -0.0543
 3910POPC   NC347437   9.369  14.080   7.945 -0.1454 -0.1358  0.0549
 3910POPC   PO447438   9.752  14.109   7.951  0.5233  0.3560  0.0477
 3910POPC   GL147439   9.696  14.020   7.567  0.0793 -0.1339 -0.1017
 3910POPC   GL247440   9.964  14.062   7.432  0.3240  0.1791  0.1878
 3910POPC   C1A47441   9.392  14.077   7.272  0.0158 -0.0163 -0.1489
 3910POPC   D2A47442   9.404  13.828   6.849  0.0623 -0.0856 -0.2781
 3910POPC   C3A47443   9.672  13.840   6.459  0.4058  0.0551  0.3265
 3910POPC   C4A47444   9.827  13.855   6.063  0.0153 -0.0449 -0.0215
 3910POPC   C1B47445   9.783  14.211   6.983 -0.2171 -0.1478  0.3378
 3910POPC   C2B47446  10.032  14.256   6.591  0.2280  0.0162  0.2655
 3910POPC   C3B47447  10.142  14.252   6.122  0.1679 -0.0652  0.0241
 3910POPC   C4B47448  10.191  13.984   5.758  0.2129 -0.0202 -0.2170
 3911POPC   NC347449  22.887  13.631   7.730 -0.0281 -0.0938 -0.1224
 3911POPC   PO447450  22.534  13.557   7.577  0.0034 -0.0049  0.0454
 3911POPC   GL147451  22.383  13.825   7.285  0.2503  0.2725  0.4469
 3911POPC   GL247452  22.292  13.638   7.129 -0.0365  0.3852 -0.0339
 3911POPC   C1A47453  22.736  13.864   6.957  0.3338  0.2070 -0.1421
 3911POPC   D2A47454  22.874  13.698   6.560  0.3473  0.0452 -0.1291
 3911POPC   C3A47455  22.909  13.579   6.111 -0.2060 -0.1376 -0.1369
 3911POPC   C4A47456  22.849  13.330   5.795  0.2588  0.0841  0.1869
 3911POPC   C1B47457  22.332  13.756   6.647  0.2997 -0.2353 -0.1093
 3911POPC   C2B47458  22.371  13.575   6.193  0.0101  0.0313 -0.1313
 3911POPC   C3B47459  22.305  13.313   5.835  0.1641  0.0537  0.0669
 3911POPC   C4B47460  22.453  13.061   5.523  0.0458  0.0106  0.0498
 3912POPC   NC347461  13.622  28.635   7.788  0.0808  0.0682 -0.1105
 3912POPC   PO447462  13.958  28.498   7.582 -0.1118 -0.2899  0.3218
 3912POPC   GL147463  14.064  28.553   7.208  0.2256  0.0267  0.0860
 3912POPC   GL247464  13.849  28.332   7.124  0.1410 -0.1099 -0.0865
 3912POPC   C1A47465  13.822  28.787   6.905  0.1530 -0.0536  0.1761
 3912POPC   D2A47466  13.679  28.939   6.517  0.0259  0.2073  0.0607
 3912POPC   C3A47467  13.822  28.690   6.161  0.3663  0.2628 -0.3685
 3912POPC   C4A47468  13.952  28.727   5.679  0.0040  0.0762 -0.2041
 3912POPC   C1B47469  13.829  28.312   6.647  0.0587  0.2424  0.0441
 3912POPC   C2B47470  13.613  28.083   6.301  0.0735  0.2106 -0.0362
 3912POPC   C3B47471  13.417  27.942   5.913 -0.0188 -0.1470 -0.0006
 3912POPC   C4B47472  13.067  27.790   5.606 -0.0048 -0.1412 -0.2009
 3913POPC   NC347473   3.744  25.467   7.741  0.2447  0.0521 -0.0015
 3913POPC   PO447474   3.719  25.107   7.968  0.3132  0.1700 -0.2378
 3913POPC   GL147475   3.768  25.037   7.617 -0.1645 -0.2014  0.1698
 3913POPC   GL247476   4.019  24.830   7.584 -0.3014  0.0316  0.0340
 3913POPC   C1A47477   3.959  25.272   7.242 -0.1075  0.2160 -0.1361
 3913POPC   D2A47478   4.160  25.615   6.979 -0.2906 -0.0152  0.0275
 3913POPC   C3A47479   4.296  25.773   6.593  0.0082 -0.3768 -0.1410
 3913POPC   C4A47480   4.373  25.894   6.180  0.0089 -0.2146 -0.2717
 3913POPC   C1B47481   3.904  24.781   7.123  0.1186 -0.2855 -0.1432
 3913POPC   C2B47482   3.832  24.587   6.718 -0.0027 -0.1651 -0.0248
 3913POPC   C3B47483   3.902  24.520   6.254  0.1627  0.2422 -0.2557
 3913POPC   C4B47484   4.065  24.205   5.911 -0.0967 -0.3392 -0.0329
 3914POPC   NC347485   0.251   0.046   7.459  0.0756 -0.1151  0.0294
 3914POPC   PO447486   0.640   0.172   7.542  0.2041  0.1135  0.0557
 3914POPC   GL147487   0.673  -0.089   7.273 -0.2052  0.0053 -0.2105
 3914POPC   GL247488   0.457  -0.148   7.068  0.0042 -0.0722 -0.2382
 3914POPC   C1A47489   0.905  -0.127   6.863  0.0180 -0.3498  0.0253
 3914POPC   D2A47490   0.981  -0.249   6.422 -0.3727  0.1133 -0.1836
 3914POPC   C3A47491   0.927  -0.668   6.309  0.0375 -0.0635  0.0484
 3914POPC   C4A47492   0.719  -1.001   6.441  0.0231 -0.1905 -0.1936
 3914POPC   C1B47493   0.385   0.265   6.861  0.0348  0.0572  0.0125
 3914POPC   C2B47494   0.227   0.384   6.443  0.1433 -0.2615 -0.1491
 3914POPC   C3B47495   0.367   0.587   6.041 -0.2898 -0.2294  0.0334
 3914POPC   C4B47496   0.780   0.482   5.930  0.0180 -0.1809  0.2905
 3915POPC   NC347497  20.615  28.006   8.570 -0.2071  0.2504 -0.0423
 3915POPC   PO447498  20.621  28.259   8.259 -0.1335  0.0803  0.1941
 3915POPC   GL147499  20.418  28.187   7.860  0.3454  0.2160  0.0450
 3915POPC   GL247500  20.626  28.124   7.642 -0.0229  0.0980  0.1187
 3915POPC   C1A47501  20.183  28.522   7.615 -0.1131  0.2529  0.1392
 3915POPC   D2A47502  20.044  28.928   7.494  0.3364  0.0446 -0.2133
 3915POPC   C3A47503  19.867  28.965   7.056 -0.1798  0.0249  0.1488
 3915POPC   C4A47504  19.696  28.985   6.651 -0.0303  0.1106  0.2168
 3915POPC   C1B47505  20.327  28.181   7.303 -0.2724 -0.1495 -0.1913
 3915POPC   C2B47506  20.153  28.545   7.078 -0.0218 -0.0014  0.2254
 3915POPC   C3B47507  20.081  28.704   6.686 -0.0723 -0.2845  0.1020
 3915POPC   C4B47508  19.897  28.683   6.264  0.2039  0.3661 -0.1998
 3916POPC   NC347509  30.560   9.172   7.651  0.0149 -0.4888 -0.2005
 3916POPC   PO447510  30.569   9.518   7.867  0.2701  0.0032 -0.1015
 3916POPC   GL147511  30.456   9.594   7.444  0.0631  0.3768 -0.0141
 3916POPC   GL247512  30.686   9.718   7.370  0.1497  0.4349  0.3695
 3916POPC   C1A47513  30.004   9.572   7.298 -0.2454  0.2537  0.1179
 3916POPC   D2A47514  29.784   9.821   6.956 -0.1869 -0.0478 -0.2247
 3916POPC   C3A47515  29.434   9.904   7.239 -0.2908 -0.0769 -0.0729
 3916POPC   C4A47516  28.963  10.054   7.238 -0.2230 -0.2144 -0.2922
 3916POPC   C1B47517  30.659   9.516   6.982 -0.1913 -0.0005 -0.0643
 3916POPC   C2B47518  30.482   9.381   6.591 -0.2094  0.0558  0.0856
 3916POPC   C3B47519  30.213   9.302   6.196 -0.2084 -0.1500 -0.0695
 3916POPC   C4B47520  30.360   9.353   5.827  0.1398 -0.1816 -0.2232
 3917POPC   NC347521  10.421  23.241   7.694 -0.1157  0.3082 -0.0692
 3917POPC   PO447522  10.723  23.466   7.587 -0.0411 -0.0054  0.1743
 3917POPC   GL147523  10.624  23.256   7.210 -0.0419  0.0185 -0.4690
 3917POPC   GL247524  10.598  22.919   7.351  0.0704  0.2802  0.1009
 3917POPC   C1A47525  10.883  23.027   6.939 -0.1042  0.0636  0.2483
 3917POPC   D2A47526  11.162  22.829   6.689 -0.1040  0.0040  0.0527
 3917POPC   C3A47527  10.910  22.973   6.411 -0.0898  0.1686 -0.1540
 3917POPC   C4A47528  10.483  23.062   6.324  0.1582 -0.1396  0.0070
 3917POPC   C1B47529  10.209  22.722   7.127 -0.1993 -0.4305  0.0407
 3917POPC   C2B47530   9.898  22.547   6.852  0.1014  0.0726  0.1028
 3917POPC   C3B47531   9.636  22.259   6.568 -0.0907  0.0474  0.2054
 3917POPC   C4B47532   9.419  22.044   6.241  0.0058 -0.0885 -0.0840
 3918POPC   NC347533  30.295   7.927   7.740 -0.2457 -0.2297  0.2655
 3918POPC   PO447534  30.301   7.584   7.568 -0.3139 -0.0111  0.1006
 3918POPC   GL147535  30.400   7.716   7.249 -0.0203 -0.0450  0.0128
 3918POPC   GL247536  30.628   7.970   7.335  0.0301  0.1451  0.3232
 3918POPC   C1A47537  30.258   7.756   6.806 -0.0648 -0.1963  0.3496
 3918POPC   D2A47538  30.153   8.203   6.571  0.1084 -0.0960 -0.0608
 3918POPC   C3A47539  30.102   8.233   6.152 -0.3562  0.0739  0.1540
 3918POPC   C4A47540  29.898   8.204   5.742 -0.3020  0.1779 -0.0827
 3918POPC   C1B47541  30.655   8.156   6.902 -0.1494  0.0531 -0.2377
 3918POPC   C2B47542  30.616   8.066   6.469 -0.0049  0.0509  0.0347
 3918POPC   C3B47543  30.788   7.973   6.014  0.1541 -0.1210  0.1636
 3918POPC   C4B47544  31.174   8.094   5.753 -0.1631  0.3748  0.0196
 3919POPC   NC347545   0.570  22.151   8.099 -0.0442  0.0336  0.0170
 3919POPC   PO447546   0.732  22.308   7.780 -0.1945  0.0086  0.0348
 3919POPC   GL147547   0.540  22.077   7.406  0.1271 -0.5081 -0.1035
 3919POPC   GL247548   0.838  22.097   7.307  0.2955  0.3427  0.1728
 3919POPC   C1A47549   0.474  21.710   7.185  0.2830  0.2060 -0.0621
 3919POPC   D2A47550   0.638  21.573   6.835 -0.0976  0.1237  0.1717
 3919POPC   C3A47551   0.478  21.412   6.434  0.1184 -0.0755 -0.4680
 3919POPC   C4A47552   0.528  21.082   6.120 -0.1026 -0.0522  0.1466
 3919POPC   C1B47553   0.687  22.109   6.877  0.0283 -0.1111  0.2555
 3919POPC   C2B47554   0.721  21.975   6.434  0.0102 -0.5292  0.1858
 3919POPC   C3B47555   0.557  21.980   5.980  0.0346  0.0730 -0.0063
 3919POPC   C4B47556   0.681  21.866   5.519 -0.1133 -0.1400 -0.0261
 3920POPC   NC347557  28.112  13.126   8.041 -0.0002  0.0170  0.0190
 3920POPC   PO447558  27.991  13.383   7.817  0.3034 -0.2727  0.0123
 3920POPC   GL147559  28.138  13.464   7.458  0.0413 -0.1581 -0.0784
 3920POPC   GL247560  28.040  13.235   7.321  0.1094  0.2251 -0.1101
 3920POPC   C1A47561  28.241  13.849   7.159  0.0753  0.2283 -0.3094
 3920POPC   D2A47562  28.400  14.070   6.859 -0.0683  0.1693  0.1005
 3920POPC   C3A47563  28.299  14.157   6.444 -0.0598 -0.0674 -0.3203
 3920POPC   C4A47564  28.174  14.210   6.009 -0.1067  0.0404  0.1191
 3920POPC   C1B47565  28.277  13.252   6.931 -0.2062 -0.0469  0.1058
 3920POPC   C2B47566  28.654  13.242   6.630  0.0205  0.0943 -0.0694
 3920POPC   C3B47567  28.872  13.171   6.183 -0.0536  0.1110 -0.3328
 3920POPC   C4B47568  28.915  13.496   5.830  0.0823  0.0620  0.0152
 3921POPC   NC347569   6.285  18.559   7.828 -0.0375  0.1475  0.0399
 3921POPC   PO447570   6.412  18.795   7.534  0.1975 -0.1809  0.1218
 3921POPC   GL147571   6.201  18.538   7.397 -0.3069  0.1786 -0.3359
 3921POPC   GL247572   6.385  18.291   7.395  0.1809  0.1207  0.1845
 3921POPC   C1A47573   6.109  18.497   6.961 -0.1164  0.1381  0.1353
 3921POPC   D2A47574   6.329  18.380   6.583  0.0120  0.0634  0.0860
 3921POPC   C3A47575   6.313  18.217   6.142 -0.0134 -0.2175 -0.1256
 3921POPC   C4A47576   6.389  18.317   5.713  0.2518 -0.0871 -0.0761
 3921POPC   C1B47577   6.565  18.122   7.033 -0.0216  0.1693 -0.0505
 3921POPC   C2B47578   6.610  17.927   6.637 -0.3730 -0.1614  0.1496
 3921POPC   C3B47579   6.532  17.707   6.290 -0.1969  0.0837  0.0476
 3921POPC   C4B47580   6.382  17.808   5.859 -0.0981 -0.0185 -0.0931
 3922POPC   NC347581  13.971  14.733   7.533  0.0021 -0.0085 -0.2001
 3922POPC   PO447582  14.223  15.005   7.725  0.1216 -0.0102 -0.0776
 3922POPC   GL147583  14.370  15.051   7.325  0.2485 -0.1468  0.2671
 3922POPC   GL247584  14.525  14.796   7.374 -0.0485 -0.3198 -0.0453
 3922POPC   C1A47585  14.324  15.454   7.145 -0.2147  0.0594 -0.1384
 3922POPC   D2A47586  14.075  15.776   6.950 -0.3985 -0.0291  0.2753
 3922POPC   C3A47587  14.268  15.726   6.551  0.0692 -0.1286  0.1016
 3922POPC   C4A47588  14.275  15.691   6.091 -0.1808  0.0939 -0.0227
 3922POPC   C1B47589  14.581  14.583   6.963 -0.0209 -0.1639  0.2134
 3922POPC   C2B47590  14.552  14.277   6.606  0.3138 -0.1249  0.2955
 3922POPC   C3B47591  14.537  14.219   6.144  0.1894 -0.3094 -0.0054
 3922POPC   C4B47592  14.317  13.966   5.885  0.2757  0.1197  0.1967
 3923POPC   NC347593  24.742  28.131   8.064  0.0420  0.2929  0.1921
 3923POPC   PO447594  24.542  28.476   8.067 -0.3551  0.2593  0.0313
 3923POPC   GL147595  24.796  28.399   7.683  0.2114 -0.2720  0.0078
 3923POPC   GL247596  25.067  28.377   7.605  0.0451 -0.2089 -0.2892
 3923POPC   C1A47597  24.770  28.304   7.235  0.0600  0.0620 -0.1983
 3923POPC   D2A47598  25.018  28.329   6.893  0.4427 -0.0751  0.1794
 3923POPC   C3A47599  24.606  28.360   6.639  0.0588 -0.1404 -0.1972
 3923POPC   C4A47600  24.337  28.513   6.258  0.1694 -0.0859  0.3092
 3923POPC   C1B47601  25.366  28.553   7.322  0.0794  0.0086  0.0311
 3923POPC   C2B47602  25.624  28.247   7.175  0.0587  0.0978 -0.0413
 3923POPC   C3B47603  25.563  28.010   6.753 -0.3169 -0.3107 -0.1596
 3923POPC   C4B47604  25.165  28.033   6.455 -0.2037  0.0917  0.1459
 3924POPC   NC347605  30.155   1.234   7.631 -0.2404  0.0379  0.2876
 3924POPC   PO447606  29.996   1.250   7.970 -0.1979 -0.0255  0.1938
 3924POPC   GL147607  29.620   1.137   7.775  0.3525  0.0138  0.0792
 3924POPC   GL247608  29.612   1.308   7.530 -0.3894 -0.1358 -0.3647
 3924POPC   C1A47609  29.330   0.911   7.499 -0.0574  0.0176  0.2079
 3924POPC   D2A47610  29.068   0.634   7.254 -0.0218 -0.0673 -0.1955
 3924POPC   C3A47611  29.161   0.398   6.882  0.0074 -0.0199 -0.0228
 3924POPC   C4A47612  28.887   0.296   6.521  0.1082 -0.2146 -0.0500
 3924POPC   C1B47613  29.832   1.025   7.213 -0.1325 -0.1055 -0.1018
 3924POPC   C2B47614  29.842   0.784   6.825  0.0021 -0.0634 -0.3475
 3924POPC   C3B47615  29.809   0.583   6.368 -0.2933  0.4275  0.1183
 3924POPC   C4B47616  29.769   0.495   5.884  0.0953  0.1679  0.1485
 3925POPC   NC347617   4.458  22.425   8.636 -0.0485 -0.0067 -0.0065
 3925POPC   PO447618   4.767  22.281   8.448  0.2854  0.0382  0.1749
 3925POPC   GL147619   4.964  22.416   8.021  0.3333 -0.0985  0.1776
 3925POPC   GL247620   4.831  22.159   7.909 -0.1071  0.1865 -0.1876
 3925POPC   C1A47621   5.284  22.660   7.810 -0.0482 -0.1100 -0.2592
 3925POPC   D2A47622   5.075  22.973   7.447 -0.0630  0.2605 -0.1121
 3925POPC   C3A47623   5.328  22.843   7.049 -0.0411  0.1742 -0.2013
 3925POPC   C4A47624   5.523  22.862   6.596  0.2987 -0.0424  0.0569
 3925POPC   C1B47625   4.843  22.467   7.561  0.0270  0.1562 -0.0932
 3925POPC   C2B47626   4.835  22.667   7.153 -0.0679 -0.0022  0.0835
 3925POPC   C3B47627   4.913  22.795   6.666 -0.2215 -0.0018  0.1046
 3925POPC   C4B47628   4.873  23.254   6.522 -0.1840  0.2107  0.1550
 3926POPC   NC347629  10.495  27.440   7.929  0.1331  0.1650  0.0660
 3926POPC   PO447630  10.801  27.505   7.701  0.1084 -0.0850 -0.4911
 3926POPC   GL147631  10.967  27.478   7.389  0.1285 -0.3496 -0.0217
 3926POPC   GL247632  11.074  27.283   7.119  0.0827  0.0846 -0.2494
 3926POPC   C1A47633  10.915  27.767   6.992  0.1333 -0.0016  0.3863
 3926POPC   D2A47634  11.047  28.156   6.694 -0.1714  0.2756 -0.1212
 3926POPC   C3A47635  11.338  28.279   6.301 -0.1191 -0.0887 -0.1027
 3926POPC   C4A47636  11.541  28.111   5.955 -0.0934  0.4304 -0.2587
 3926POPC   C1B47637  10.725  26.980   7.004  0.1656 -0.0055  0.0627
 3926POPC   C2B47638  10.630  26.923   6.566  0.3317 -0.4771  0.1714
 3926POPC   C3B47639  10.697  26.750   6.139 -0.0986  0.0207  0.0184
 3926POPC   C4B47640  10.699  26.625   5.667 -0.0822  0.1432  0.1019
 3927POPC   NC347641  21.701  27.111   8.187 -0.0881  0.3262 -0.1200
 3927POPC   PO447642  21.526  26.868   7.940  0.0263  0.2033  0.2057
 3927POPC   GL147643  21.606  27.268   7.694  0.1007 -0.3276  0.0294
 3927POPC   GL247644  21.313  27.318   7.735 -0.1332  0.0504  0.0121
 3927POPC   C1A47645  21.701  27.440   7.274  0.0497 -0.2090  0.0418
 3927POPC   D2A47646  21.659  27.332   6.838 -0.0967  0.1794 -0.2457
 3927POPC   C3A47647  21.590  27.401   6.372  0.1042 -0.1482 -0.0578
 3927POPC   C4A47648  21.443  27.676   6.092  0.1378 -0.2072  0.2499
 3927POPC   C1B47649  21.330  27.040   7.322 -0.0583 -0.1749  0.1149
 3927POPC   C2B47650  21.488  26.874   6.935  0.1691 -0.0193  0.2768
 3927POPC   C3B47651  21.483  26.820   6.466 -0.1601 -0.1264 -0.0506
 3927POPC   C4B47652  21.406  26.395   6.375 -0.1035 -0.2255 -0.1798
 3928POPC   NC347653  31.062  31.630   8.084 -0.3931  0.2111  0.0241
 3928POPC   PO447654  31.185  31.373   7.765  0.0162 -0.2982  0.0301
 3928POPC   GL147655  31.158  31.567   7.476  0.0186 -0.0029  0.1273
 3928POPC   GL247656  31.417  31.559   7.306 -0.1444  0.0221  0.1786
 3928POPC   C1A47657  30.848  31.540   7.137  0.2226 -0.0371 -0.1941
 3928POPC   D2A47658  30.851  31.393   6.709  0.2922  0.2149  0.3330
 3928POPC   C3A47659  30.839  31.606   6.280 -0.0742 -0.0325  0.0504
 3928POPC   C4A47660  31.217  31.639   5.978 -0.1197 -0.1339 -0.2586
 3928POPC   C1B47661  31.259  31.569   6.887 -0.0105  0.1241 -0.1900
 3928POPC   C2B47662  31.355  31.338   6.456  0.0210  0.0755  0.0379
 3928POPC   C3B47663  31.524  31.096   6.102 -0.0723  0.4907 -0.0192
 3928POPC   C4B47664  31.818  31.124   5.753  0.1975 -0.0819 -0.1611
 3929POPC   NC347665  21.224  24.797   8.711 -0.5092  0.1348  0.2099
 3929POPC   PO447666  21.095  24.710   8.363 -0.0014  0.1751  0.3919
 3929POPC   GL147667  21.085  24.853   7.969  0.0966 -0.2682 -0.0570
 3929POPC   GL247668  20.833  25.060   7.896 -0.4135 -0.2733 -0.0834
 3929POPC   C1A47669  20.924  24.583   7.614  0.0808  0.0724 -0.0835
 3929POPC   D2A47670  20.616  24.491   7.350  0.2350 -0.3052  0.0426
 3929POPC   C3A47671  20.507  24.607   6.889  0.0584 -0.1725  0.2798
 3929POPC   C4A47672  20.280  24.807   6.525  0.1005  0.0660 -0.1093
 3929POPC   C1B47673  20.495  24.849   7.675  0.2539  0.1083 -0.0338
 3929POPC   C2B47674  20.248  24.831   7.314 -0.0054  0.1416 -0.3424
 3929POPC   C3B47675  20.018  24.645   6.981 -0.1091 -0.0909 -0.0358
 3929POPC   C4B47676  19.845  24.483   6.590 -0.0572 -0.0151 -0.2599
 3930POPC   NC347677  29.897   8.605   7.964  0.1254  0.0545  0.1701
 3930POPC   PO447678  29.935   8.249   7.751 -0.0342 -0.0599 -0.0199
 3930POPC   GL147679  29.705   8.572   7.438 -0.2999 -0.2700 -0.0186
 3930POPC   GL247680  29.905   8.647   7.336  0.2410 -0.0293  0.0880
 3930POPC   C1A47681  29.712   8.406   6.992 -0.0619  0.0397  0.1138
 3930POPC   D2A47682  29.646   8.175   6.578 -0.3075  0.0087  0.0358
 3930POPC   C3A47683  29.520   8.113   6.146  0.0035 -0.1755 -0.1147
 3930POPC   C4A47684  29.356   8.297   5.777 -0.1141  0.1164  0.0546
 3930POPC   C1B47685  29.716   9.004   7.183  0.0338  0.1321  0.2532
 3930POPC   C2B47686  29.481   9.344   7.035 -0.0842  0.3101 -0.0089
 3930POPC   C3B47687  29.376   9.492   6.605  0.4022 -0.2103  0.0225
 3930POPC   C4B47688  29.328   9.358   6.159 -0.0453 -0.3144  0.1211
 3931POPC   NC347689  26.982  13.097   8.239  0.1892 -0.0065  0.0986
 3931POPC   PO447690  27.154  12.890   7.940  0.0281 -0.1268 -0.1950
 3931POPC   GL147691  27.064  12.800   7.551 -0.0840  0.1864  0.1082
 3931POPC   GL247692  26.848  12.743   7.428  0.1911 -0.2177 -0.2338
 3931POPC   C1A47693  27.323  12.834   7.169  0.0400 -0.0545 -0.0193
 3931POPC   D2A47694  27.332  12.670   6.694 -0.4230 -0.2007 -0.2002
 3931POPC   C3A47695  27.103  12.574   6.358 -0.0519  0.0416 -0.3257
 3931POPC   C4A47696  27.030  12.673   5.868  0.1958  0.0326  0.1933
 3931POPC   C1B47697  26.843  12.671   6.972  0.1303 -0.1486  0.1544
 3931POPC   C2B47698  26.747  12.850   6.534 -0.2777 -0.0599  0.1391
 3931POPC   C3B47699  26.981  13.155   6.224 -0.2575  0.2167  0.2118
 3931POPC   C4B47700  27.108  13.228   5.808  0.0169  0.2706 -0.0172
 3932POPC   NC347701  26.089  27.322   7.724 -0.1137  0.2232  0.1696
 3932POPC   PO447702  26.125  27.716   7.821 -0.2475  0.0634 -0.0592
 3932POPC   GL147703  26.217  27.977   7.559 -0.2747 -0.0330 -0.1422
 3932POPC   GL247704  26.205  27.854   7.350  0.2300  0.1347 -0.1568
 3932POPC   C1A47705  26.512  28.240   7.284 -0.0402  0.1233 -0.1089
 3932POPC   D2A47706  26.611  28.695   7.136 -0.1619 -0.1824  0.1359
 3932POPC   C3A47707  26.295  28.875   6.891 -0.0606  0.1193  0.0941
 3932POPC   C4A47708  26.116  28.955   6.533  0.0065 -0.0781 -0.2601
 3932POPC   C1B47709  26.534  27.845   6.983  0.4372  0.1549 -0.0301
 3932POPC   C2B47710  26.468  27.742   6.526 -0.2393 -0.2579 -0.1998
 3932POPC   C3B47711  26.387  27.468   6.140 -0.1652  0.0381  0.1530
 3932POPC   C4B47712  26.368  27.371   5.707  0.1328  0.2964  0.0745
 3933POPC   NC347713   3.727  21.930   8.115 -0.0914 -0.1683 -0.2736
 3933POPC   PO447714   3.857  22.313   8.033 -0.0136 -0.3125 -0.2751
 3933POPC   GL147715   3.798  22.105   7.691  0.0021 -0.0447  0.0920
 3933POPC   GL247716   3.905  22.169   7.400 -0.1305 -0.2747  0.1874
 3933POPC   C1A47717   3.600  21.836   7.371  0.1079 -0.1535 -0.0290
 3933POPC   D2A47718   3.755  21.749   6.984  0.0005  0.1678 -0.0868
 3933POPC   C3A47719   3.622  21.975   6.641 -0.0178  0.1046  0.0058
 3933POPC   C4A47720   3.730  22.291   6.278 -0.0857 -0.0042 -0.1494
 3933POPC   C1B47721   3.885  22.346   6.978 -0.1811 -0.2145  0.0957
 3933POPC   C2B47722   4.056  22.511   6.590 -0.0955 -0.0891  0.1850
 3933POPC   C3B47723   3.852  22.896   6.368 -0.0871 -0.3127  0.1082
 3933POPC   C4B47724   4.032  23.277   6.144 -0.1106 -0.1153  0.1173
 3934POPC   NC347725  27.751  26.308   7.825 -0.1255 -0.2429 -0.1577
 3934POPC   PO447726  27.579  26.662   7.865 -0.1741 -0.0182  0.3024
 3934POPC   GL147727  27.725  26.510   7.391  0.2867 -0.0319 -0.1982
 3934POPC   GL247728  27.879  26.783   7.474 -0.1676  0.2427 -0.0289
 3934POPC   C1A47729  27.511  26.477   7.002  0.3013  0.2359  0.2618
 3934POPC   D2A47730  27.380  26.761   6.737  0.0121 -0.3358 -0.1481
 3934POPC   C3A47731  27.344  26.659   6.267 -0.1718  0.2881 -0.1282
 3934POPC   C4A47732  27.679  26.667   5.941 -0.0003  0.1490  0.1355
 3934POPC   C1B47733  27.911  26.791   7.019  0.0242  0.1254 -0.1114
 3934POPC   C2B47734  27.828  26.860   6.545 -0.1583  0.0936  0.2021
 3934POPC   C3B47735  27.701  27.119   6.142 -0.0327  0.0484  0.0249
 3934POPC   C4B47736  27.715  27.522   5.884  0.0061 -0.0204  0.2802
 3935POPC   NC347737  25.205  15.555   8.179  0.1908  0.0549  0.0571
 3935POPC   PO447738  25.601  15.600   8.231 -0.2762  0.4012 -0.1265
 3935POPC   GL147739  25.712  15.468   7.785 -0.1431  0.2549  0.6087
 3935POPC   GL247740  25.473  15.290   7.730  0.1136 -0.1872  0.0094
 3935POPC   C1A47741  25.851  15.267   7.373 -0.2704 -0.2315 -0.1347
 3935POPC   D2A47742  25.878  15.065   6.960  0.4191 -0.2066 -0.1930
 3935POPC   C3A47743  25.574  15.270   6.657 -0.1479  0.3032  0.0840
 3935POPC   C4A47744  25.277  15.608   6.739 -0.1275 -0.1522  0.0877
 3935POPC   C1B47745  25.105  15.571   7.621  0.2053  0.0480 -0.3738
 3935POPC   C2B47746  24.777  15.922   7.607 -0.1681 -0.2125  0.1400
 3935POPC   C3B47747  24.427  15.871   7.830  0.0979  0.1384 -0.1861
 3935POPC   C4B47748  24.014  15.814   8.056 -0.0065  0.2058  0.3133
 3936POPC   NC347749  23.468  12.905   7.649 -0.0652  0.2579  0.1251
 3936POPC   PO447750  23.746  12.652   7.747  0.1045 -0.1855  0.0419
 3936POPC   GL147751  24.005  12.852   7.416 -0.0959 -0.0054  0.2871
 3936POPC   GL247752  24.139  12.550   7.378 -0.0846 -0.2767 -0.0951
 3936POPC   C1A47753  24.202  13.163   7.084 -0.0331 -0.1788  0.0366
 3936POPC   D2A47754  24.127  13.340   6.656 -0.1545  0.1087  0.0251
 3936POPC   C3A47755  24.404  13.633   6.438  0.0472 -0.4790 -0.2543
 3936POPC   C4A47756  24.655  14.088   6.398 -0.0689 -0.0788 -0.0522
 3936POPC   C1B47757  24.217  12.678   6.964  0.0746 -0.0694 -0.1003
 3936POPC   C2B47758  24.178  12.843   6.543  0.1439  0.2201 -0.2684
 3936POPC   C3B47759  24.168  13.113   6.177  0.1602  0.1881 -0.0037
 3936POPC   C4B47760  24.184  13.373   5.751 -0.1196  0.4379  0.0435
 3937POPC   NC347761  17.906  13.483   7.779  0.1548  0.0148 -0.3792
 3937POPC   PO447762  17.870  13.161   8.035  0.2663  0.1544 -0.2682
 3937POPC   GL147763  17.594  13.106   7.720  0.2540 -0.1500  0.0286
 3937POPC   GL247764  17.528  13.305   7.536 -0.2176 -0.3726  0.2539
 3937POPC   C1A47765  17.527  12.854   7.373 -0.0319  0.1264 -0.0745
 3937POPC   D2A47766  17.564  12.631   6.988 -0.4725  0.0483  0.1278
 3937POPC   C3A47767  17.992  12.498   6.970  0.2472  0.0005 -0.0271
 3937POPC   C4A47768  18.400  12.405   6.833  0.2073 -0.3091 -0.2881
 3937POPC   C1B47769  17.284  13.542   7.173  0.1433  0.3416  0.1278
 3937POPC   C2B47770  17.356  13.515   6.761 -0.1086 -0.0888  0.1266
 3937POPC   C3B47771  17.496  13.445   6.387 -0.1716 -0.2332  0.0395
 3937POPC   C4B47772  17.681  13.537   5.947 -0.2009  0.0150 -0.0806
 3938POPC   NC347773  10.547  10.024   8.169  0.1632  0.0518  0.0205
 3938POPC   PO447774  10.304   9.969   7.886  0.0491 -0.3327  0.3224
 3938POPC   GL147775  10.443  10.224   7.580 -0.1883 -0.6148 -0.0123
 3938POPC   GL247776  10.416  10.473   7.458 -0.1062 -0.1453 -0.1459
 3938POPC   C1A47777  10.570  10.106   7.088  0.0370 -0.0222 -0.1196
 3938POPC   D2A47778  10.936  10.217   6.846  0.0834 -0.3500 -0.0674
 3938POPC   C3A47779  10.758  10.410   6.452  0.2215 -0.1382  0.1569
 3938POPC   C4A47780  10.822  10.316   6.024  0.0097 -0.2384 -0.3785
 3938POPC   C1B47781  10.448  10.653   7.059  0.0539  0.2578  0.0677
 3938POPC   C2B47782  10.310  10.616   6.666 -0.0061  0.1539 -0.0280
 3938POPC   C3B47783  10.222  10.717   6.212 -0.1682 -0.1578  0.0797
 3938POPC   C4B47784  10.164  11.091   5.900  0.1816 -0.0565 -0.0185
 3939POPC   NC347785   2.858   8.355   7.598 -0.2791  0.2429 -0.0442
 3939POPC   PO447786   3.031   8.663   7.765 -0.2324 -0.2437  0.0364
 3939POPC   GL147787   3.107   8.818   7.329 -0.0115 -0.0276  0.1298
 3939POPC   GL247788   2.902   9.026   7.196 -0.1950  0.0899  0.1587
 3939POPC   C1A47789   3.244   8.807   6.875 -0.2199  0.1263 -0.0696
 3939POPC   D2A47790   3.319   8.895   6.415 -0.1842  0.2335  0.3849
 3939POPC   C3A47791   3.403   8.697   6.039  0.0166 -0.2369 -0.1165
 3939POPC   C4A47792   3.538   8.390   5.790 -0.1526 -0.0766 -0.2162
 3939POPC   C1B47793   2.843   8.899   6.724  0.0221 -0.0865 -0.1027
 3939POPC   C2B47794   2.845   8.779   6.295  0.1578 -0.0455  0.0038
 3939POPC   C3B47795   3.046   9.008   5.951 -0.2184  0.0322 -0.0563
 3939POPC   C4B47796   3.384   9.175   5.740 -0.1094 -0.0201  0.0120
 3940POPC   NC347797  20.917  27.039   8.157 -0.0708 -0.2493  0.1593
 3940POPC   PO447798  20.942  26.927   7.789 -0.2932 -0.1519  0.2133
 3940POPC   GL147799  20.785  26.613   7.640  0.2141  0.0450  0.1411
 3940POPC   GL247800  20.773  26.467   7.855 -0.0210 -0.1535 -0.1084
 3940POPC   C1A47801  20.453  26.449   7.355 -0.2653 -0.2401  0.0218
 3940POPC   D2A47802  20.293  26.325   7.007 -0.0933 -0.3907  0.1116
 3940POPC   C3A47803  20.323  26.615   6.695  0.2500  0.2318  0.0091
 3940POPC   C4A47804  20.445  26.720   6.246  0.1919  0.2999  0.3695
 3940POPC   C1B47805  20.466  26.171   7.740 -0.0948  0.2851 -0.0976
 3940POPC   C2B47806  20.369  25.840   7.444  0.1705  0.0453  0.0203
 3940POPC   C3B47807  20.190  25.832   7.044 -0.1174  0.1884  0.0686
 3940POPC   C4B47808  19.963  25.625   6.754 -0.0145  0.5029  0.2440
 3941POPC   NC347809  27.390  24.592   7.598  0.0938 -0.0999  0.0217
 3941POPC   PO447810  27.747  24.558   7.714  0.2089 -0.1531 -0.0340
 3941POPC   GL147811  27.880  24.420   7.483 -0.0762 -0.0090 -0.3414
 3941POPC   GL247812  28.089  24.508   7.359 -0.1669 -0.1008 -0.1050
 3941POPC   C1A47813  27.926  24.034   7.199 -0.2473  0.2748  0.0458
 3941POPC   D2A47814  27.833  23.869   6.802  0.4457 -0.0093 -0.1330
 3941POPC   C3A47815  27.508  23.564   6.638  0.1949  0.3341  0.0267
 3941POPC   C4A47816  27.518  23.185   6.381 -0.4907 -0.0219  0.2896
 3941POPC   C1B47817  27.896  24.524   6.987 -0.2963 -0.0448  0.0536
 3941POPC   C2B47818  27.876  24.552   6.565  0.2184  0.0459 -0.0173
 3941POPC   C3B47819  27.921  24.359   6.150  0.2947 -0.0958  0.1968
 3941POPC   C4B47820  27.689  24.092   5.803 -0.1010  0.2648  0.1703
 3942POPC   NC347821  26.284  19.374   7.547 -0.1352 -0.1116 -0.3095
 3942POPC   PO447822  26.645  19.328   7.663 -0.2494  0.0383  0.2087
 3942POPC   GL147823  26.638  19.647   7.424  0.2664  0.0719 -0.0877
 3942POPC   GL247824  26.907  19.549   7.302 -0.3090 -0.1218 -0.1330
 3942POPC   C1A47825  26.270  19.633   7.161  0.2903  0.0101  0.0052
 3942POPC   D2A47826  26.008  19.334   6.878 -0.0072 -0.1679  0.2575
 3942POPC   C3A47827  25.724  19.637   6.685  0.1426 -0.0183  0.3172
 3942POPC   C4A47828  25.694  19.830   6.267  0.0816  0.0438  0.0259
 3942POPC   C1B47829  26.706  19.730   6.949  0.1131  0.0993 -0.0611
 3942POPC   C2B47830  26.646  19.911   6.518  0.0881  0.2358 -0.1985
 3942POPC   C3B47831  26.647  20.125   6.069  0.0851  0.1641  0.1123
 3942POPC   C4B47832  26.485  20.259   5.719  0.1243 -0.2517  0.0927
 3943POPC   NC347833   9.923  28.910   7.676  0.2034  0.0162  0.2318
 3943POPC   PO447834   9.679  29.171   7.584  0.1613  0.1462  0.0084
 3943POPC   GL147835   9.943  29.267   7.223 -0.0485 -0.2254  0.2118
 3943POPC   GL247836  10.113  29.313   7.397 -0.1093  0.0262 -0.0239
 3943POPC   C1A47837  10.177  29.113   6.846  0.0310  0.2968 -0.0177
 3943POPC   D2A47838  10.224  29.035   6.390  0.1060 -0.1408 -0.0494
 3943POPC   C3A47839  10.343  29.278   6.003 -0.1087  0.0018 -0.0449
 3943POPC   C4A47840  10.356  29.453   5.624  0.1896  0.3728 -0.2640
 3943POPC   C1B47841  10.475  29.405   7.121  0.0943 -0.0242 -0.2323
 3943POPC   C2B47842  10.550  29.426   6.643 -0.0063 -0.1775 -0.0958
 3943POPC   C3B47843  10.799  29.282   6.240  0.3368  0.0106  0.1921
 3943POPC   C4B47844  10.775  29.036   5.846  0.1232 -0.2411 -0.2780
 3944POPC   NC347845  11.601  19.949   7.719  0.1862 -0.0227 -0.0509
 3944POPC   PO447846  11.550  19.589   7.628 -0.1509  0.2754 -0.0901
 3944POPC   GL147847  11.476  19.682   7.245  0.1743 -0.0895 -0.3289
 3944POPC   GL247848  11.654  19.895   7.194  0.0724  0.2674  0.0868
 3944POPC   C1A47849  11.471  19.548   6.806 -0.1019 -0.2934 -0.3403
 3944POPC   D2A47850  11.544  19.743   6.366 -0.0345  0.2416  0.3016
 3944POPC   C3A47851  11.275  19.451   6.125  0.0304  0.0697 -0.2995
 3944POPC   C4A47852  11.415  19.525   5.675  0.3099  0.1570 -0.2169
 3944POPC   C1B47853  11.785  20.018   6.739 -0.0944 -0.0974 -0.1331
 3944POPC   C2B47854  11.763  20.243   6.313 -0.1278 -0.2080 -0.3260
 3944POPC   C3B47855  11.472  20.257   6.038 -0.1720 -0.0058  0.1015
 3944POPC   C4B47856  11.193  20.103   5.725  0.1525 -0.0796 -0.1710
 3945POPC   NC347857  21.624  15.268   7.739 -0.0774  0.0457  0.0866
 3945POPC   PO447858  22.005  15.219   7.660  0.0791 -0.0575 -0.0202
 3945POPC   GL147859  22.033  15.265   7.255 -0.1721 -0.2793 -0.1699
 3945POPC   GL247860  22.101  15.087   7.049  0.2281  0.0425 -0.2210
 3945POPC   C1A47861  22.231  15.589   6.967  0.3025 -0.1300  0.0158
 3945POPC   D2A47862  22.568  15.611   6.691 -0.0209 -0.3085  0.0716
 3945POPC   C3A47863  23.022  15.786   6.778  0.1184  0.1067 -0.0336
 3945POPC   C4A47864  23.415  16.018   6.742  0.2376  0.2859  0.2585
 3945POPC   C1B47865  22.373  15.132   6.722 -0.0631  0.1400  0.3321
 3945POPC   C2B47866  22.704  15.141   6.457  0.2509  0.2587 -0.2342
 3945POPC   C3B47867  23.072  15.409   6.354  0.0382 -0.0778  0.1509
 3945POPC   C4B47868  23.197  15.710   6.018  0.1396  0.1591  0.0359
 3946POPC   NC347869  14.213   5.884   7.355  0.0129  0.5491  0.1398
 3946POPC   PO447870  14.594   5.957   7.391 -0.1919  0.4411 -0.1126
 3946POPC   GL147871  14.482   5.680   7.053  0.0681  0.3178  0.0664
 3946POPC   GL247872  14.515   5.866   6.858 -0.1294 -0.0261  0.1756
 3946POPC   C1A47873  14.142   5.598   6.745 -0.0214 -0.1440 -0.0963
 3946POPC   D2A47874  13.855   5.419   6.428 -0.0666  0.2496 -0.1233
 3946POPC   C3A47875  13.857   5.758   6.091  0.2115  0.1230  0.2886
 3946POPC   C4A47876  13.733   6.156   5.878 -0.0090 -0.0637  0.0566
 3946POPC   C1B47877  14.564   6.239   6.634  0.5920  0.0300  0.2520
 3946POPC   C2B47878  14.700   6.394   6.247 -0.3583 -0.0918  0.1190
 3946POPC   C3B47879  14.692   6.015   5.888 -0.5269 -0.1451  0.2913
 3946POPC   C4B47880  15.004   6.058   5.584  0.0248  0.1479  0.1780
 3947POPC   NC347881  28.735  21.546   7.395 -0.0090  0.1021 -0.3008
 3947POPC   PO447882  28.727  21.267   7.704 -0.1429  0.0795  0.1424
 3947POPC   GL147883  28.581  21.042   7.334 -0.2550  0.2215 -0.0478
 3947POPC   GL247884  28.733  20.786   7.338  0.3608 -0.2360 -0.0428
 3947POPC   C1A47885  28.664  21.253   6.905 -0.1708  0.4180  0.1923
 3947POPC   D2A47886  28.809  21.543   6.555 -0.1478  0.0448  0.1715
 3947POPC   C3A47887  29.057  21.638   6.204  0.0396  0.3066 -0.1715
 3947POPC   C4A47888  29.376  21.569   5.840  0.2531 -0.2501 -0.3691
 3947POPC   C1B47889  28.802  20.743   6.840 -0.2394 -0.0366 -0.0864
 3947POPC   C2B47890  29.040  20.647   6.416  0.1355 -0.1732 -0.0915
 3947POPC   C3B47891  29.364  20.674   6.064  0.0007 -0.1559 -0.3770
 3947POPC   C4B47892  29.628  21.018   5.910  0.0414 -0.0075  0.0646
 3948POPC   NC347893  12.042   8.683   7.760 -0.2310  0.2500  0.2084
 3948POPC   PO447894  12.301   8.934   7.627  0.0527  0.2024 -0.0988
 3948POPC   GL147895  12.320   8.675   7.381  0.1655  0.1074 -0.3035
 3948POPC   GL247896  12.565   8.551   7.354 -0.0602 -0.0011  0.2715
 3948POPC   C1A47897  12.210   8.896   6.986 -0.2873  0.0942  0.1787
 3948POPC   D2A47898  12.197   9.231   6.663 -0.1137 -0.2014  0.1448
 3948POPC   C3A47899  12.024   9.158   6.199 -0.2804 -0.1358  0.0441
 3948POPC   C4A47900  11.632   8.968   6.019  0.0945 -0.0945  0.1805
 3948POPC   C1B47901  12.660   8.825   7.023 -0.1761 -0.1242 -0.0720
 3948POPC   C2B47902  12.655   9.099   6.674 -0.1966 -0.1491  0.2734
 3948POPC   C3B47903  12.531   9.395   6.322 -0.1953 -0.0570 -0.1527
 3948POPC   C4B47904  12.451   9.403   5.861 -0.0494 -0.1171 -0.0449
 3949POPC   NC347905  26.760  18.092   7.987 -0.0471 -0.2598 -0.2032
 3949POPC   PO447906  26.661  17.966   7.652  0.1839 -0.2292  0.2541
 3949POPC   GL147907  26.634  17.850   7.267 -0.2591 -0.0170 -0.0252
 3949POPC   GL247908  26.826  17.674   7.083 -0.1990  0.0597 -0.4781
 3949POPC   C1A47909  26.566  18.100   6.896 -0.0825 -0.0761 -0.2581
 3949POPC   D2A47910  26.450  18.003   6.439  0.1030 -0.1357 -0.0039
 3949POPC   C3A47911  26.734  17.830   6.139  0.1737 -0.2522  0.3337
 3949POPC   C4A47912  26.920  18.127   5.802  0.0523 -0.0405  0.1497
 3949POPC   C1B47913  26.605  17.603   6.688 -0.0079 -0.3674  0.0177
 3949POPC   C2B47914  26.333  17.534   6.376  0.1190 -0.1760 -0.1724
 3949POPC   C3B47915  26.356  17.322   5.977 -0.1306  0.0795  0.0026
 3949POPC   C4B47916  26.313  17.306   5.503 -0.0038 -0.2827  0.0513
 3950POPC   NC347917  24.038  30.772   7.416  0.0085 -0.1882 -0.1078
 3950POPC   PO447918  23.695  30.566   7.498 -0.2142  0.0801  0.1396
 3950POPC   GL147919  23.772  30.354   7.194  0.2425  0.0392 -0.2603
 3950POPC   GL247920  24.077  30.312   7.156  0.1596 -0.2229 -0.1786
 3950POPC   C1A47921  23.470  30.548   6.856 -0.0818 -0.3001 -0.0076
 3950POPC   D2A47922  23.379  30.636   6.380 -0.0935 -0.0911 -0.1757
 3950POPC   C3A47923  23.241  30.290   6.127  0.1417 -0.0378 -0.2008
 3950POPC   C4A47924  22.803  30.184   6.220 -0.3515 -0.1521  0.2333
 3950POPC   C1B47925  24.201  29.995   6.886 -0.1203  0.1707 -0.1786
 3950POPC   C2B47926  24.188  29.746   6.493 -0.0191  0.3201  0.3570
 3950POPC   C3B47927  24.141  29.640   6.088  0.0199  0.1262  0.2536
 3950POPC   C4B47928  23.811  29.550   5.760  0.0628  0.2415 -0.3127
 3951POPC   NC347929  16.394  22.260   8.586  0.2824  0.0398 -0.2869
 3951POPC   PO447930  16.104  22.083   8.312  0.0121 -0.0240  0.1087
 3951POPC   GL147931  16.118  22.175   7.804  0.2773  0.1317 -0.1254
 3951POPC   GL247932  16.357  22.171   7.655 -0.2080  0.2977 -0.1906
 3951POPC   C1A47933  16.133  22.631   7.685 -0.3176  0.0259  0.1434
 3951POPC   D2A47934  16.054  22.848   7.333 -0.0391 -0.1401 -0.1472
 3951POPC   C3A47935  16.028  23.320   7.397 -0.1108  0.3417  0.0633
 3951POPC   C4A47936  15.805  23.526   6.974  0.0384 -0.1215  0.0192
 3951POPC   C1B47937  16.236  22.369   7.248 -0.2709 -0.1684 -0.2048
 3951POPC   C2B47938  16.098  22.383   6.816  0.0329  0.3696 -0.0921
 3951POPC   C3B47939  15.894  22.613   6.481  0.2584 -0.1512  0.2482
 3951POPC   C4B47940  15.727  22.508   6.055  0.0104  0.0998 -0.1350
 3952POPC   NC347941  17.117   8.859   8.202 -0.2583 -0.1097 -0.1214
 3952POPC   PO447942  16.923   9.107   7.947 -0.2514  0.3267 -0.1270
 3952POPC   GL147943  17.082   9.109   7.627 -0.0347 -0.0700  0.1479
 3952POPC   GL247944  16.815   9.137   7.455  0.0639 -0.4372 -0.0180
 3952POPC   C1A47945  17.540   9.057   7.379  0.1322  0.0895 -0.1579
 3952POPC   D2A47946  17.571   8.714   7.184 -0.2096  0.1393  0.1681
 3952POPC   C3A47947  17.297   8.409   7.044  0.0789 -0.0103 -0.1818
 3952POPC   C4A47948  17.282   7.991   6.978 -0.0700 -0.0665 -0.0867
 3952POPC   C1B47949  16.697   9.190   7.023  0.2509  0.2660  0.2466
 3952POPC   C2B47950  16.645   9.051   6.601  0.1434  0.2551 -0.2136
 3952POPC   C3B47951  16.551   8.983   6.146 -0.2061 -0.2009 -0.2798
 3952POPC   C4B47952  16.686   9.224   5.772 -0.0929 -0.1153  0.1201
 3953POPC   NC347953  13.244   8.130   7.802  0.3549  0.0613 -0.0272
 3953POPC   PO447954  13.632   8.019   7.885  0.0658  0.0931 -0.1951
 3953POPC   GL147955  13.894   7.992   7.565  0.4376  0.2775  0.0811
 3953POPC   GL247956  13.742   7.917   7.354 -0.2352 -0.2829 -0.4962
 3953POPC   C1A47957  14.132   7.638   7.420  0.0088  0.0476 -0.1696
 3953POPC   D2A47958  14.305   7.600   7.015  0.1859  0.2099  0.1287
 3953POPC   C3A47959  14.259   7.631   6.594 -0.0303  0.0467  0.0460
 3953POPC   C4A47960  14.160   7.757   6.189 -0.1280 -0.1687 -0.0839
 3953POPC   C1B47961  13.897   7.850   6.896  0.0823 -0.2513 -0.0963
 3953POPC   C2B47962  14.013   8.122   6.478  0.0350 -0.0473 -0.1649
 3953POPC   C3B47963  14.088   8.211   6.080  0.0913  0.0245 -0.0109
 3953POPC   C4B47964  14.305   8.354   5.706 -0.0800  0.2682  0.1204
 3954POPC   NC347965  28.077   3.582   8.092 -0.0338 -0.0646 -0.3752
 3954POPC   PO447966  28.010   3.208   8.148 -0.2273 -0.5199 -0.2711
 3954POPC   GL147967  27.828   3.071   7.782  0.1379 -0.3987 -0.2803
 3954POPC   GL247968  27.713   3.374   7.795  0.2253  0.0371  0.1624
 3954POPC   C1A47969  27.439   2.866   7.645 -0.2228 -0.0523 -0.1306
 3954POPC   D2A47970  27.054   2.910   7.365 -0.1822  0.0490 -0.3771
 3954POPC   C3A47971  27.238   2.823   6.942 -0.1833 -0.0316  0.1699
 3954POPC   C4A47972  27.299   2.687   6.520 -0.0338  0.0259 -0.1124
 3954POPC   C1B47973  27.328   3.645   7.904  0.3875 -0.0852 -0.2315
 3954POPC   C2B47974  26.940   3.453   8.010  0.1529 -0.0566 -0.2984
 3954POPC   C3B47975  26.554   3.215   8.083 -0.0961 -0.2343 -0.3253
 3954POPC   C4B47976  26.081   3.241   8.106  0.2339  0.0376 -0.0744
 3955POPC   NC347977  13.499  10.090   7.572  0.2937 -0.0849  0.2308
 3955POPC   PO447978  13.864   9.999   7.507 -0.0893 -0.0644 -0.0611
 3955POPC   GL147979  14.069   9.725   7.385  0.2856 -0.2020  0.1558
 3955POPC   GL247980  14.099   9.442   7.354 -0.1533 -0.0897 -0.0226
 3955POPC   C1A47981  14.128   9.612   6.904 -0.3742  0.2663  0.0144
 3955POPC   D2A47982  14.238   9.467   6.454  0.0583 -0.0144 -0.1452
 3955POPC   C3A47983  13.956   9.339   6.154  0.2551  0.1022  0.2513
 3955POPC   C4A47984  13.515   9.248   6.059  0.2538  0.1790  0.0365
 3955POPC   C1B47985  14.016   8.999   7.239  0.1147  0.3380  0.3404
 3955POPC   C2B47986  13.658   8.750   7.031 -0.1838 -0.0675  0.1008
 3955POPC   C3B47987  13.585   8.431   6.719  0.0063  0.1763 -0.2380
 3955POPC   C4B47988  13.562   8.113   6.403  0.0911  0.3222  0.1980
 3956POPC   NC347989  27.368  11.749   7.437  0.1334 -0.0193  0.1842
 3956POPC   PO447990  27.593  12.033   7.489 -0.2463 -0.3301 -0.0114
 3956POPC   GL147991  27.841  11.883   7.201 -0.1807 -0.0591  0.3553
 3956POPC   GL247992  28.073  11.659   7.211  0.3200 -0.2533 -0.0039
 3956POPC   C1A47993  27.545  11.903   6.882  0.1057 -0.4000 -0.0876
 3956POPC   D2A47994  27.537  12.123   6.502  0.1767  0.0512  0.1385
 3956POPC   C3A47995  27.757  12.465   6.307 -0.0043  0.1262 -0.1168
 3956POPC   C4A47996  27.943  12.721   5.927  0.2123  0.0351 -0.1440
 3956POPC   C1B47997  28.090  11.860   6.803 -0.1120  0.0247 -0.0352
 3956POPC   C2B47998  28.027  11.941   6.321  0.1401  0.2058  0.3035
 3956POPC   C3B47999  27.771  12.134   5.944  0.0400  0.0888  0.0074
 3956POPC   C4B48000  27.385  12.352   5.960  0.0174  0.1246 -0.1865
 3957POPC   NC348001  24.467  10.666   7.691 -0.0043  0.1749  0.1430
 3957POPC   PO448002  24.152  10.397   7.748  0.1677 -0.1481  0.0311
 3957POPC   GL148003  24.129  10.449   7.349  0.1277 -0.3300 -0.1209
 3957POPC   GL248004  23.796  10.516   7.388 -0.1056  0.0537 -0.4653
 3957POPC   C1A48005  24.254  10.334   6.928  0.0396  0.0569  0.2380
 3957POPC   D2A48006  24.410  10.379   6.474  0.0988 -0.1193  0.0346
 3957POPC   C3A48007  24.569  10.297   6.026  0.1524 -0.0868 -0.1825
 3957POPC   C4A48008  24.918  10.077   5.891 -0.0689 -0.0026 -0.1456
 3957POPC   C1B48009  23.846  10.795   6.973 -0.2188 -0.0495  0.0776
 3957POPC   C2B48010  23.905  11.227   6.813 -0.1499  0.1410 -0.3246
 3957POPC   C3B48011  24.022  11.541   6.479  0.0549  0.0333  0.0289
 3957POPC   C4B48012  24.294  11.688   6.128 -0.0180  0.4121 -0.3343
 3958POPC   NC348013  12.442  18.508   7.826 -0.0771  0.1534  0.1927
 3958POPC   PO448014  12.398  18.403   7.445  0.1029  0.2029  0.2438
 3958POPC   GL148015  12.599  18.200   7.117  0.0330 -0.0479 -0.1413
 3958POPC   GL248016  12.722  18.388   6.908 -0.3174 -0.0083  0.0200
 3958POPC   C1A48017  12.580  17.914   6.817  0.0629  0.1513  0.0432
 3958POPC   D2A48018  12.707  17.637   6.478  0.0222  0.1059  0.0190
 3958POPC   C3A48019  12.740  17.683   6.065 -0.0164  0.0511  0.0458
 3958POPC   C4A48020  12.991  17.640   5.733 -0.5221  0.1292  0.3181
 3958POPC   C1B48021  12.664  18.322   6.492 -0.1308  0.0597  0.0845
 3958POPC   C2B48022  12.736  18.319   6.058  0.3824  0.1175  0.2129
 3958POPC   C3B48023  12.705  18.080   5.686  0.0988 -0.1326 -0.0000
 3958POPC   C4B48024  12.695  17.895   5.268  0.0819  0.0213  0.0536
 3959POPC   NC348025   5.031   0.305   7.982 -0.0022 -0.1847 -0.0534
 3959POPC   PO448026   4.949   0.683   7.995 -0.2496  0.0375  0.0943
 3959POPC   GL148027   5.169   0.617   7.660  0.3766  0.4590  0.3666
 3959POPC   GL248028   5.424   0.769   7.747  0.3541  0.1306  0.0296
 3959POPC   C1A48029   5.213   0.364   7.296  0.2009 -0.0734  0.0847
 3959POPC   D2A48030   5.624   0.521   7.131  0.0733 -0.1724 -0.1352
 3959POPC   C3A48031   5.881   0.490   6.756 -0.0539 -0.2901  0.1708
 3959POPC   C4A48032   5.973   0.472   6.283  0.2538  0.0071 -0.0474
 3959POPC   C1B48033   5.411   0.988   7.343  0.1597 -0.0197 -0.0056
 3959POPC   C2B48034   5.353   0.971   6.862  0.1980  0.2904  0.2242
 3959POPC   C3B48035   5.319   1.043   6.392  0.2293  0.3286 -0.3169
 3959POPC   C4B48036   5.148   1.268   6.025 -0.0642  0.2241  0.0590
 3960POPC   NC348037   3.582  24.529   7.847  0.2371 -0.3227  0.0717
 3960POPC   PO448038   3.310  24.780   7.768  0.0572  0.3891 -0.4818
 3960POPC   GL148039   3.226  24.827   7.367 -0.1313 -0.2125  0.2438
 3960POPC   GL248040   3.509  24.696   7.314  0.5772 -0.0646 -0.0891
 3960POPC   C1A48041   3.408  25.045   7.000  0.0746 -0.2780  0.1985
 3960POPC   D2A48042   3.755  25.149   6.755 -0.2433 -0.1084 -0.1171
 3960POPC   C3A48043   3.875  24.994   6.369  0.2913  0.0214 -0.0562
 3960POPC   C4A48044   3.990  25.008   5.930  0.2163  0.1838 -0.1975
 3960POPC   C1B48045   3.352  24.521   6.880 -0.1621 -0.2525 -0.2354
 3960POPC   C2B48046   3.427  24.573   6.399 -0.0440  0.1241 -0.4180
 3960POPC   C3B48047   3.437  24.911   6.115 -0.1296  0.2306 -0.1407
 3960POPC   C4B48048   3.162  25.208   5.925 -0.1109  0.3237  0.2480
 3961POPC   NC348049  25.039  13.701   8.040 -0.1955 -0.0947 -0.1940
 3961POPC   PO448050  25.244  13.966   8.212  0.0747  0.1727 -0.0864
 3961POPC   GL148051  25.290  14.038   7.773  0.1994 -0.2183 -0.2811
 3961POPC   GL248052  25.071  14.111   7.764  0.1434  0.0880  0.1413
 3961POPC   C1A48053  25.575  14.223   7.517 -0.0009  0.1369  0.3168
 3961POPC   D2A48054  25.798  14.457   7.260 -0.1277 -0.0764  0.0276
 3961POPC   C3A48055  25.854  14.551   6.785  0.0006 -0.1712 -0.0600
 3961POPC   C4A48056  25.743  14.761   6.399  0.0550  0.2175  0.0074
 3961POPC   C1B48057  25.088  14.199   7.310 -0.2609 -0.1374  0.1666
 3961POPC   C2B48058  25.410  14.327   7.031  0.1532  0.1055 -0.1553
 3961POPC   C3B48059  25.445  14.408   6.548 -0.0809 -0.2267 -0.0671
 3961POPC   C4B48060  25.673  14.224   6.205  0.3705  0.1006 -0.2357
 3962POPC   NC348061  26.937  12.375   7.808  0.1313  0.0376  0.2165
 3962POPC   PO448062  26.951  11.994   7.848 -0.0102  0.2869 -0.0613
 3962POPC   GL148063  26.824  12.140   7.424  0.2622  0.1003  0.5372
 3962POPC   GL248064  27.112  12.164   7.335  0.0250  0.0128 -0.4206
 3962POPC   C1A48065  26.689  12.026   6.957 -0.0267  0.0882  0.1406
 3962POPC   D2A48066  26.405  11.981   6.620  0.4324 -0.0027  0.0124
 3962POPC   C3A48067  25.991  11.940   6.398 -0.1252 -0.1515 -0.1475
 3962POPC   C4A48068  25.739  11.700   6.055 -0.0906  0.0386  0.1306
 3962POPC   C1B48069  27.115  12.241   6.881 -0.1008 -0.1502  0.1587
 3962POPC   C2B48070  27.036  12.082   6.480 -0.2247 -0.1426  0.0511
 3962POPC   C3B48071  26.877  12.239   6.059 -0.0243 -0.0494  0.0684
 3962POPC   C4B48072  26.619  12.385   5.735 -0.0374  0.1681 -0.2767
 3963POPC   NC348073  17.200   7.512   7.995  0.0747 -0.3657 -0.3355
 3963POPC   PO448074  16.876   7.221   8.047 -0.3064  0.1863  0.2244
 3963POPC   GL148075  16.882   7.398   7.677 -0.0897  0.1074 -0.3433
 3963POPC   GL248076  16.860   7.133   7.486  0.0421 -0.0622  0.2640
 3963POPC   C1A48077  16.633   7.602   7.373  0.2224 -0.0099 -0.2776
 3963POPC   D2A48078  16.762   7.779   6.974  0.1552  0.2394  0.2284
 3963POPC   C3A48079  16.956   7.603   6.584 -0.1263  0.0533 -0.1501
 3963POPC   C4A48080  17.214   7.310   6.358 -0.0501  0.1207 -0.0100
 3963POPC   C1B48081  16.818   6.913   7.058  0.2456  0.2515  0.1493
 3963POPC   C2B48082  16.823   7.068   6.573  0.1218  0.0008 -0.0666
 3963POPC   C3B48083  16.692   7.334   6.193  0.2289  0.1690  0.1571
 3963POPC   C4B48084  16.797   7.732   5.970 -0.1886 -0.0353 -0.1545
 3964POPC   NC348085  13.927  24.301   7.961 -0.1691 -0.0335  0.0583
 3964POPC   PO448086  13.712  24.603   8.069  0.1131  0.0663 -0.2001
 3964POPC   GL148087  13.587  24.475   7.745 -0.0523  0.0080 -0.1641
 3964POPC   GL248088  13.744  24.492   7.508 -0.0850  0.0391  0.1087
 3964POPC   C1A48089  13.206  24.329   7.581 -0.3225  0.1578  0.1238
 3964POPC   D2A48090  12.766  24.418   7.376 -0.1011 -0.1959 -0.1595
 3964POPC   C3A48091  12.556  24.286   6.988 -0.1267  0.0608  0.2518
 3964POPC   C4A48092  12.569  23.957   6.628  0.1708 -0.0703  0.0251
 3964POPC   C1B48093  13.864  24.760   7.133 -0.0938 -0.0846 -0.0567
 3964POPC   C2B48094  13.974  24.716   6.699  0.1666  0.1294  0.1393
 3964POPC   C3B48095  14.129  24.872   6.272  0.1427 -0.0989 -0.2184
 3964POPC   C4B48096  14.323  25.106   5.905  0.4504  0.1103 -0.0681
 3965POPC   NC348097  27.936   4.830   7.988 -0.1099 -0.1479 -0.1823
 3965POPC   PO448098  27.895   4.435   7.862  0.0741  0.1208  0.1332
 3965POPC   GL148099  27.575   4.578   7.781 -0.0353 -0.1401 -0.2424
 3965POPC   GL248100  27.612   4.736   7.555  0.1275 -0.0757 -0.1441
 3965POPC   C1A48101  27.104   4.628   7.637 -0.2095  0.2717  0.1843
 3965POPC   D2A48102  26.716   4.630   7.548 -0.0735  0.0640  0.2373
 3965POPC   C3A48103  26.472   4.212   7.679 -0.0401  0.0118  0.0435
 3965POPC   C4A48104  26.644   3.909   8.028  0.1997 -0.0353  0.0607
 3965POPC   C1B48105  27.374   4.555   7.195  0.1690  0.1073  0.1663
 3965POPC   C2B48106  27.461   4.101   7.032  0.1059  0.1337 -0.0892
 3965POPC   C3B48107  27.458   3.728   6.733  0.3438 -0.0847 -0.1357
 3965POPC   C4B48108  27.372   3.635   6.308 -0.0388 -0.2029  0.0791
 3966POPC   NC348109  12.860  26.036   7.902 -0.1383 -0.0905 -0.4715
 3966POPC   PO448110  13.213  25.918   7.864 -0.4861  0.0548  0.0170
 3966POPC   GL148111  13.098  25.731   7.597 -0.3685 -0.1203 -0.0251
 3966POPC   GL248112  12.920  25.740   7.400  0.0549  0.2034 -0.1884
 3966POPC   C1A48113  13.076  25.291   7.430  0.1956 -0.0630 -0.0268
 3966POPC   D2A48114  12.880  24.905   7.301 -0.0939 -0.0463 -0.1562
 3966POPC   C3A48115  12.946  24.788   6.897  0.4553  0.0848  0.2975
 3966POPC   C4A48116  13.143  24.646   6.487 -0.1142  0.0529  0.2256
 3966POPC   C1B48117  13.322  25.662   7.227  0.0273 -0.3594  0.1123
 3966POPC   C2B48118  13.451  25.488   6.856 -0.1908 -0.1106  0.2241
 3966POPC   C3B48119  13.372  25.540   6.378  0.2673 -0.0713  0.2379
 3966POPC   C4B48120  13.053  25.443   6.007  0.0299 -0.0704 -0.2249
 3967POPC   NC348121  22.457  22.504   7.554  0.1566 -0.0568 -0.2453
 3967POPC   PO448122  22.783  22.425   7.386 -0.3302  0.0249  0.1830
 3967POPC   GL148123  23.010  22.465   7.079 -0.3138 -0.0308 -0.0785
 3967POPC   GL248124  22.814  22.457   6.871  0.2040 -0.2637 -0.2621
 3967POPC   C1A48125  23.274  22.636   6.717 -0.1357 -0.2563 -0.0435
 3967POPC   D2A48126  23.506  22.446   6.394 -0.0825 -0.0014 -0.1408
 3967POPC   C3A48127  23.449  22.637   5.925  0.0177  0.2260 -0.0759
 3967POPC   C4A48128  23.541  22.595   5.463 -0.1261  0.1702 -0.1883
 3967POPC   C1B48129  22.561  22.483   6.509 -0.0104 -0.2436 -0.0046
 3967POPC   C2B48130  22.366  22.583   6.137 -0.1464  0.1612  0.1869
 3967POPC   C3B48131  22.437  22.581   5.673  0.1141 -0.1713  0.0022
 3967POPC   C4B48132  22.577  22.364   5.344 -0.1065  0.6476  0.2586
 3968POPC   NC348133  29.222  16.531   7.387 -0.0424 -0.0576  0.1417
 3968POPC   PO448134  29.020  16.853   7.352  0.2228 -0.2510  0.1564
 3968POPC   GL148135  29.078  16.980   6.968 -0.2771 -0.1343 -0.2306
 3968POPC   GL248136  28.918  17.219   6.949 -0.2610 -0.0900  0.1109
 3968POPC   C1A48137  29.076  16.849   6.517 -0.2483  0.0295 -0.2415
 3968POPC   D2A48138  29.271  16.741   6.155 -0.1387  0.2324 -0.5784
 3968POPC   C3A48139  29.095  16.460   5.831 -0.0544  0.1239 -0.2761
 3968POPC   C4A48140  28.978  16.317   5.396 -0.3865 -0.0959  0.2381
 3968POPC   C1B48141  28.924  17.313   6.530 -0.0104 -0.3592 -0.9764
 3968POPC   C2B48142  28.623  17.365   6.224 -0.0372  0.1528  0.3663
 3968POPC   C3B48143  28.599  17.297   5.802 -0.0820  0.0520  0.0264
 3968POPC   C4B48144  28.505  17.217   5.309 -0.0735  0.4787 -0.1284
 3969POPC   NC348145  19.104  27.342   7.999 -0.3080  0.0223  0.0277
 3969POPC   PO448146  19.051  26.974   7.854  0.0355  0.0699 -0.1287
 3969POPC   GL148147  19.207  26.596   7.578  0.2461 -0.1572 -0.1932
 3969POPC   GL248148  19.218  26.834   7.416 -0.3119 -0.0123  0.3178
 3969POPC   C1A48149  19.423  26.367   7.237  0.1719 -0.1077  0.1481
 3969POPC   D2A48150  19.806  26.161   7.176 -0.1453 -0.0442 -0.1921
 3969POPC   C3A48151  19.548  26.047   6.777  0.1969 -0.2449 -0.0460
 3969POPC   C4A48152  19.639  25.815   6.382 -0.0327 -0.0144 -0.2777
 3969POPC   C1B48153  19.238  26.734   6.938  0.0802  0.2525 -0.0390
 3969POPC   C2B48154  19.307  26.855   6.523  0.2058 -0.0274 -0.0327
 3969POPC   C3B48155  19.281  27.151   6.201 -0.0557 -0.0226  0.1472
 3969POPC   C4B48156  19.268  27.530   5.950  0.2660 -0.3817 -0.2813
 3970POPC   NC348157  31.480  25.654   7.436 -0.2314 -0.1728  0.0197
 3970POPC   PO448158  31.727  25.595   7.726  0.2833 -0.0488  0.3379
 3970POPC   GL148159  31.955  25.666   7.358 -0.0178  0.1133  0.2927
 3970POPC   GL248160  31.989  25.459   7.310 -0.0289 -0.0816  0.1134
 3970POPC   C1A48161  32.217  25.902   7.056  0.3489 -0.2381  0.1263
 3970POPC   D2A48162  32.418  25.899   6.637  0.1030 -0.1888  0.1569
 3970POPC   C3A48163  32.554  25.918   6.230 -0.0718  0.1438  0.1328
 3970POPC   C4A48164  32.855  25.977   5.834 -0.0110 -0.2535  0.0596
 3970POPC   C1B48165  31.751  25.650   6.958  0.0368 -0.1106 -0.3577
 3970POPC   C2B48166  31.592  25.640   6.560  0.4167 -0.0544 -0.0730
 3970POPC   C3B48167  31.634  25.371   6.196 -0.0970 -0.2098 -0.0655
 3970POPC   C4B48168  31.701  25.251   5.778  0.0882 -0.4159  0.0211
 3971POPC   NC348169  21.936   0.671   7.323 -0.2810 -0.3089 -0.0941
 3971POPC   PO448170  21.715   0.423   7.576 -0.0075 -0.0036  0.2049
 3971POPC   GL148171  21.556   0.393   7.270 -0.2454  0.0099  0.0713
 3971POPC   GL248172  21.699   0.350   6.973  0.0415 -0.1036 -0.1025
 3971POPC   C1A48173  21.207   0.222   7.018  0.0060  0.0507 -0.1162
 3971POPC   D2A48174  21.198   0.012   6.606 -0.0104 -0.1292  0.2688
 3971POPC   C3A48175  21.380   0.110   6.203 -0.0284 -0.0150  0.0374
 3971POPC   C4A48176  21.460   0.130   5.716 -0.0883 -0.2948  0.2956
 3971POPC   C1B48177  21.710   0.228   6.566  0.1357 -0.1004 -0.0571
 3971POPC   C2B48178  21.853   0.196   6.145  0.2103 -0.2180 -0.0862
 3971POPC   C3B48179  22.032  -0.028   5.769 -0.0150 -0.5265  0.0528
 3971POPC   C4B48180  22.217  -0.307   5.475  0.3618  0.2103 -0.0876
 3972POPC   NC348181  14.638   3.551   7.743 -0.1245  0.2732  0.0645
 3972POPC   PO448182  14.296   3.422   7.905 -0.1163  0.0840 -0.1772
 3972POPC   GL148183  14.226   3.699   7.604 -0.1436  0.1278  0.1812
 3972POPC   GL248184  14.036   3.597   7.448  0.0415 -0.2817  0.1075
 3972POPC   C1A48185  14.400   3.654   7.147 -0.3086 -0.5432  0.1883
 3972POPC   D2A48186  14.686   3.605   6.749  0.1084 -0.1661 -0.0375
 3972POPC   C3A48187  14.622   3.658   6.279  0.3845 -0.0813  0.0118
 3972POPC   C4A48188  14.325   3.473   5.944 -0.1047 -0.2403  0.1367
 3972POPC   C1B48189  13.859   3.665   7.036  0.0171  0.2659  0.1682
 3972POPC   C2B48190  13.797   3.784   6.613  0.0678  0.2234  0.2017
 3972POPC   C3B48191  13.442   3.975   6.501  0.2174  0.2873  0.1295
 3972POPC   C4B48192  13.004   4.048   6.455  0.1932  0.2174  0.4318
 3973POPC   NC348193  16.507   4.220   7.404  0.0664  0.1558  0.2202
 3973POPC   PO448194  16.152   4.331   7.299 -0.0873 -0.1857  0.1726
 3973POPC   GL148195  16.051   4.462   6.956 -0.2079  0.2448  0.0002
 3973POPC   GL248196  16.018   4.130   6.804  0.1532 -0.2539  0.2982
 3973POPC   C1A48197  15.841   4.585   6.577 -0.1337 -0.4459 -0.0068
 3973POPC   D2A48198  15.454   4.716   6.457 -0.1925 -0.1016  0.3192
 3973POPC   C3A48199  15.568   5.159   6.314  0.0531  0.1544 -0.1162
 3973POPC   C4A48200  15.628   5.355   5.850  0.1042  0.1063 -0.1897
 3973POPC   C1B48201  15.891   4.025   6.383  0.0559  0.1386  0.1322
 3973POPC   C2B48202  15.835   3.944   5.931 -0.1156 -0.4017 -0.3220
 3973POPC   C3B48203  16.166   3.713   5.665 -0.1504 -0.0684  0.0069
 3973POPC   C4B48204  16.577   3.507   5.445  0.2653 -0.4918 -0.0590
 3974POPC   NC348205  29.431   4.759   7.732  0.1136 -0.3999 -0.1046
 3974POPC   PO448206  29.252   5.070   7.546 -0.1312  0.2359  0.1263
 3974POPC   GL148207  29.211   5.037   7.091  0.3431  0.0394 -0.0813
 3974POPC   GL248208  28.949   4.983   6.947 -0.1537 -0.0517 -0.0031
 3974POPC   C1A48209  29.400   4.866   6.687 -0.0023  0.0852  0.0747
 3974POPC   D2A48210  29.499   4.755   6.238  0.0085 -0.1924 -0.1310
 3974POPC   C3A48211  29.305   4.744   5.802  0.1049 -0.0681 -0.1097
 3974POPC   C4A48212  29.336   4.828   5.321 -0.1130  0.0160  0.3035
 3974POPC   C1B48213  28.707   5.191   6.544 -0.2033  0.3231 -0.0209
 3974POPC   C2B48214  28.627   5.259   6.120  0.3002  0.0457 -0.0381
 3974POPC   C3B48215  28.602   5.380   5.673 -0.2456 -0.2083  0.1320
 3974POPC   C4B48216  28.529   5.294   5.178  0.2354 -0.0548 -0.1379
 3975POPC   NC348217   8.279  23.122   8.289 -0.0568  0.0115  0.1740
 3975POPC   PO448218   8.367  23.349   7.946  0.0787 -0.2083  0.1317
 3975POPC   GL148219   8.593  23.290   7.635 -0.2456  0.1373 -0.2758
 3975POPC   GL248220   8.890  23.278   7.634  0.3743  0.0123 -0.0344
 3975POPC   C1A48221   8.645  23.475   7.204  0.0093  0.0371  0.1274
 3975POPC   D2A48222   8.973  23.638   6.887  0.1542 -0.0479  0.3597
 3975POPC   C3A48223   8.821  23.868   6.501  0.0928 -0.0483  0.2204
 3975POPC   C4A48224   8.465  24.184   6.377 -0.2873 -0.0545 -0.2689
 3975POPC   C1B48225   9.145  23.188   7.227  0.4239 -0.0265  0.3111
 3975POPC   C2B48226   9.205  23.112   6.761 -0.0140  0.0412  0.0581
 3975POPC   C3B48227   8.975  22.969   6.415  0.0134 -0.3018  0.1612
 3975POPC   C4B48228   8.800  22.964   5.975  0.4290  0.0990  0.1570
 3976POPC   NC348229  14.798  26.990   7.883  0.2371 -0.0594 -0.1176
 3976POPC   PO448230  14.930  27.221   7.565 -0.4233 -0.1112 -0.0820
 3976POPC   GL148231  15.105  27.167   7.223 -0.0781 -0.1312 -0.1925
 3976POPC   GL248232  15.072  27.535   7.208 -0.3015  0.0013  0.2491
 3976POPC   C1A48233  15.051  27.156   6.782  0.1883 -0.0286 -0.1428
 3976POPC   D2A48234  14.965  27.314   6.322  0.0782 -0.2390 -0.0750
 3976POPC   C3A48235  14.748  27.273   5.891  0.0640  0.2007  0.3220
 3976POPC   C4A48236  14.382  27.395   5.631  0.1006 -0.2280  0.0444
 3976POPC   C1B48237  15.009  27.801   6.824 -0.0417  0.2676 -0.1587
 3976POPC   C2B48238  14.778  27.805   6.421  0.1115 -0.0642  0.2116
 3976POPC   C3B48239  14.884  27.749   5.943  0.1673  0.1430 -0.1443
 3976POPC   C4B48240  14.537  27.894   5.677  0.1423 -0.0724 -0.1565
 3977POPC   NC348241  18.552   1.944   7.914 -0.0067  0.0908  0.2617
 3977POPC   PO448242  18.217   2.037   7.762  0.3428  0.0304  0.1411
 3977POPC   GL148243  18.013   2.144   7.390 -0.2350  0.2693  0.2206
 3977POPC   GL248244  18.101   1.821   7.261 -0.3412 -0.0741 -0.0997
 3977POPC   C1A48245  17.677   2.378   7.228  0.2909 -0.3277  0.2822
 3977POPC   D2A48246  17.414   2.745   7.091 -0.0426  0.2223  0.0912
 3977POPC   C3A48247  17.299   2.791   6.657  0.2854  0.0180  0.0272
 3977POPC   C4A48248  17.383   2.984   6.269  0.1506  0.1774 -0.2332
 3977POPC   C1B48249  18.042   2.109   6.895 -0.1073  0.0498 -0.2948
 3977POPC   C2B48250  18.224   2.183   6.542 -0.1477  0.2761 -0.0236
 3977POPC   C3B48251  18.196   2.431   6.083 -0.0601 -0.2704 -0.2224
 3977POPC   C4B48252  18.491   2.559   5.787  0.0504  0.0551 -0.1886
 3978POPC   NC348253  22.990  10.402   7.424  0.0289 -0.0996  0.0675
 3978POPC   PO448254  23.322  10.242   7.470  0.2744 -0.1004 -0.1430
 3978POPC   GL148255  23.198  10.158   7.077 -0.1761  0.1707 -0.0463
 3978POPC   GL248256  22.885  10.187   6.997 -0.1421  0.0291 -0.2464
 3978POPC   C1A48257  23.392  10.057   6.698 -0.1324  0.2554 -0.0618
 3978POPC   D2A48258  23.594  10.086   6.255 -0.1933 -0.2366  0.0855
 3978POPC   C3A48259  23.213  10.263   6.051  0.0441 -0.0375 -0.1815
 3978POPC   C4A48260  22.803  10.520   5.962 -0.2156 -0.1116  0.2629
 3978POPC   C1B48261  22.563  10.391   6.780 -0.0204 -0.2718  0.1823
 3978POPC   C2B48262  22.226  10.072   6.722 -0.1203 -0.2314 -0.1665
 3978POPC   C3B48263  22.077   9.692   6.523  0.0178  0.0612 -0.0798
 3978POPC   C4B48264  21.880   9.370   6.326  0.0933 -0.1095 -0.4619
 3979POPC   NC348265  27.931  15.762   7.606 -0.0251 -0.2543  0.1517
 3979POPC   PO448266  27.961  15.468   7.824  0.2817 -0.0749 -0.3997
 3979POPC   GL148267  28.259  15.233   7.539  0.2892  0.1353 -0.0796
 3979POPC   GL248268  28.090  15.212   7.330  0.1149 -0.2876 -0.1426
 3979POPC   C1A48269  28.558  14.951   7.337  0.1079  0.1795  0.1290
 3979POPC   D2A48270  28.521  14.571   7.087  0.2037  0.1323 -0.1273
 3979POPC   C3A48271  28.505  14.652   6.687  0.0628 -0.0507  0.2365
 3979POPC   C4A48272  28.473  14.587   6.223  0.0903  0.3212  0.1741
 3979POPC   C1B48273  27.845  15.324   6.938  0.1498  0.1089  0.3128
 3979POPC   C2B48274  27.931  15.341   6.507 -0.1959  0.3854  0.0030
 3979POPC   C3B48275  27.817  15.463   6.043 -0.0206 -0.0527 -0.0784
 3979POPC   C4B48276  27.852  15.137   5.642  0.3184  0.0984 -0.1071
 3980POPC   NC348277   8.916   7.690   7.537  0.0061  0.0454  0.0890
 3980POPC   PO448278   9.222   7.787   7.699 -0.0206  0.1223 -0.0325
 3980POPC   GL148279   9.387   7.967   7.366  0.4765 -0.1324 -0.0503
 3980POPC   GL248280   9.582   8.130   7.516 -0.1694 -0.1344 -0.4282
 3980POPC   C1A48281   9.585   8.045   6.982  0.2251  0.3327 -0.3751
 3980POPC   D2A48282   9.857   8.160   6.683 -0.1831 -0.3024 -0.0783
 3980POPC   C3A48283   9.665   7.937   6.404  0.1146  0.0225  0.2983
 3980POPC   C4A48284   9.777   7.515   6.193 -0.2483 -0.1886 -0.0448
 3980POPC   C1B48285   9.898   8.374   7.258 -0.0176 -0.1349  0.0416
 3980POPC   C2B48286  10.069   8.565   6.856  0.1386  0.1543  0.1525
 3980POPC   C3B48287  10.176   8.451   6.422  0.1396  0.1534  0.3506
 3980POPC   C4B48288  10.317   8.478   5.955 -0.0189 -0.3705 -0.2482
 3981POPC   NC348289  22.142  11.072   7.832 -0.0081 -0.2453  0.0447
 3981POPC   PO448290  22.347  10.796   7.635 -0.1555 -0.0023  0.1199
 3981POPC   GL148291  22.387  10.799   7.222 -0.0025 -0.2313  0.0537
 3981POPC   GL248292  22.136  10.878   7.201  0.2423 -0.2649  0.1973
 3981POPC   C1A48293  22.347  10.802   6.794 -0.0311  0.1737  0.0227
 3981POPC   D2A48294  22.563  10.680   6.391 -0.2291  0.1338  0.0448
 3981POPC   C3A48295  22.690  11.029   6.065  0.2595 -0.0937 -0.1621
 3981POPC   C4A48296  23.039  11.233   5.816 -0.1091 -0.2108 -0.2489
 3981POPC   C1B48297  22.044  11.221   6.949 -0.1685  0.3082 -0.0575
 3981POPC   C2B48298  22.015  11.195   6.479  0.1797  0.4492  0.0137
 3981POPC   C3B48299  21.910  10.958   6.106 -0.3205 -0.1591 -0.0427
 3981POPC   C4B48300  22.308  10.877   5.776  0.1279  0.2563 -0.0924
 3982POPC   NC348301   3.274   7.252   7.933  0.3347  0.0260  0.1668
 3982POPC   PO448302   3.368   7.597   8.025 -0.2275 -0.1420  0.2497
 3982POPC   GL148303   3.463   7.705   7.677 -0.4817 -0.2019 -0.3172
 3982POPC   GL248304   3.723   7.851   7.741  0.1185 -0.1782  0.2498
 3982POPC   C1A48305   3.418   7.760   7.241 -0.0826 -0.1289 -0.0852
 3982POPC   D2A48306   3.544   7.685   6.804 -0.0471  0.0945 -0.0638
 3982POPC   C3A48307   3.490   7.849   6.418 -0.2416 -0.1355  0.0344
 3982POPC   C4A48308   3.512   7.959   6.008 -0.0191  0.0231 -0.1980
 3982POPC   C1B48309   3.959   7.767   7.342  0.0090  0.2843 -0.3031
 3982POPC   C2B48310   4.114   7.670   6.898  0.1783 -0.0714  0.0154
 3982POPC   C3B48311   4.389   7.540   6.581  0.0291 -0.2113 -0.0322
 3982POPC   C4B48312   4.334   7.374   6.153 -0.1844 -0.1098  0.1082
 3983POPC   NC348313   3.094  22.468   7.930  0.1282  0.1239 -0.3422
 3983POPC   PO448314   3.392  22.206   7.873 -0.0879  0.2450 -0.0845
 3983POPC   GL148315   3.451  22.353   7.517  0.1007  0.0247 -0.0281
 3983POPC   GL248316   3.489  22.641   7.669 -0.2330 -0.0714 -0.1547
 3983POPC   C1A48317   3.289  22.173   7.118  0.0215 -0.2685 -0.2268
 3983POPC   D2A48318   3.153  21.838   6.812 -0.0489 -0.0058 -0.0829
 3983POPC   C3A48319   3.198  22.131   6.465  0.3232  0.0716 -0.2344
 3983POPC   C4A48320   3.316  22.158   6.028 -0.1747  0.3437 -0.1646
 3983POPC   C1B48321   3.565  22.687   7.184 -0.1790  0.0001  0.1043
 3983POPC   C2B48322   3.876  22.858   6.917  0.1742  0.3794  0.2019
 3983POPC   C3B48323   3.993  23.245   6.717 -0.2386 -0.1036 -0.1356
 3983POPC   C4B48324   4.389  23.427   6.501 -0.1242  0.0506  0.0921
 3984POPC   NC348325  12.432  18.841   7.176  0.2168 -0.0592  0.0510
 3984POPC   PO448326  12.214  18.857   7.521  0.0551 -0.0204 -0.1375
 3984POPC   GL148327  11.928  18.980   7.119 -0.0761  0.0681 -0.0204
 3984POPC   GL248328  11.799  19.204   6.932 -0.0308  0.1332 -0.2818
 3984POPC   C1A48329  11.715  18.783   6.749  0.0786 -0.0200  0.1591
 3984POPC   D2A48330  11.752  18.737   6.264 -0.1612 -0.2324 -0.0452
 3984POPC   C3A48331  11.466  18.997   5.982  0.6255  0.0549  0.0110
 3984POPC   C4A48332  11.221  19.093   5.560 -0.0268  0.1571 -0.0865
 3984POPC   C1B48333  11.671  19.244   6.458 -0.2148  0.2065  0.2055
 3984POPC   C2B48334  11.808  19.410   6.016 -0.0559  0.0284 -0.0149
 3984POPC   C3B48335  12.140  19.419   5.689  0.3122  0.3195 -0.1100
 3984POPC   C4B48336  12.472  19.718   5.530  0.1661 -0.0247  0.0853
 3985POPC   NC348337   1.131   6.144   7.689  0.0075  0.1811  0.2072
 3985POPC   PO448338   1.441   6.095   7.930 -0.0407 -0.2650  0.1162
 3985POPC   GL148339   1.572   5.758   7.645 -0.1990  0.0643  0.0147
 3985POPC   GL248340   1.456   5.870   7.402 -0.0945 -0.0111  0.0355
 3985POPC   C1A48341   1.711   5.364   7.412 -0.4287 -0.0088 -0.3856
 3985POPC   D2A48342   1.526   4.931   7.264 -0.3312 -0.0932  0.2982
 3985POPC   C3A48343   1.526   4.785   6.834 -0.1691  0.0528  0.0896
 3985POPC   C4A48344   1.374   4.714   6.385  0.1811  0.0952 -0.0810
 3985POPC   C1B48345   1.479   6.258   7.132 -0.2170  0.3529 -0.1032
 3985POPC   C2B48346   1.158   6.217   6.775  0.0272  0.2318  0.1662
 3985POPC   C3B48347   1.189   6.151   6.331 -0.2154  0.3063  0.2587
 3985POPC   C4B48348   1.234   6.429   5.977 -0.2119 -0.2103 -0.2801
 3986POPC   NC348349  10.827  24.290   8.145 -0.1167  0.3435  0.0199
 3986POPC   PO448350  10.491  24.178   7.948 -0.0906  0.0301 -0.0068
 3986POPC   GL148351  10.561  24.180   7.551 -0.1843  0.2229  0.3217
 3986POPC   GL248352  10.520  23.897   7.424  0.0634  0.0377 -0.0907
 3986POPC   C1A48353  10.345  24.330   7.156  0.1507  0.1320 -0.1833
 3986POPC   D2A48354  10.502  24.384   6.718  0.1937  0.0376 -0.1055
 3986POPC   C3A48355  10.797  24.587   6.472 -0.1212  0.0422 -0.0157
 3986POPC   C4A48356  11.136  24.522   6.192 -0.0188  0.3809 -0.2206
 3986POPC   C1B48357  10.485  23.658   7.038  0.3314 -0.1903 -0.0609
 3986POPC   C2B48358  10.419  23.909   6.611  0.1083  0.1399 -0.1473
 3986POPC   C3B48359  10.482  23.800   6.139 -0.0773  0.3607 -0.2025
 3986POPC   C4B48360  10.816  23.862   5.824  0.0441 -0.1138 -0.0580
 3987POPC   NC348361   5.293   4.472   7.815 -0.0460 -0.0529 -0.0198
 3987POPC   PO448362   4.916   4.434   7.691 -0.0435 -0.2106  0.0743
 3987POPC   GL148363   4.900   4.500   7.314 -0.1561  0.1920 -0.1339
 3987POPC   GL248364   4.991   4.266   7.153 -0.0115  0.1276 -0.3624
 3987POPC   C1A48365   4.664   4.629   6.997  0.2779  0.0235 -0.3165
 3987POPC   D2A48366   4.459   4.415   6.582  0.2439 -0.0004  0.0574
 3987POPC   C3A48367   4.259   4.284   6.209 -0.1063 -0.2317 -0.2675
 3987POPC   C4A48368   4.254   4.126   5.774 -0.0437  0.3248  0.2086
 3987POPC   C1B48369   4.910   4.285   6.693 -0.1651  0.1557 -0.0114
 3987POPC   C2B48370   4.949   4.477   6.304  0.3035 -0.0558  0.1716
 3987POPC   C3B48371   4.759   4.468   5.886  0.1000 -0.3333 -0.0241
 3987POPC   C4B48372   4.797   4.703   5.539 -0.0379 -0.3338 -0.0761
 3988POPC   NC348373   8.552  22.667   7.848  0.0387 -0.3851 -0.0212
 3988POPC   PO448374   8.191  22.806   7.950 -0.2256 -0.0132 -0.0196
 3988POPC   GL148375   8.255  22.930   7.608 -0.4210  0.1346 -0.2680
 3988POPC   GL248376   8.236  23.150   7.401 -0.2439  0.0637 -0.1871
 3988POPC   C1A48377   8.649  22.933   7.384  0.3036  0.0622  0.1396
 3988POPC   D2A48378   8.749  23.007   6.953 -0.1770  0.0827 -0.0738
 3988POPC   C3A48379   8.663  23.306   6.636  0.2325 -0.1835 -0.0893
 3988POPC   C4A48380   8.770  23.489   6.175 -0.2587 -0.2318 -0.0216
 3988POPC   C1B48381   8.287  23.102   6.986  0.4285  0.2663 -0.1480
 3988POPC   C2B48382   8.247  22.700   6.733  0.1887  0.0210  0.2494
 3988POPC   C3B48383   8.152  22.566   6.245  0.0574  0.4452 -0.0260
 3988POPC   C4B48384   7.718  22.505   6.013 -0.1554 -0.2619 -0.1187
 3989POPC   NC348385  18.044  26.492   8.105  0.0424  0.0352  0.1738
 3989POPC   PO448386  18.271  26.437   7.790 -0.0496  0.1466 -0.2200
 3989POPC   GL148387  18.226  26.302   7.450  0.0130  0.2228 -0.0609
 3989POPC   GL248388  18.324  26.591   7.329 -0.0880 -0.1386  0.0335
 3989POPC   C1A48389  18.384  26.121   7.027  0.2196  0.0432  0.1145
 3989POPC   D2A48390  18.437  25.835   6.665 -0.0630 -0.0899  0.0107
 3989POPC   C3A48391  18.698  26.028   6.346  0.1228 -0.1208  0.1328
 3989POPC   C4A48392  19.034  26.253   6.071  0.1034  0.2098 -0.0507
 3989POPC   C1B48393  18.470  26.614   6.932 -0.1600  0.1359  0.3170
 3989POPC   C2B48394  18.694  26.640   6.510 -0.0892  0.1253 -0.0630
 3989POPC   C3B48395  18.512  26.551   6.073  0.1508 -0.0992 -0.0777
 3989POPC   C4B48396  18.547  26.868   5.697  0.4230  0.0907  0.0962
 3990POPC   NC348397  19.418  28.015   7.878 -0.1246 -0.0744  0.1751
 3990POPC   PO448398  19.332  27.748   8.153 -0.3196  0.0811 -0.0664
 3990POPC   GL148399  19.393  27.599   7.709  0.1731 -0.1596  0.2281
 3990POPC   GL248400  19.694  27.598   7.738 -0.2176  0.1544  0.1223
 3990POPC   C1A48401  19.552  27.941   7.377 -0.0806  0.2124 -0.2104
 3990POPC   D2A48402  19.872  28.119   7.064 -0.1226 -0.2874 -0.0252
 3990POPC   C3A48403  19.756  28.050   6.622 -0.2432  0.0329  0.2416
 3990POPC   C4A48404  19.386  27.891   6.362  0.2219  0.1583  0.0084
 3990POPC   C1B48405  19.533  27.425   7.330  0.0923 -0.1403 -0.2353
 3990POPC   C2B48406  19.662  27.678   6.912 -0.0643 -0.2176 -0.1644
 3990POPC   C3B48407  19.892  27.523   6.522  0.1260 -0.1670  0.1379
 3990POPC   C4B48408  19.731  27.327   6.084 -0.3358 -0.3297 -0.1557
 3991POPC   NC348409   8.374  16.323   7.946 -0.1873  0.1905 -0.1405
 3991POPC   PO448410   8.197  16.690   7.891  0.0502  0.1365  0.2188
 3991POPC   GL148411   8.228  16.471   7.485 -0.0452 -0.0712  0.3997
 3991POPC   GL248412   8.285  16.725   7.362  0.2315 -0.0169 -0.0120
 3991POPC   C1A48413   8.123  16.387   7.059 -0.1933  0.1821  0.2143
 3991POPC   D2A48414   8.103  16.564   6.584 -0.1828 -0.2563  0.0454
 3991POPC   C3A48415   7.738  16.335   6.450  0.2873 -0.2763 -0.0856
 3991POPC   C4A48416   7.363  16.327   6.163 -0.0456 -0.2667  0.1735
 3991POPC   C1B48417   8.114  16.936   6.947  0.0200  0.0586 -0.1400
 3991POPC   C2B48418   7.902  17.021   6.476 -0.2383 -0.1848 -0.0712
 3991POPC   C3B48419   7.773  16.746   6.132 -0.3771  0.0947  0.1868
 3991POPC   C4B48420   7.560  16.552   5.771 -0.0937 -0.3529 -0.1723
 3992POPC   NC348421  16.881  12.947   7.858  0.0241 -0.1263 -0.0112
 3992POPC   PO448422  17.139  13.247   7.833 -0.1519 -0.1330  0.0676
 3992POPC   GL148423  17.084  13.085   7.436 -0.1263 -0.0075  0.3610
 3992POPC   GL248424  16.871  13.232   7.332 -0.0812  0.0422  0.2190
 3992POPC   C1A48425  17.238  12.993   7.010  0.0319 -0.1404  0.0493
 3992POPC   D2A48426  17.698  13.102   6.839  0.0608 -0.0901  0.2125
 3992POPC   C3A48427  17.705  12.996   6.306  0.0866  0.5148 -0.1930
 3992POPC   C4A48428  17.570  13.011   5.915 -0.0431  0.1399 -0.2306
 3992POPC   C1B48429  16.923  13.341   6.875 -0.0429  0.3236  0.2010
 3992POPC   C2B48430  16.898  13.628   6.540 -0.1859 -0.0144 -0.0373
 3992POPC   C3B48431  16.734  13.565   6.095 -0.1375  0.1272  0.1676
 3992POPC   C4B48432  16.624  13.306   5.712 -0.3448 -0.2716  0.0197
 3993POPC   NC348433   8.624  30.115   7.946  0.2251 -0.0144 -0.0092
 3993POPC   PO448434   8.886  30.387   7.729 -0.0393 -0.2838 -0.0629
 3993POPC   GL148435   9.009  30.401   7.339  0.3754  0.0848 -0.1165
 3993POPC   GL248436   9.289  30.419   7.395 -0.1054  0.0432  0.0465
 3993POPC   C1A48437   8.912  30.550   6.947  0.1830  0.1045 -0.2783
 3993POPC   D2A48438   8.661  30.898   6.702  0.0908 -0.0293 -0.1044
 3993POPC   C3A48439   8.486  31.169   6.302 -0.3760 -0.0949  0.1562
 3993POPC   C4A48440   8.732  31.369   5.900  0.1624 -0.0467 -0.0031
 3993POPC   C1B48441   9.345  30.138   6.967  0.2720 -0.1558  0.1110
 3993POPC   C2B48442   9.268  29.836   6.576 -0.4021 -0.1167  0.2082
 3993POPC   C3B48443   9.268  29.473   6.297 -0.1599 -0.2680 -0.1459
 3993POPC   C4B48444   9.364  29.083   6.156 -0.1181  0.2259  0.3749
 3994POPC   NC348445  11.927   1.008   7.536  0.0824  0.0396  0.0473
 3994POPC   PO448446  11.675   1.074   7.806 -0.1050  0.1182  0.2790
 3994POPC   GL148447  11.488   1.212   7.455 -0.1197  0.2705 -0.1048
 3994POPC   GL248448  11.265   1.347   7.348 -0.2275  0.0075 -0.1044
 3994POPC   C1A48449  11.538   1.073   7.009  0.2448  0.0160  0.4177
 3994POPC   D2A48450  11.427   1.016   6.583  0.1565 -0.1200  0.1868
 3994POPC   C3A48451  11.087   1.068   6.241 -0.0521 -0.0906 -0.0835
 3994POPC   C4A48452  10.806   0.980   5.862  0.0340 -0.1236 -0.0003
 3994POPC   C1B48453  11.399   1.565   6.961  0.2597  0.0441 -0.1844
 3994POPC   C2B48454  11.534   1.485   6.572 -0.2109 -0.1654  0.0086
 3994POPC   C3B48455  11.293   1.598   6.200  0.1573  0.2929 -0.4541
 3994POPC   C4B48456  11.201   1.848   5.848 -0.0367  0.2030  0.2922
 3995POPC   NC348457  21.409  11.653   7.907  0.1898 -0.0888  0.2327
 3995POPC   PO448458  21.674  11.296   7.914  0.0285  0.1202 -0.0609
 3995POPC   GL148459  21.693  11.468   7.563  0.2575  0.0103 -0.0017
 3995POPC   GL248460  21.893  11.251   7.442 -0.2343 -0.0003 -0.4152
 3995POPC   C1A48461  21.718  11.702   7.145  0.3824 -0.1344 -0.1961
 3995POPC   D2A48462  21.893  11.607   6.672  0.0530 -0.0520 -0.2658
 3995POPC   C3A48463  21.738  11.712   6.248 -0.0344 -0.2626  0.0494
 3995POPC   C4A48464  21.675  11.771   5.805  0.1430  0.0819 -0.5406
 3995POPC   C1B48465  21.621  11.083   7.112 -0.1690 -0.0214  0.0550
 3995POPC   C2B48466  21.665  10.937   6.678  0.0090  0.0561 -0.3009
 3995POPC   C3B48467  21.605  10.610   6.374 -0.1309 -0.1407  0.1205
 3995POPC   C4B48468  21.374  10.351   6.086  0.1189  0.0946  0.0829
 3996POPC   NC348469  21.903   3.480   7.807  0.0683 -0.1085  0.0607
 3996POPC   PO448470  22.067   3.223   7.565  0.0991  0.2454 -0.1136
 3996POPC   GL148471  22.197   3.161   7.231 -0.1243  0.0873  0.0967
 3996POPC   GL248472  22.464   3.349   7.267 -0.1571  0.2186  0.3768
 3996POPC   C1A48473  22.337   3.227   6.743  0.0917 -0.0992  0.0361
 3996POPC   D2A48474  22.683   3.324   6.415  0.1361 -0.1753 -0.0216
 3996POPC   C3A48475  22.585   3.070   6.044 -0.1331  0.1148 -0.0862
 3996POPC   C4A48476  22.399   2.992   5.634 -0.1305 -0.1283 -0.0091
 3996POPC   C1B48477  22.792   3.146   6.975 -0.1473  0.0427 -0.1210
 3996POPC   C2B48478  23.151   3.016   6.658  0.0447  0.1002  0.0491
 3996POPC   C3B48479  23.206   2.811   6.233  0.0804  0.1570  0.0502
 3996POPC   C4B48480  22.993   2.606   5.872  0.0028 -0.0362 -0.1876
 3997POPC   NC348481  13.605  18.765   7.649  0.2901 -0.2757 -0.2014
 3997POPC   PO448482  13.921  19.003   7.672  0.1960  0.0056  0.1332
 3997POPC   GL148483  14.170  18.816   7.367  0.0026  0.0410  0.0792
 3997POPC   GL248484  14.426  19.016   7.313  0.2781  0.0767  0.2041
 3997POPC   C1A48485  14.156  18.405   7.096 -0.0042 -0.2091  0.3315
 3997POPC   D2A48486  13.800  18.272   6.872  0.1370 -0.0574 -0.1994
 3997POPC   C3A48487  13.578  18.296   6.436 -0.0270 -0.1819  0.0092
 3997POPC   C4A48488  13.575  18.509   5.998 -0.0835 -0.1898 -0.1528
 3997POPC   C1B48489  14.427  19.237   6.922  0.0832 -0.0169 -0.0244
 3997POPC   C2B48490  14.524  19.328   6.487 -0.0752 -0.2780  0.1290
 3997POPC   C3B48491  14.298  19.261   6.017 -0.3639 -0.0195  0.0057
 3997POPC   C4B48492  14.331  19.335   5.547 -0.1439 -0.0545  0.1121
 3998POPC   NC348493   9.043   5.724   7.744  0.1825 -0.1274 -0.3060
 3998POPC   PO448494   9.324   5.915   7.543  0.0209  0.0436  0.3201
 3998POPC   GL148495   9.444   5.666   7.295 -0.3167 -0.0591 -0.5530
 3998POPC   GL248496   9.585   5.765   7.101 -0.0161 -0.2417 -0.3538
 3998POPC   C1A48497   9.323   5.414   6.918 -0.0480  0.2195 -0.2568
 3998POPC   D2A48498   9.446   5.118   6.643 -0.3132  0.0458 -0.0320
 3998POPC   C3A48499   9.611   5.211   6.238  0.1421 -0.1538 -0.0743
 3998POPC   C4A48500   9.718   5.110   5.779  0.0216 -0.1302 -0.3198
 3998POPC   C1B48501   9.268   5.900   6.792 -0.2159 -0.2895 -0.0038
 3998POPC   C2B48502   9.193   6.240   6.426 -0.1168 -0.0448  0.0175
 3998POPC   C3B48503   9.405   6.373   6.068 -0.1119  0.0289  0.0361
 3998POPC   C4B48504   9.803   6.657   5.910 -0.0739  0.2260 -0.0127
 3999POPC   NC348505  26.896  14.143   7.617  0.0588 -0.1451  0.3672
 3999POPC   PO448506  27.216  14.263   7.877  0.5389 -0.1426  0.0791
 3999POPC   GL148507  27.204  14.508   7.561 -0.0899  0.1124  0.1433
 3999POPC   GL248508  27.489  14.503   7.453 -0.1776 -0.0789  0.0008
 3999POPC   C1A48509  27.130  14.285   7.155  0.1132  0.0744 -0.0117
 3999POPC   D2A48510  27.149  14.008   6.762  0.1279 -0.1665  0.0286
 3999POPC   C3A48511  27.319  14.044   6.359  0.3783 -0.3313  0.0621
 3999POPC   C4A48512  27.188  13.848   5.957 -0.1534  0.0191  0.1794
 3999POPC   C1B48513  27.507  14.564   7.018 -0.2815  0.0117  0.1056
 3999POPC   C2B48514  27.494  14.501   6.556 -0.0204 -0.0339 -0.3132
 3999POPC   C3B48515  27.255  14.545   6.139  0.2504 -0.1742 -0.0059
 3999POPC   C4B48516  27.001  14.384   5.801 -0.0678 -0.0200  0.0505
 4000POPC   NC348517  29.475  17.676   7.624  0.0223 -0.2370  0.1707
 4000POPC   PO448518  29.689  17.344   7.538 -0.1756 -0.2357 -0.0760
 4000POPC   GL148519  29.598  17.089   7.158  0.0961 -0.2675 -0.0790
 4000POPC   GL248520  29.866  17.048   6.994  0.2610 -0.3367 -0.3236
 4000POPC   C1A48521  29.437  17.093   6.739  0.2552  0.0177 -0.0218
 4000POPC   D2A48522  29.363  17.253   6.278 -0.0336  0.0492 -0.2341
 4000POPC   C3A48523  29.008  17.133   5.975 -0.0653  0.3165  0.2053
 4000POPC   C4A48524  28.841  16.919   5.584  0.1417 -0.2517 -0.2251
 4000POPC   C1B48525  29.891  16.718   6.691  0.1483  0.1384  0.1097
 4000POPC   C2B48526  30.048  16.386   6.388  0.4273  0.0735  0.0473
 4000POPC   C3B48527  30.450  16.246   6.176  0.1022 -0.0598  0.1848
 4000POPC   C4B48528  30.753  16.362   5.835 -0.0746 -0.1120 -0.0969
 4001POPC   NC348529  12.014  26.634   7.851 -0.0867 -0.1537 -0.0070
 4001POPC   PO448530  12.310  26.619   7.569 -0.0156  0.2356  0.1184
 4001POPC   GL148531  12.657  26.487   7.290 -0.0949 -0.2793 -0.4455
 4001POPC   GL248532  12.915  26.476   7.376  0.0401 -0.0016  0.0248
 4001POPC   C1A48533  12.957  26.527   6.901  0.0433  0.0336 -0.2272
 4001POPC   D2A48534  12.810  26.242   6.576  0.0288  0.0103 -0.1416
 4001POPC   C3A48535  12.378  26.264   6.370  0.1206 -0.2283 -0.1112
 4001POPC   C4A48536  12.130  26.685   6.293 -0.2845 -0.1261  0.0278
 4001POPC   C1B48537  12.991  26.093   7.091  0.1360  0.1341 -0.3464
 4001POPC   C2B48538  12.982  25.779   6.759 -0.0756  0.0942 -0.0899
 4001POPC   C3B48539  12.947  25.807   6.315  0.0931  0.0810  0.0007
 4001POPC   C4B48540  12.693  25.769   5.917 -0.0128 -0.1587  0.0668
 4002POPC   NC348541   8.286  12.091   7.863 -0.2172 -0.1529 -0.1520
 4002POPC   PO448542   8.557  12.209   8.119 -0.1659 -0.2534 -0.0812
 4002POPC   GL148543   8.650  12.247   7.685  0.1254 -0.1518  0.3490
 4002POPC   GL248544   8.698  12.619   7.606 -0.1384  0.0401  0.1199
 4002POPC   C1A48545   8.682  12.268   7.214  0.2601 -0.0384 -0.2985
 4002POPC   D2A48546   8.792  12.449   6.809 -0.2636  0.3429  0.3070
 4002POPC   C3A48547   9.172  12.392   6.538  0.1393 -0.3690 -0.0245
 4002POPC   C4A48548   9.290  12.227   6.125 -0.3160 -0.0736 -0.0704
 4002POPC   C1B48549   8.690  12.843   7.158 -0.2988 -0.0638  0.0344
 4002POPC   C2B48550   8.683  13.063   6.763 -0.2401  0.2695 -0.0124
 4002POPC   C3B48551   8.849  13.325   6.412 -0.1467  0.3206  0.0252
 4002POPC   C4B48552   9.170  13.617   6.330  0.2009  0.0109 -0.1816
 4003POPC   NC348553  18.586  25.349   8.485 -0.4128 -0.0635  0.2120
 4003POPC   PO448554  18.695  25.550   8.161 -0.0955 -0.0942  0.0958
 4003POPC   GL148555  18.745  25.141   8.013 -0.3117 -0.0078  0.1051
 4003POPC   GL248556  18.749  24.864   8.144 -0.1210 -0.0039  0.1434
 4003POPC   C1A48557  19.032  25.030   7.564 -0.1268 -0.1115  0.0025
 4003POPC   D2A48558  19.418  25.205   7.431 -0.1487 -0.2690  0.1012
 4003POPC   C3A48559  19.459  24.897   7.046  0.2277 -0.1258 -0.1665
 4003POPC   C4A48560  19.386  24.682   6.648  0.3633 -0.0159 -0.2995
 4003POPC   C1B48561  19.155  24.736   7.999  0.0306  0.3238 -0.3664
 4003POPC   C2B48562  19.546  24.594   7.823  0.0055 -0.1056 -0.1384
 4003POPC   C3B48563  19.735  24.804   7.463  0.0267 -0.0147 -0.0906
 4003POPC   C4B48564  19.994  25.187   7.519  0.0142  0.0225 -0.1673
 4004POPC   NC348565   7.371   6.776   7.683 -0.0180  0.0271  0.1975
 4004POPC   PO448566   7.496   6.377   7.611 -0.2660 -0.2763 -0.0551
 4004POPC   GL148567   7.344   6.442   7.237  0.1474  0.0726  0.0798
 4004POPC   GL248568   7.098   6.644   7.253  0.1073 -0.0149 -0.4435
 4004POPC   C1A48569   7.160   6.319   6.841 -0.3820  0.1511  0.0836
 4004POPC   D2A48570   6.941   6.405   6.446 -0.2716 -0.1843  0.1064
 4004POPC   C3A48571   6.789   6.106   6.155 -0.0674  0.0583  0.1357
 4004POPC   C4A48572   6.520   6.005   5.773 -0.0285  0.3324 -0.0741
 4004POPC   C1B48573   6.916   6.767   6.854 -0.2415  0.0959 -0.1265
 4004POPC   C2B48574   6.759   7.158   6.631  0.0304 -0.0975 -0.0384
 4004POPC   C3B48575   6.648   7.478   6.341  0.0080  0.1367 -0.2269
 4004POPC   C4B48576   6.537   7.735   5.978  0.3595 -0.2026 -0.0749
 4005POPC   NC348577  25.698  31.181   7.893 -0.0217  0.2343 -0.2047
 4005POPC   PO448578  25.739  31.534   7.696 -0.3531 -0.0766 -0.2024
 4005POPC   GL148579  25.733  31.321   7.411  0.1725  0.0650  0.1423
 4005POPC   GL248580  25.825  31.073   7.314  0.1318  0.0752  0.0637
 4005POPC   C1A48581  25.489  31.255   7.022  0.1491  0.2390 -0.2852
 4005POPC   D2A48582  25.444  31.380   6.584 -0.3831 -0.0779  0.0820
 4005POPC   C3A48583  25.178  31.444   6.221  0.0044  0.0814  0.0648
 4005POPC   C4A48584  25.287  31.433   5.784  0.0487  0.0671  0.0889
 4005POPC   C1B48585  26.112  30.984   6.990 -0.1770 -0.2613 -0.3338
 4005POPC   C2B48586  26.245  30.663   6.644 -0.0202 -0.1179  0.1142
 4005POPC   C3B48587  26.141  30.380   6.296 -0.2285 -0.1136  0.1682
 4005POPC   C4B48588  26.291  30.219   5.873 -0.0533  0.4347  0.0940
 4006POPC   NC348589  10.871   2.875   8.141  0.4255 -0.0803  0.1733
 4006POPC   PO448590  10.968   3.188   7.980  0.2640 -0.1079  0.0860
 4006POPC   GL148591  11.099   2.903   7.758  0.1669  0.1640 -0.0478
 4006POPC   GL248592  10.919   2.662   7.668 -0.0303  0.3142  0.1055
 4006POPC   C1A48593  11.184   2.898   7.312 -0.0274  0.1631 -0.1557
 4006POPC   D2A48594  11.009   2.832   6.864  0.1420 -0.0267  0.2125
 4006POPC   C3A48595  10.687   2.543   6.673 -0.0391 -0.0252  0.0216
 4006POPC   C4A48596  10.456   2.398   6.304 -0.1457 -0.2136  0.0909
 4006POPC   C1B48597  10.705   2.741   7.222 -0.0843 -0.2268  0.0103
 4006POPC   C2B48598  10.402   2.922   6.876 -0.0844 -0.0832  0.0840
 4006POPC   C3B48599  10.271   2.944   6.428  0.0869 -0.0370 -0.0355
 4006POPC   C4B48600  10.358   2.852   5.986 -0.0116 -0.1547 -0.0690
 4007POPC   NC348601   6.245  24.700   7.898  0.1601 -0.1237  0.0629
 4007POPC   PO448602   6.194  24.915   7.589 -0.4572  0.1730  0.1436
 4007POPC   GL148603   6.211  24.958   7.185  0.1048 -0.2480  0.1516
 4007POPC   GL248604   6.121  25.225   7.135 -0.1479  0.0462  0.0250
 4007POPC   C1A48605   6.472  25.031   6.784  0.1281 -0.1289  0.0181
 4007POPC   D2A48606   6.414  24.954   6.365  0.1749 -0.1825 -0.5863
 4007POPC   C3A48607   6.298  24.560   6.202 -0.0506  0.3722  0.0403
 4007POPC   C4A48608   6.559  24.258   5.966 -0.1842 -0.2389  0.2837
 4007POPC   C1B48609   6.145  25.321   6.620  0.3540  0.4046  0.1937
 4007POPC   C2B48610   6.475  25.580   6.336  0.3399  0.1208  0.0721
 4007POPC   C3B48611   6.732  25.733   5.962  0.1574 -0.0167  0.2772
 4007POPC   C4B48612   6.890  25.909   5.543 -0.0607  0.1854 -0.0651
 4008POPC   NC348613  24.556  23.424   7.188  0.0079 -0.2926 -0.0021
 4008POPC   PO448614  24.784  23.461   7.502 -0.0911 -0.0670  0.2736
 4008POPC   GL148615  24.744  22.979   7.329  0.0980  0.0326  0.2623
 4008POPC   GL248616  24.502  22.810   7.245 -0.0479  0.0012  0.0418
 4008POPC   C1A48617  24.936  22.603   7.136  0.1889 -0.1990 -0.2901
 4008POPC   D2A48618  25.130  22.230   7.007 -0.3224 -0.2871  0.0516
 4008POPC   C3A48619  25.347  21.918   6.674 -0.2728 -0.0778  0.0168
 4008POPC   C4A48620  25.686  21.632   6.599  0.1666 -0.0799  0.1968
 4008POPC   C1B48621  24.603  23.063   6.859  0.0379 -0.1137 -0.0364
 4008POPC   C2B48622  24.976  23.031   6.554 -0.0305  0.1926 -0.0062
 4008POPC   C3B48623  25.354  23.082   6.359 -0.0784  0.0479  0.1069
 4008POPC   C4B48624  25.433  23.400   6.140 -0.1708 -0.4505  0.0800
 4009POPC   NC348625   4.936  12.012   7.313 -0.1892 -0.2612  0.0094
 4009POPC   PO448626   5.301  12.196   7.267  0.0303 -0.1145  0.2257
 4009POPC   GL148627   5.065  12.437   7.064 -0.0792  0.3059 -0.1341
 4009POPC   GL248628   5.210  12.668   6.995 -0.1419  0.1244  0.0021
 4009POPC   C1A48629   4.607  12.580   7.012 -0.1411  0.2278  0.0063
 4009POPC   D2A48630   4.576  13.023   6.860  0.2189 -0.2701 -0.3105
 4009POPC   C3A48631   4.643  13.332   6.564 -0.0530  0.2980  0.1552
 4009POPC   C4A48632   4.739  13.514   6.180  0.0627  0.0475 -0.0281
 4009POPC   C1B48633   5.102  12.763   6.545 -0.2748  0.1400 -0.0641
 4009POPC   C2B48634   4.953  13.046   6.240  0.2436  0.1393 -0.3170
 4009POPC   C3B48635   4.954  13.163   5.790 -0.0198  0.0326 -0.0182
 4009POPC   C4B48636   5.157  13.391   5.470  0.0765 -0.3305  0.1102
 4010POPC   NC348637   2.689  24.100   8.091  0.0375 -0.0406  0.0550
 4010POPC   PO448638   2.579  23.957   7.711  0.1387 -0.3151  0.0650
 4010POPC   GL148639   2.427  24.167   7.429 -0.1350  0.1702 -0.0715
 4010POPC   GL248640   2.682  24.151   7.239 -0.2285 -0.1656  0.2474
 4010POPC   C1A48641   2.295  24.149   6.997 -0.2019 -0.2135  0.1276
 4010POPC   D2A48642   2.453  24.253   6.568 -0.1411 -0.0202 -0.0116
 4010POPC   C3A48643   2.559  24.234   6.139 -0.1422  0.2502 -0.0136
 4010POPC   C4A48644   2.827  24.062   5.772  0.0455 -0.0491  0.1339
 4010POPC   C1B48645   2.835  24.395   6.891  0.1615 -0.1330 -0.1921
 4010POPC   C2B48646   2.880  24.492   6.427  0.0650 -0.0693 -0.1723
 4010POPC   C3B48647   3.130  24.347   6.023  0.5180 -0.0497 -0.1021
 4010POPC   C4B48648   3.550  24.532   5.852 -0.1769  0.0309  0.0438
 4011POPC   NC348649   4.802  27.938   8.042  0.0115  0.1628 -0.0654
 4011POPC   PO448650   4.736  28.081   7.686  0.0589 -0.1062  0.1872
 4011POPC   GL148651   4.771  28.236   7.309  0.1750  0.2974  0.0559
 4011POPC   GL248652   5.072  28.348   7.338 -0.0607 -0.0081  0.2934
 4011POPC   C1A48653   4.690  28.123   6.832 -0.2471 -0.1859 -0.0901
 4011POPC   D2A48654   4.567  28.023   6.452 -0.1042  0.0518  0.2054
 4011POPC   C3A48655   4.668  27.776   6.063 -0.0046  0.1413  0.0628
 4011POPC   C4A48656   4.655  27.440   5.780 -0.2912 -0.0854  0.2727
 4011POPC   C1B48657   5.107  28.505   6.894  0.0789  0.0824 -0.0586
 4011POPC   C2B48658   4.853  28.599   6.589  0.0084 -0.0918 -0.1375
 4011POPC   C3B48659   4.754  28.778   6.172 -0.0503 -0.1345 -0.4187
 4011POPC   C4B48660   4.645  28.668   5.729  0.0613 -0.2134  0.2391
 4012POPC   NC348661   3.188  11.281   8.174 -0.0327  0.1222  0.1043
 4012POPC   PO448662   3.541  11.154   8.037 -0.1446  0.1096  0.1544
 4012POPC   GL148663   3.400  11.005   7.680  0.1591  0.1800  0.0826
 4012POPC   GL248664   3.096  11.081   7.765 -0.1218 -0.0182 -0.1797
 4012POPC   C1A48665   3.447  11.116   7.208  0.1396  0.1006 -0.1106
 4012POPC   D2A48666   3.295  11.299   6.732 -0.2865 -0.0597  0.3205
 4012POPC   C3A48667   3.327  11.676   6.374 -0.1339  0.1665 -0.3207
 4012POPC   C4A48668   3.535  11.893   5.992  0.1072 -0.1667  0.3233
 4012POPC   C1B48669   2.901  11.047   7.321 -0.0904  0.0965  0.2263
 4012POPC   C2B48670   2.813  11.136   6.808  0.1169  0.2309 -0.0315
 4012POPC   C3B48671   2.896  11.294   6.432  0.1083  0.0391  0.2091
 4012POPC   C4B48672   2.785  11.321   5.991  0.0712  0.0730 -0.1257
 4013POPC   NC348673   5.114  21.849   8.179 -0.1510  0.1392  0.0730
 4013POPC   PO448674   5.078  21.447   8.149 -0.1329  0.0336 -0.4630
 4013POPC   GL148675   5.049  21.397   7.825  0.1530 -0.0630 -0.0874
 4013POPC   GL248676   5.048  21.670   7.724 -0.3902  0.2340  0.2171
 4013POPC   C1A48677   4.696  21.269   7.543 -0.0735  0.0775 -0.1482
 4013POPC   D2A48678   4.270  21.237   7.243  0.1990 -0.0885  0.2239
 4013POPC   C3A48679   4.365  21.230   6.820  0.0891  0.4302  0.2212
 4013POPC   C4A48680   4.360  21.365   6.381 -0.2567 -0.2357  0.0364
 4013POPC   C1B48681   5.184  21.810   7.304 -0.2764 -0.2290 -0.0717
 4013POPC   C2B48682   5.103  21.881   6.859  0.0841 -0.0447 -0.1427
 4013POPC   C3B48683   5.049  22.064   6.455 -0.3975  0.0341 -0.0129
 4013POPC   C4B48684   5.331  22.168   6.073 -0.0824  0.1097 -0.0913
 4014POPC   NC348685  17.816  15.269   8.370  0.1207  0.0003  0.1999
 4014POPC   PO448686  17.527  15.430   8.106  0.1031  0.1822  0.2729
 4014POPC   GL148687  17.464  15.722   7.809 -0.0262  0.1262  0.3891
 4014POPC   GL248688  17.381  15.579   7.570 -0.0999  0.2791 -0.2553
 4014POPC   C1A48689  17.876  15.888   7.627 -0.1860 -0.0053 -0.1276
 4014POPC   D2A48690  17.968  16.213   7.385  0.0175 -0.0344  0.0349
 4014POPC   C3A48691  17.991  16.284   6.947 -0.0537 -0.2333 -0.2611
 4014POPC   C4A48692  18.101  16.014   6.577  0.0987  0.1399 -0.0313
 4014POPC   C1B48693  17.550  15.524   7.130 -0.0292  0.2012 -0.1377
 4014POPC   C2B48694  17.478  15.442   6.671  0.0311  0.0753 -0.1407
 4014POPC   C3B48695  17.648  15.142   6.330 -0.0162 -0.0415 -0.4069
 4014POPC   C4B48696  17.645  14.869   5.975  0.0370  0.1306 -0.1935
 4015POPC   NC348697  15.799  10.578   8.004 -0.2576  0.1968  0.0133
 4015POPC   PO448698  15.582  10.829   7.879  0.1338 -0.0733  0.3018
 4015POPC   GL148699  15.424  10.759   7.512  0.1230 -0.0302  0.4147
 4015POPC   GL248700  15.212  10.610   7.484 -0.5044  0.0268  0.1315
 4015POPC   C1A48701  15.365  10.939   7.051 -0.1366 -0.1208 -0.0446
 4015POPC   D2A48702  15.180  11.149   6.615 -0.2200  0.1267 -0.1346
 4015POPC   C3A48703  15.451  11.344   6.277  0.2289  0.1837  0.1298
 4015POPC   C4A48704  15.438  11.713   5.927 -0.1173  0.0506 -0.1351
 4015POPC   C1B48705  15.020  10.549   7.073 -0.0493 -0.1200 -0.0073
 4015POPC   C2B48706  15.027  10.336   6.677  0.1989  0.1891  0.0602
 4015POPC   C3B48707  14.976  10.408   6.233  0.2038  0.1121 -0.0387
 4015POPC   C4B48708  15.098  10.508   5.841 -0.1440 -0.0307  0.3105
 4016POPC   NC348709   0.115  23.824   7.332  0.1391 -0.2017 -0.1064
 4016POPC   PO448710  -0.203  23.865   7.099 -0.3492 -0.0568 -0.1218
 4016POPC   GL148711  -0.220  23.774   6.725 -0.1058  0.0929  0.0018
 4016POPC   GL248712  -0.137  23.470   6.750 -0.1930 -0.0935 -0.2029
 4016POPC   C1A48713   0.068  23.695   6.355 -0.4729 -0.0142  0.1137
 4016POPC   D2A48714   0.324  23.337   6.202  0.1492 -0.0833 -0.3424
 4016POPC   C3A48715   0.776  23.462   6.167 -0.2258 -0.0827 -0.0413
 4016POPC   C4A48716   1.105  23.146   6.274  0.1823 -0.0960 -0.1808
 4016POPC   C1B48717  -0.547  23.496   6.500 -0.0971 -0.0410  0.1753
 4016POPC   C2B48718  -0.688  23.219   6.148  0.1920 -0.1956  0.3376
 4016POPC   C3B48719  -0.593  23.301   5.695  0.1591  0.3590 -0.0784
 4016POPC   C4B48720  -0.306  23.402   5.345 -0.2759  0.0516 -0.0904
 4017POPC   NC348721  11.608   2.822   7.733  0.0691 -0.0966 -0.1515
 4017POPC   PO448722  11.955   2.801   7.578  0.0146  0.0325  0.1323
 4017POPC   GL148723  12.163   2.928   7.300  0.0202 -0.3740  0.1864
 4017POPC   GL248724  12.233   2.710   7.161 -0.0824  0.3543 -0.2703
 4017POPC   C1A48725  12.002   3.025   6.893 -0.0384 -0.0832 -0.1047
 4017POPC   D2A48726  12.145   3.167   6.452 -0.2129  0.1879  0.0310
 4017POPC   C3A48727  12.340   2.930   6.112 -0.2169 -0.1205 -0.0613
 4017POPC   C4A48728  12.273   3.027   5.621  0.4090 -0.0653  0.4153
 4017POPC   C1B48729  12.364   2.704   6.718  0.1480  0.2558  0.0687
 4017POPC   C2B48730  12.226   2.421   6.380  0.0960  0.2328  0.4032
 4017POPC   C3B48731  12.211   1.947   6.257 -0.0512 -0.1951  0.1354
 4017POPC   C4B48732  12.118   1.498   6.282 -0.2369 -0.1050 -0.0630
 4018POPC   NC348733  29.701  14.273   8.286  0.1441  0.0097  0.0112
 4018POPC   PO448734  29.440  14.099   8.054 -0.2852  0.0574  0.0565
 4018POPC   GL148735  29.599  14.109   7.717  0.0308 -0.2511  0.1924
 4018POPC   GL248736  29.367  14.048   7.551  0.2807  0.0135 -0.0787
 4018POPC   C1A48737  29.571  14.542   7.485  0.1217 -0.0657  0.0887
 4018POPC   D2A48738  29.598  14.729   7.045  0.1176  0.1034 -0.3155
 4018POPC   C3A48739  29.334  14.622   6.658 -0.1217  0.3810 -0.4441
 4018POPC   C4A48740  28.918  14.609   6.446  0.1624  0.0954  0.0563
 4018POPC   C1B48741  29.372  14.048   7.092 -0.2040 -0.1066 -0.1769
 4018POPC   C2B48742  29.412  14.141   6.624  0.1538 -0.1039 -0.2256
 4018POPC   C3B48743  29.322  14.387   6.200 -0.2265  0.1224  0.0299
 4018POPC   C4B48744  29.584  14.589   5.814 -0.2979  0.1120  0.1092
 4019POPC   NC348745  22.405   4.955   8.079  0.2430 -0.3624  0.2094
 4019POPC   PO448746  22.335   4.920   7.719  0.0377  0.2464 -0.1958
 4019POPC   GL148747  22.438   4.884   7.364 -0.1490  0.0873  0.3889
 4019POPC   GL248748  22.458   4.713   7.095 -0.0405  0.1922 -0.2072
 4019POPC   C1A48749  22.660   5.208   7.036 -0.1581 -0.1000 -0.2123
 4019POPC   D2A48750  22.567   5.320   6.657  0.3486  0.1011  0.1846
 4019POPC   C3A48751  22.408   5.504   6.262 -0.1136 -0.1690 -0.0013
 4019POPC   C4A48752  22.280   5.433   5.807  0.0864  0.2801  0.3150
 4019POPC   C1B48753  22.289   4.846   6.709  0.4684  0.0980 -0.2909
 4019POPC   C2B48754  22.047   5.201   6.464 -0.1369  0.0095 -0.0592
 4019POPC   C3B48755  21.859   5.554   6.209  0.1495  0.3367  0.1156
 4019POPC   C4B48756  21.825   5.972   6.076  0.2271 -0.2666 -0.2895
 4020POPC   NC348757  17.042   5.347   7.617 -0.1097 -0.1872 -0.0885
 4020POPC   PO448758  17.343   5.208   7.383 -0.0164 -0.1845 -0.2894
 4020POPC   GL148759  17.378   5.239   6.965 -0.0514 -0.0499 -0.0392
 4020POPC   GL248760  17.229   5.388   6.868  0.2076 -0.1241  0.3905
 4020POPC   C1A48761  17.555   5.160   6.547 -0.1128  0.2612 -0.3519
 4020POPC   D2A48762  17.636   4.985   6.171 -0.0901 -0.1762 -0.0178
 4020POPC   C3A48763  18.008   4.893   5.963 -0.1456  0.2644  0.1137
 4020POPC   C4A48764  18.185   4.822   5.551 -0.1726 -0.0792 -0.2653
 4020POPC   C1B48765  17.342   5.579   6.550  0.1838  0.1917  0.2734
 4020POPC   C2B48766  17.410   5.578   6.089  0.2455 -0.1051  0.2453
 4020POPC   C3B48767  17.661   5.344   5.807  0.4802 -0.1565 -0.3564
 4020POPC   C4B48768  17.812   5.125   5.389 -0.0106  0.0561  0.1197
 4021POPC   NC348769  28.813   5.456   7.633  0.0855  0.0055  0.2693
 4021POPC   PO448770  28.949   5.373   7.215 -0.1269 -0.2313 -0.1989
 4021POPC   GL148771  28.979   5.449   6.788 -0.0252 -0.1516  0.2700
 4021POPC   GL248772  29.265   5.354   6.750  0.1908  0.2183 -0.2629
 4021POPC   C1A48773  28.808   5.715   6.485 -0.5224  0.0067  0.0332
 4021POPC   D2A48774  28.603   5.768   6.089  0.0959  0.3263  0.0319
 4021POPC   C3A48775  28.921   5.767   5.799 -0.4836 -0.1569 -0.1684
 4021POPC   C4A48776  29.377   5.629   5.865  0.2839 -0.0075  0.1127
 4021POPC   C1B48777  29.122   5.300   6.318  0.2119  0.0504 -0.2457
 4021POPC   C2B48778  29.068   5.201   5.893 -0.0710 -0.1587  0.0513
 4021POPC   C3B48779  29.148   5.288   5.470  0.0351  0.0084  0.1130
 4021POPC   C4B48780  29.007   5.235   5.004 -0.1414 -0.1327 -0.2224
 4022POPC   NC348781  11.838   4.257   7.596 -0.0059 -0.1603  0.2500
 4022POPC   PO448782  12.105   4.507   7.546  0.1175 -0.0055 -0.2097
 4022POPC   GL148783  12.215   4.413   7.220 -0.3333  0.0201 -0.3948
 4022POPC   GL248784  12.387   4.492   7.045  0.0166  0.0533 -0.2654
 4022POPC   C1A48785  11.890   4.510   6.888  0.1979  0.1144 -0.1285
 4022POPC   D2A48786  11.716   4.507   6.465  0.2637  0.2937 -0.2223
 4022POPC   C3A48787  11.937   4.550   6.060 -0.4163 -0.3024  0.0734
 4022POPC   C4A48788  12.264   4.873   5.934  0.2277  0.0214  0.1728
 4022POPC   C1B48789  12.316   4.603   6.616  0.4987  0.0016 -0.3372
 4022POPC   C2B48790  12.389   4.476   6.249 -0.4861 -0.0835  0.0554
 4022POPC   C3B48791  12.647   4.555   5.874 -0.2939  0.0591  0.4296
 4022POPC   C4B48792  12.755   4.924   5.616 -0.2443  0.0970 -0.0300
 4023POPC   NC348793  18.159   3.769   7.637 -0.0971  0.1016 -0.1014
 4023POPC   PO448794  18.505   3.513   7.675  0.0714 -0.2530  0.0975
 4023POPC   GL148795  18.806   3.387   7.455  0.1862 -0.1571  0.2002
 4023POPC   GL248796  18.913   3.157   7.283  0.0196 -0.1232 -0.2027
 4023POPC   C1A48797  19.110   3.606   7.101  0.1381 -0.0010 -0.0205
 4023POPC   D2A48798  19.287   3.873   6.754 -0.0456  0.0221  0.1209
 4023POPC   C3A48799  19.307   3.898   6.282  0.3624 -0.0629 -0.2159
 4023POPC   C4A48800  19.323   4.098   5.898 -0.2475 -0.0125 -0.0655
 4023POPC   C1B48801  18.906   2.967   6.874  0.2744  0.0580 -0.1280
 4023POPC   C2B48802  18.668   3.000   6.457  0.0460 -0.0757  0.1039
 4023POPC   C3B48803  18.624   2.986   6.019 -0.1671  0.2865  0.2279
 4023POPC   C4B48804  18.337   3.022   5.652  0.4415 -0.3921  0.2739
 4024POPC   NC348805  31.737  21.201   8.246  0.1813  0.3780 -0.2659
 4024POPC   PO448806  32.062  21.241   7.992 -0.0199 -0.3738 -0.0439
 4024POPC   GL148807  32.035  21.267   7.647 -0.1300  0.1619  0.0221
 4024POPC   GL248808  31.901  21.034   7.503  0.1170 -0.1376 -0.0349
 4024POPC   C1A48809  32.322  21.204   7.261  0.1064 -0.1835  0.0046
 4024POPC   D2A48810  32.172  21.035   6.870 -0.1869 -0.0327  0.1400
 4024POPC   C3A48811  32.243  20.757   6.534 -0.0595 -0.0889 -0.0053
 4024POPC   C4A48812  32.133  20.577   6.163 -0.1554  0.0747  0.0088
 4024POPC   C1B48813  31.724  20.913   7.108 -0.0656 -0.2433 -0.2319
 4024POPC   C2B48814  31.784  20.904   6.643 -0.0912 -0.2791 -0.1437
 4024POPC   C3B48815  31.731  20.921   6.209 -0.1220 -0.2914  0.3046
 4024POPC   C4B48816  31.867  20.661   5.799  0.1119  0.0068 -0.0432
 4025POPC   NC348817  12.143   1.402   7.862 -0.0573 -0.1802  0.0256
 4025POPC   PO448818  12.334   1.324   7.508  0.0103  0.0491 -0.2241
 4025POPC   GL148819  12.135   1.457   7.264  0.0596  0.2361 -0.0346
 4025POPC   GL248820  11.848   1.462   7.300 -0.0891  0.0572 -0.0687
 4025POPC   C1A48821  11.986   1.159   6.931  0.2407 -0.0035  0.2669
 4025POPC   D2A48822  11.986   1.042   6.453 -0.3996  0.1971  0.0581
 4025POPC   C3A48823  12.145   0.973   6.018 -0.1772 -0.0618  0.4815
 4025POPC   C4A48824  12.313   0.680   5.666  0.0983  0.1074  0.1919
 4025POPC   C1B48825  11.876   1.685   6.926  0.0919 -0.0185 -0.2494
 4025POPC   C2B48826  11.927   2.056   6.622 -0.2305  0.1613 -0.0135
 4025POPC   C3B48827  11.723   2.257   6.231  0.4190 -0.1803 -0.1000
 4025POPC   C4B48828  11.664   2.207   5.802  0.0441 -0.0524 -0.1220
 4026POPC   NC348829  21.239   2.346   7.884 -0.0878  0.0669 -0.0472
 4026POPC   PO448830  21.340   1.959   7.875  0.1665 -0.1243  0.2379
 4026POPC   GL148831  21.555   2.121   7.572 -0.3068  0.1559  0.0979
 4026POPC   GL248832  21.829   1.920   7.544 -0.0226 -0.1822  0.2243
 4026POPC   C1A48833  21.590   2.099   7.112 -0.1431  0.2947  0.0241
 4026POPC   D2A48834  21.712   2.060   6.630  0.1921  0.0138 -0.1714
 4026POPC   C3A48835  21.529   2.178   6.226 -0.0409 -0.0553 -0.0446
 4026POPC   C4A48836  21.225   2.119   5.867 -0.1788 -0.2481 -0.1248
 4026POPC   C1B48837  22.064   2.159   7.338  0.0429  0.1042  0.2303
 4026POPC   C2B48838  22.536   2.218   7.321  0.2439 -0.0013 -0.0635
 4026POPC   C3B48839  22.983   2.411   7.339 -0.1501  0.0226  0.0416
 4026POPC   C4B48840  23.393   2.217   7.553 -0.0393 -0.0176  0.0695
 4027POPC   NC348841  19.122   3.236   7.772 -0.0934  0.1788  0.0377
 4027POPC   PO448842  19.419   3.140   7.564  0.0845 -0.2410  0.4213
 4027POPC   GL148843  19.686   2.968   7.262  0.2973  0.0355  0.1855
 4027POPC   GL248844  19.576   3.210   7.105  0.1998 -0.0133  0.2020
 4027POPC   C1A48845  19.713   2.613   6.937  0.0537 -0.0705  0.1233
 4027POPC   D2A48846  19.591   2.202   6.969  0.0465  0.0017  0.3689
 4027POPC   C3A48847  19.210   2.168   7.272 -0.0798  0.3467  0.2492
 4027POPC   C4A48848  18.831   2.511   7.286 -0.4042 -0.1239  0.3390
 4027POPC   C1B48849  19.494   3.282   6.693  0.0798 -0.3079 -0.3332
 4027POPC   C2B48850  19.553   3.494   6.313 -0.4514 -0.2138  0.2559
 4027POPC   C3B48851  19.433   3.606   5.885 -0.3101  0.0948  0.1265
 4027POPC   C4B48852  19.173   3.603   5.503  0.1429  0.2685  0.1473
 4028POPC   NC348853  15.645  12.376   7.711 -0.1941  0.0785  0.3098
 4028POPC   PO448854  15.941  12.202   7.924 -0.0958 -0.1560  0.0784
 4028POPC   GL148855  15.994  12.153   7.512  0.0369 -0.0034 -0.1769
 4028POPC   GL248856  16.053  12.381   7.265  0.0217 -0.4832 -0.2423
 4028POPC   C1A48857  15.726  11.895   7.247  0.0402  0.0372 -0.1226
 4028POPC   D2A48858  15.571  11.490   7.177  0.0342  0.1284 -0.0826
 4028POPC   C3A48859  15.535  11.539   6.719 -0.0111  0.2000 -0.1945
 4028POPC   C4A48860  15.713  11.790   6.358  0.1401 -0.0100 -0.0903
 4028POPC   C1B48861  16.248  12.355   6.879  0.3234 -0.2521 -0.0986
 4028POPC   C2B48862  16.691  12.368   6.782 -0.0664 -0.0406  0.2025
 4028POPC   C3B48863  17.129  12.555   6.772 -0.1325 -0.0331  0.1426
 4028POPC   C4B48864  17.265  12.920   6.487 -0.0645  0.3543 -0.1381
 4029POPC   NC348865   2.109  27.760   7.882 -0.1925  0.0590  0.1497
 4029POPC   PO448866   2.280  27.440   7.719  0.0265  0.0666 -0.2506
 4029POPC   GL148867   1.972  27.617   7.367 -0.1330 -0.3269  0.0858
 4029POPC   GL248868   2.058  27.938   7.348 -0.2167  0.0336 -0.1968
 4029POPC   C1A48869   1.898  27.649   6.928  0.0765 -0.2855 -0.1669
 4029POPC   D2A48870   1.692  27.570   6.484  0.1571  0.4138 -0.1946
 4029POPC   C3A48871   1.794  27.301   6.137 -0.2987  0.0395 -0.2503
 4029POPC   C4A48872   1.892  26.800   6.088  0.0014 -0.1014  0.1594
 4029POPC   C1B48873   2.147  28.091   6.970 -0.3451 -0.0344  0.1137
 4029POPC   C2B48874   1.959  28.066   6.530 -0.1703  0.0374  0.2002
 4029POPC   C3B48875   1.880  28.167   6.100  0.0065 -0.0814 -0.1132
 4029POPC   C4B48876   2.104  28.349   5.757 -0.0276 -0.0034 -0.1419
 4030POPC   NC348877   5.896  15.639   7.479 -0.0603 -0.0206 -0.0439
 4030POPC   PO448878   5.893  15.796   7.841  0.0702 -0.0484  0.1668
 4030POPC   GL148879   6.028  16.025   7.548 -0.0157 -0.2811 -0.1117
 4030POPC   GL248880   6.137  16.255   7.593 -0.1992  0.3134  0.1449
 4030POPC   C1A48881   5.988  15.971   7.075  0.2864 -0.0460  0.2241
 4030POPC   D2A48882   6.295  15.798   6.766  0.0401  0.1862 -0.1596
 4030POPC   C3A48883   6.182  15.448   6.486 -0.0338  0.2486  0.4310
 4030POPC   C4A48884   6.136  15.571   6.037  0.1731 -0.1799 -0.0125
 4030POPC   C1B48885   5.937  16.486   7.220 -0.1742  0.1698  0.0548
 4030POPC   C2B48886   6.044  16.743   6.832  0.0882  0.0899 -0.0464
 4030POPC   C3B48887   5.962  16.967   6.405 -0.1302 -0.0125  0.1579
 4030POPC   C4B48888   5.785  16.785   6.042 -0.0428 -0.0944 -0.0480
 4031POPC   NC348889  21.411   7.705   7.807  0.2250  0.0565  0.1941
 4031POPC   PO448890  21.606   7.404   7.762 -0.0861  0.1339 -0.2663
 4031POPC   GL148891  21.788   7.485   7.383  0.1013 -0.4322  0.2051
 4031POPC   GL248892  21.986   7.315   7.340 -0.0874  0.1176 -0.1721
 4031POPC   C1A48893  21.826   7.874   7.085  0.1904 -0.0486 -0.1500
 4031POPC   D2A48894  21.813   8.156   6.717  0.1561 -0.0274 -0.2691
 4031POPC   C3A48895  21.709   8.414   6.320  0.0886  0.0821  0.0896
 4031POPC   C4A48896  21.526   8.610   5.952  0.0947  0.1773 -0.1561
 4031POPC   C1B48897  22.046   7.326   6.904  0.0788  0.5672 -0.2835
 4031POPC   C2B48898  21.944   7.151   6.475 -0.2141 -0.2574 -0.0494
 4031POPC   C3B48899  21.739   7.149   6.140  0.1518  0.0869  0.2628
 4031POPC   C4B48900  21.638   6.966   5.697  0.0785 -0.1456  0.0993
 4032POPC   NC348901  15.950  26.558   7.856  0.1218 -0.1127 -0.1010
 4032POPC   PO448902  16.027  26.227   7.654 -0.0375 -0.0786  0.2400
 4032POPC   GL148903  15.822  26.193   7.288  0.2514 -0.1942 -0.2556
 4032POPC   GL248904  16.049  26.244   7.136 -0.0625  0.2011  0.3408
 4032POPC   C1A48905  15.670  26.094   6.850 -0.0593  0.0402  0.0350
 4032POPC   D2A48906  15.507  25.974   6.460  0.1833 -0.1049 -0.4677
 4032POPC   C3A48907  15.763  25.697   6.243 -0.0172  0.4513  0.1220
 4032POPC   C4A48908  16.109  25.696   5.958 -0.0741 -0.0554  0.0632
 4032POPC   C1B48909  16.259  26.324   6.791 -0.0995  0.2702  0.0591
 4032POPC   C2B48910  16.511  26.215   6.482 -0.4141 -0.1176 -0.1884
 4032POPC   C3B48911  16.368  26.078   6.046 -0.1912 -0.1078  0.0042
 4032POPC   C4B48912  16.127  26.152   5.600 -0.2261  0.0828  0.0817
 4033POPC   NC348913  14.140  16.695   7.520 -0.1272 -0.0861  0.3182
 4033POPC   PO448914  14.397  16.505   7.704  0.0890 -0.2164 -0.0584
 4033POPC   GL148915  14.673  16.458   7.383 -0.2682 -0.3093 -0.3194
 4033POPC   GL248916  14.650  16.245   7.171 -0.0868 -0.2855  0.1669
 4033POPC   C1A48917  15.004  16.606   7.038  0.2864 -0.0054 -0.0496
 4033POPC   D2A48918  15.148  16.713   6.633 -0.1454  0.0744  0.5940
 4033POPC   C3A48919  14.897  16.590   6.285 -0.0175  0.2132  0.0790
 4033POPC   C4A48920  14.893  16.469   5.774  0.1922  0.0625 -0.0154
 4033POPC   C1B48921  14.821  16.257   6.735 -0.1512 -0.0876 -0.0038
 4033POPC   C2B48922  14.755  15.946   6.468  0.0860 -0.2331 -0.2801
 4033POPC   C3B48923  14.906  15.929   6.043  0.0104 -0.4845 -0.1275
 4033POPC   C4B48924  15.024  15.958   5.568  0.0569 -0.3274 -0.0576
 4034POPC   NC348925  21.053  19.083   7.321  0.0333  0.0035 -0.1634
 4034POPC   PO448926  21.089  19.492   7.378 -0.0226 -0.0708  0.2249
 4034POPC   GL148927  21.013  19.867   7.251  0.0284 -0.0140  0.2871
 4034POPC   GL248928  20.661  19.987   7.185 -0.1858  0.3718  0.2591
 4034POPC   C1A48929  21.045  20.013   6.820 -0.0534  0.2813  0.2150
 4034POPC   D2A48930  20.746  20.047   6.429 -0.0778  0.0208  0.0250
 4034POPC   C3A48931  20.408  20.266   6.074 -0.4125  0.2325 -0.2771
 4034POPC   C4A48932  20.278  20.658   5.857  0.0404 -0.0960 -0.2287
 4034POPC   C1B48933  20.540  20.264   6.824 -0.0513 -0.0069 -0.0654
 4034POPC   C2B48934  20.612  20.602   6.477  0.1106 -0.1011 -0.2753
 4034POPC   C3B48935  20.585  20.962   6.194 -0.0372  0.2089 -0.1937
 4034POPC   C4B48936  20.517  21.401   6.206  0.2795 -0.2848 -0.2569
 4035POPC   NC348937   8.309   5.927   7.593  0.0729 -0.3790 -0.0551
 4035POPC   PO448938   8.567   5.629   7.531 -0.1335  0.0382 -0.1581
 4035POPC   GL148939   8.480   5.590   7.138  0.1072 -0.4345 -0.0399
 4035POPC   GL248940   8.661   5.384   7.115  0.4265 -0.0741 -0.1060
 4035POPC   C1A48941   8.365   5.592   6.675 -0.1176 -0.0163  0.0039
 4035POPC   D2A48942   8.429   5.514   6.250  0.1980 -0.1791 -0.0584
 4035POPC   C3A48943   8.838   5.496   5.972  0.2162  0.1659  0.1214
 4035POPC   C4A48944   8.920   5.738   5.602  0.0581 -0.1318 -0.0723
 4035POPC   C1B48945   8.843   5.479   6.726 -0.0977  0.3828 -0.2155
 4035POPC   C2B48946   9.100   5.425   6.375  0.2507 -0.1295  0.2433
 4035POPC   C3B48947   9.143   5.095   6.004 -0.2009 -0.0588 -0.0740
 4035POPC   C4B48948   9.039   4.837   5.651  0.3549  0.6277  0.2661
 4036POPC   NC348949   4.447  19.984   7.912 -0.0800  0.0413  0.2092
 4036POPC   PO448950   4.226  19.795   7.698 -0.1184 -0.1456  0.3613
 4036POPC   GL148951   4.366  19.791   7.241  0.0923 -0.0256 -0.0308
 4036POPC   GL248952   4.129  19.935   7.190  0.1304 -0.1639  0.1553
 4036POPC   C1A48953   4.679  19.589   6.972  0.4687  0.1208  0.0476
 4036POPC   D2A48954   4.900  19.235   6.797 -0.0800 -0.1988 -0.1865
 4036POPC   C3A48955   5.098  19.291   6.362  0.1338 -0.1993 -0.2606
 4036POPC   C4A48956   5.340  19.155   6.007 -0.0445  0.1196  0.0698
 4036POPC   C1B48957   4.046  19.741   6.785 -0.0888 -0.0448  0.1376
 4036POPC   C2B48958   3.989  19.804   6.335  0.1153  0.1980 -0.0628
 4036POPC   C3B48959   3.803  20.034   6.009  0.2379  0.0390  0.0851
 4036POPC   C4B48960   3.572  20.417   5.887  0.2675  0.0867 -0.0904
 4037POPC   NC348961  14.347   9.664   7.812  0.4697  0.2044  0.1068
 4037POPC   PO448962  14.648   9.589   8.000  0.2359 -0.0701 -0.1548
 4037POPC   GL148963  14.775   9.485   7.624  0.5154 -0.1377  0.0700
 4037POPC   GL248964  14.616   9.520   7.387 -0.0537  0.0534  0.0142
 4037POPC   C1A48965  15.107   9.551   7.264 -0.1944  0.1101 -0.3174
 4037POPC   D2A48966  15.161   9.356   6.858 -0.0678 -0.1151  0.2468
 4037POPC   C3A48967  14.835   9.060   6.724 -0.4450  0.2736 -0.1343
 4037POPC   C4A48968  14.542   8.978   6.418  0.1632  0.2082  0.4308
 4037POPC   C1B48969  14.610   9.477   6.893 -0.0551 -0.1960  0.1269
 4037POPC   C2B48970  14.769   9.466   6.444 -0.1157  0.0144  0.0329
 4037POPC   C3B48971  14.964   9.132   6.186 -0.1856 -0.0426 -0.1937
 4037POPC   C4B48972  15.155   8.872   5.881 -0.0830 -0.2908 -0.2497
 4038POPC   NC348973  19.634  14.373   7.524 -0.1270 -0.0869 -0.0959
 4038POPC   PO448974  19.989  14.358   7.498 -0.0195  0.0970 -0.1022
 4038POPC   GL148975  20.079  14.248   7.121 -0.1368 -0.0000  0.0496
 4038POPC   GL248976  19.792  14.185   7.054 -0.0119 -0.2065 -0.3135
 4038POPC   C1A48977  20.362  14.070   6.758 -0.1921  0.0564  0.2522
 4038POPC   D2A48978  20.509  13.813   6.456  0.0778  0.0556  0.0125
 4038POPC   C3A48979  20.566  13.926   6.015 -0.1965 -0.1207 -0.5615
 4038POPC   C4A48980  20.648  14.074   5.557  0.0191  0.1729  0.3651
 4038POPC   C1B48981  19.608  14.265   6.648  0.2955  0.0035 -0.0107
 4038POPC   C2B48982  19.282  14.239   6.329 -0.2015 -0.4370 -0.0603
 4038POPC   C3B48983  19.009  13.979   6.136 -0.2728  0.0579  0.0993
 4038POPC   C4B48984  18.625  13.873   5.838  0.2765  0.3066  0.0039
 4039POPC   NC348985  10.596   4.100   7.806 -0.1167 -0.2056 -0.1054
 4039POPC   PO448986  10.571   4.403   7.586  0.1507  0.0745  0.3417
 4039POPC   GL148987  10.424   4.331   7.262  0.1410 -0.4359  0.1066
 4039POPC   GL248988  10.404   4.057   7.284  0.1549 -0.0750 -0.0042
 4039POPC   C1A48989  10.027   4.485   7.034 -0.0383  0.1341 -0.2517
 4039POPC   D2A48990   9.849   4.510   6.652 -0.1698  0.0758  0.1289
 4039POPC   C3A48991   9.682   4.730   6.329  0.0337  0.1028 -0.2315
 4039POPC   C4A48992   9.500   4.676   5.913 -0.2492 -0.0886 -0.2537
 4039POPC   C1B48993  10.176   3.939   6.914  0.0015  0.3727 -0.0974
 4039POPC   C2B48994  10.019   4.072   6.489 -0.0616 -0.0717 -0.1896
 4039POPC   C3B48995   9.937   4.240   6.096  0.2040  0.1438 -0.1074
 4039POPC   C4B48996   9.607   4.198   5.769 -0.0205 -0.1898  0.0078
 4040POPC   NC348997  25.758  26.105   7.801  0.0943 -0.0348  0.0629
 4040POPC   PO448998  25.905  26.424   7.707 -0.2756 -0.2887 -0.0307
 4040POPC   GL148999  26.307  26.484   7.490  0.0062 -0.1442 -0.2507
 4040POPC   GL249000  26.173  26.428   7.255  0.1713  0.2796 -0.2580
 4040POPC   C1A49001  26.706  26.729   7.345 -0.0083  0.0465  0.1317
 4040POPC   D2A49002  26.906  26.672   6.905 -0.1873 -0.1125 -0.0640
 4040POPC   C3A49003  26.879  26.703   6.448 -0.0772  0.0861 -0.1769
 4040POPC   C4A49004  26.883  26.638   5.987  0.0679 -0.2104  0.2165
 4040POPC   C1B49005  25.845  26.664   7.037  0.0396  0.1439 -0.0453
 4040POPC   C2B49006  26.036  26.901   6.824 -0.1165 -0.2314  0.0080
 4040POPC   C3B49007  26.104  27.245   6.567 -0.1905 -0.0884 -0.1934
 4040POPC   C4B49008  25.895  27.357   6.135 -0.1206 -0.1704  0.3050
 4041POPC   NC349009  24.419  26.491   7.393  0.0939 -0.3123 -0.0182
 4041POPC   PO449010  24.735  26.231   7.228 -0.3988  0.0160  0.4108
 4041POPC   GL149011  24.918  26.314   6.817 -0.2178  0.2012 -0.4000
 4041POPC   GL249012  24.936  26.105   6.795 -0.0412 -0.1937 -0.0905
 4041POPC   C1A49013  24.956  26.714   6.629  0.2043 -0.4366 -0.3284
 4041POPC   D2A49014  25.105  26.753   6.150 -0.0653 -0.3969 -0.1334
 4041POPC   C3A49015  25.326  27.190   6.004 -0.0868 -0.1691 -0.2694
 4041POPC   C4A49016  25.326  27.668   5.927  0.4603  0.0236  0.3887
 4041POPC   C1B49017  24.848  26.318   6.383  0.2749 -0.1971  0.2120
 4041POPC   C2B49018  24.920  26.324   5.912 -0.0724  0.2183 -0.1694
 4041POPC   C3B49019  24.643  26.315   5.500 -0.0237 -0.0039 -0.1304
 4041POPC   C4B49020  24.472  26.509   5.136  0.0104 -0.0806 -0.2671
 4042POPC   NC349021  16.532  16.099   7.906  0.0431  0.2506  0.0272
 4042POPC   PO449022  16.314  15.783   7.937  0.0326 -0.3661 -0.4851
 4042POPC   GL149023  16.048  15.524   7.601  0.3115 -0.0353  0.2692
 4042POPC   GL249024  15.950  15.800   7.567 -0.2558 -0.1887  0.0479
 4042POPC   C1A49025  15.943  15.444   7.182 -0.0531 -0.0113  0.0738
 4042POPC   D2A49026  15.996  15.308   6.768 -0.1630  0.0459 -0.0675
 4042POPC   C3A49027  16.047  15.273   6.304 -0.1584  0.2835 -0.0510
 4042POPC   C4A49028  15.944  15.056   5.971  0.2275  0.0808  0.1218
 4042POPC   C1B49029  15.629  15.904   7.196 -0.1230  0.1776  0.1153
 4042POPC   C2B49030  15.600  15.644   6.793  0.0840 -0.0443 -0.1133
 4042POPC   C3B49031  15.696  15.897   6.405 -0.1537  0.0867 -0.1372
 4042POPC   C4B49032  16.047  16.198   6.296 -0.0148  0.0614  0.0061
 4043POPC   NC349033  12.191  12.402   8.087  0.1524 -0.0686 -0.0975
 4043POPC   PO449034  12.502  12.599   7.917 -0.1807 -0.0587  0.2197
 4043POPC   GL149035  12.251  12.668   7.596  0.5387 -0.0654 -0.1049
 4043POPC   GL249036  12.207  12.903   7.603 -0.2815 -0.0947 -0.2096
 4043POPC   C1A49037  12.227  12.541   7.161 -0.0447 -0.1393  0.3149
 4043POPC   D2A49038  12.045  12.403   6.792 -0.0583 -0.2287 -0.2050
 4043POPC   C3A49039  11.732  12.561   6.527 -0.2313  0.0157 -0.0681
 4043POPC   C4A49040  11.516  12.660   6.145  0.1409 -0.1480 -0.1611
 4043POPC   C1B49041  12.102  13.020   7.155  0.1042 -0.0654  0.0568
 4043POPC   C2B49042  11.888  13.074   6.762 -0.0962 -0.0187  0.0133
 4043POPC   C3B49043  11.752  13.042   6.344  0.2268  0.1547  0.1608
 4043POPC   C4B49044  11.338  13.169   6.125 -0.0733  0.0422 -0.1349
 4044POPC   NC349045   5.208  16.393   7.777  0.1263 -0.2172 -0.0976
 4044POPC   PO449046   5.038  16.703   7.896 -0.1880 -0.1720 -0.0926
 4044POPC   GL149047   5.327  16.908   7.571 -0.1040 -0.1099 -0.0789
 4044POPC   GL249048   5.534  16.828   7.597 -0.1687  0.2041 -0.5774
 4044POPC   C1A49049   5.587  17.298   7.448 -0.0746  0.1647 -0.1802
 4044POPC   D2A49050   5.751  17.764   7.491 -0.1066 -0.1632 -0.0251
 4044POPC   C3A49051   6.148  17.914   7.311  0.0283 -0.1708 -0.1610
 4044POPC   C4A49052   6.079  17.964   6.814 -0.2777  0.0632 -0.2377
 4044POPC   C1B49053   5.619  16.835   7.048 -0.4227 -0.0945  0.0709
 4044POPC   C2B49054   5.642  17.122   6.719 -0.0873 -0.0583  0.0341
 4044POPC   C3B49055   5.643  17.361   6.342  0.0389  0.0978  0.0890
 4044POPC   C4B49056   5.310  17.471   6.039 -0.2105  0.2506 -0.0393
 4045POPC   NC349057  23.387   9.335   7.746  0.2603  0.1015 -0.0291
 4045POPC   PO449058  23.634   9.025   7.846  0.0734 -0.0638 -0.4551
 4045POPC   GL149059  23.638   8.991   7.431 -0.3293  0.0319 -0.1490
 4045POPC   GL249060  23.898   9.043   7.375  0.0837 -0.0140 -0.0303
 4045POPC   C1A49061  23.345   9.105   7.113  0.0732  0.2353  0.0962
 4045POPC   D2A49062  23.168   9.281   6.702  0.0364  0.1776  0.1322
 4045POPC   C3A49063  23.362   9.639   6.421  0.2258 -0.1534  0.0048
 4045POPC   C4A49064  23.150   9.771   6.054  0.0580 -0.1286 -0.0436
 4045POPC   C1B49065  24.189   9.113   7.005  0.0573 -0.0233 -0.0400
 4045POPC   C2B49066  24.397   8.939   6.646 -0.0457 -0.4753 -0.2495
 4045POPC   C3B49067  24.652   8.873   6.263  0.0157 -0.0470  0.2495
 4045POPC   C4B49068  24.930   8.835   5.873  0.0538  0.3040  0.3033
 4046POPC   NC349069   2.033  18.973   7.700  0.2080 -0.4428 -0.1495
 4046POPC   PO449070   2.054  18.646   7.535  0.0515  0.0202 -0.3711
 4046POPC   GL149071   1.880  18.572   7.258  0.4282 -0.2406 -0.1233
 4046POPC   GL249072   1.832  18.282   7.214  0.2055 -0.0220 -0.0445
 4046POPC   C1A49073   1.837  18.725   6.847  0.2296 -0.1138  0.0505
 4046POPC   D2A49074   1.643  19.008   6.470 -0.1553  0.1589 -0.0086
 4046POPC   C3A49075   1.493  18.797   6.081 -0.0897  0.0206 -0.3039
 4046POPC   C4A49076   1.400  18.919   5.657  0.0686  0.2635  0.2968
 4046POPC   C1B49077   2.156  18.221   6.863 -0.0227 -0.1087 -0.3011
 4046POPC   C2B49078   2.462  18.186   6.446 -0.0610  0.0305 -0.1780
 4046POPC   C3B49079   2.662  18.173   6.009  0.0313  0.2407 -0.1107
 4046POPC   C4B49080   2.723  17.811   5.693 -0.2190 -0.3465  0.4257
 4047POPC   NC349081  16.586   2.782   7.575 -0.0968 -0.1306  0.4427
 4047POPC   PO449082  16.659   3.149   7.650  0.3833  0.0581  0.1100
 4047POPC   GL149083  16.743   3.157   7.294  0.1053 -0.1687  0.1084
 4047POPC   GL249084  16.466   3.234   7.191 -0.0250  0.0209  0.0425
 4047POPC   C1A49085  17.027   3.047   6.961  0.0488 -0.2088 -0.1596
 4047POPC   D2A49086  17.473   3.202   6.882 -0.2791  0.2003 -0.0820
 4047POPC   C3A49087  17.649   3.284   6.513  0.3852  0.0676  0.0362
 4047POPC   C4A49088  17.814   3.414   6.120  0.0332 -0.2145 -0.0436
 4047POPC   C1B49089  16.571   3.040   6.721 -0.1541  0.0442 -0.3976
 4047POPC   C2B49090  16.640   3.005   6.229 -0.0475 -0.1794  0.0056
 4047POPC   C3B49091  16.528   2.841   5.821 -0.0239 -0.0707 -0.0141
 4047POPC   C4B49092  16.604   3.010   5.412 -0.1722  0.1807  0.1181
 4048POPC   NC349093  17.757  28.143   7.885 -0.0509  0.1529  0.0206
 4048POPC   PO449094  17.639  28.241   7.495 -0.1465  0.3159 -0.0113
 4048POPC   GL149095  17.803  28.075   7.186 -0.0526 -0.0060 -0.0343
 4048POPC   GL249096  18.071  27.964   7.418  0.1834  0.0927  0.0761
 4048POPC   C1A49097  17.869  27.814   6.811 -0.1175  0.1041 -0.0306
 4048POPC   D2A49098  18.046  27.639   6.420  0.3492  0.2198 -0.1066
 4048POPC   C3A49099  18.016  27.811   6.011  0.0605 -0.2733  0.1853
 4048POPC   C4A49100  18.237  28.067   5.676  0.0991 -0.0614  0.1138
 4048POPC   C1B49101  18.325  28.031   7.060  0.0849 -0.2631  0.1443
 4048POPC   C2B49102  18.403  27.957   6.620  0.0884 -0.1165 -0.1276
 4048POPC   C3B49103  18.377  28.032   6.194  0.1066 -0.2677 -0.1248
 4048POPC   C4B49104  18.626  28.297   5.934 -0.0465  0.1016  0.1199
 4049POPC   NC349105   5.440  21.070   8.214 -0.1058 -0.0574  0.0060
 4049POPC   PO449106   5.467  20.979   7.826 -0.0106 -0.1866  0.4032
 4049POPC   GL149107   5.538  20.977   7.362  0.2034 -0.0785  0.1889
 4049POPC   GL249108   5.503  21.266   7.450 -0.1205  0.1113 -0.2007
 4049POPC   C1A49109   5.547  21.233   6.970 -0.0437 -0.0583 -0.1619
 4049POPC   D2A49110   5.421  21.546   6.664  0.1204 -0.0131  0.1277
 4049POPC   C3A49111   5.107  21.592   6.389 -0.0032  0.0173  0.0758
 4049POPC   C4A49112   4.987  21.771   5.995 -0.1297  0.0275 -0.1488
 4049POPC   C1B49113   5.078  21.376   7.191  0.1348  0.2653 -0.1049
 4049POPC   C2B49114   4.739  21.594   7.084  0.0297  0.1430  0.1452
 4049POPC   C3B49115   4.623  21.744   6.668 -0.1809 -0.1419  0.3025
 4049POPC   C4B49116   4.623  21.935   6.271  0.0261  0.0934 -0.0682
 4050POPC   NC349117   0.175  13.558   7.757  0.1030  0.2763 -0.1463
 4050POPC   PO449118   0.257  13.215   7.836  0.0057  0.1577 -0.3053
 4050POPC   GL149119   0.520  13.330   7.593 -0.0193 -0.3272 -0.0487
 4050POPC   GL249120   0.424  13.366   7.291 -0.2874  0.0040  0.0001
 4050POPC   C1A49121   0.941  13.332   7.380 -0.1962  0.2887 -0.1362
 4050POPC   D2A49122   1.275  13.146   7.250 -0.3035  0.2739 -0.1657
 4050POPC   C3A49123   1.362  13.427   6.898 -0.0938 -0.2695  0.0581
 4050POPC   C4A49124   1.589  13.799   6.725  0.3676 -0.1475 -0.1837
 4050POPC   C1B49125   0.686  13.453   6.913 -0.0682 -0.1356 -0.0984
 4050POPC   C2B49126   0.660  13.382   6.465 -0.1820  0.4523 -0.0245
 4050POPC   C3B49127   0.621  13.383   6.026 -0.0776 -0.0492  0.1824
 4050POPC   C4B49128   0.324  13.526   5.733  0.0865  0.0441  0.1702
 4051POPC   NC349129   7.862   0.024   8.072 -0.1219 -0.0369  0.1410
 4051POPC   PO449130   7.558  -0.222   7.958 -0.1525 -0.0843 -0.3777
 4051POPC   GL149131   7.737  -0.118   7.580  0.2492  0.0516  0.0528
 4051POPC   GL249132   7.963   0.114   7.559 -0.0096  0.0351  0.0368
 4051POPC   C1A49133   7.467   0.177   7.313  0.0733  0.4469 -0.0793
 4051POPC   D2A49134   7.311   0.448   6.957  0.3207 -0.2893  0.3252
 4051POPC   C3A49135   7.048   0.441   6.545  0.0262 -0.0804 -0.0747
 4051POPC   C4A49136   6.920   0.266   6.128  0.4206  0.1303  0.3601
 4051POPC   C1B49137   7.950   0.370   7.119  0.1917 -0.1440  0.1202
 4051POPC   C2B49138   8.146   0.394   6.690 -0.0858 -0.1543 -0.2353
 4051POPC   C3B49139   8.041   0.312   6.236 -0.2061  0.1150 -0.1220
 4051POPC   C4B49140   7.959   0.369   5.774 -0.0376 -0.4392 -0.2522
 4052POPC   NC349141   0.127  21.667   7.552  0.2525  0.1079  0.1688
 4052POPC   PO449142  -0.102  21.931   7.757  0.1458 -0.0130  0.1120
 4052POPC   GL149143  -0.229  21.881   7.352 -0.4723 -0.0896  0.0891
 4052POPC   GL249144  -0.337  21.598   7.314 -0.1098 -0.0993  0.0694
 4052POPC   C1A49145  -0.256  21.812   6.859 -0.1391  0.0596 -0.1655
 4052POPC   D2A49146  -0.330  21.655   6.403  0.0433  0.1069 -0.0733
 4052POPC   C3A49147  -0.705  21.784   6.072 -0.4269  0.2294 -0.0001
 4052POPC   C4A49148  -1.019  21.758   5.722  0.0140 -0.1771 -0.1292
 4052POPC   C1B49149  -0.064  21.446   7.013  0.0148  0.4446  0.0092
 4052POPC   C2B49150  -0.000  21.372   6.532  0.1235 -0.3359  0.2850
 4052POPC   C3B49151   0.129  21.366   6.055  0.0636 -0.0940  0.0771
 4052POPC   C4B49152   0.273  21.641   5.672  0.1846  0.1946 -0.2678
 4053POPC   NC349153   4.799  13.678   8.398  0.1312  0.0203 -0.0974
 4053POPC   PO449154   4.415  13.659   8.385  0.1145 -0.0596 -0.0869
 4053POPC   GL149155   4.368  13.641   7.974 -0.0246  0.1459  0.2174
 4053POPC   GL249156   4.434  13.373   7.852 -0.0791 -0.0716  0.3652
 4053POPC   C1A49157   4.350  13.819   7.528  0.2532 -0.5017  0.0342
 4053POPC   D2A49158   4.000  14.076   7.265 -0.2705 -0.2771 -0.2067
 4053POPC   C3A49159   3.579  14.011   7.135 -0.0073  0.1216  0.0834
 4053POPC   C4A49160   3.425  13.847   6.769  0.1654 -0.0313  0.0213
 4053POPC   C1B49161   4.230  13.174   7.493  0.3731 -0.3507 -0.1027
 4053POPC   C2B49162   4.021  13.239   7.087 -0.0111  0.0780  0.2725
 4053POPC   C3B49163   3.975  13.307   6.622  0.1686 -0.0119 -0.0408
 4053POPC   C4B49164   3.766  13.664   6.466 -0.1036 -0.2186  0.0043
 4054POPC   NC349165  12.911  22.361   8.045  0.2596 -0.0217  0.1764
 4054POPC   PO449166  12.689  22.168   7.805 -0.1407 -0.1527 -0.3424
 4054POPC   GL149167  12.405  22.169   7.536  0.1995  0.4252  0.3036
 4054POPC   GL249168  12.386  22.465   7.486  0.2040 -0.0597  0.3184
 4054POPC   C1A49169  12.372  22.092   7.077 -0.1034 -0.2285 -0.1592
 4054POPC   D2A49170  12.250  22.017   6.630 -0.2236  0.0771 -0.0207
 4054POPC   C3A49171  12.251  21.895   6.201 -0.0569  0.0854  0.1483
 4054POPC   C4A49172  12.108  21.545   5.889 -0.0690 -0.2522 -0.1426
 4054POPC   C1B49173  12.433  22.717   7.087 -0.1431 -0.3587 -0.0660
 4054POPC   C2B49174  12.518  22.514   6.727 -0.0431  0.1069  0.3480
 4054POPC   C3B49175  12.390  22.475   6.296  0.0653 -0.0474  0.1708
 4054POPC   C4B49176  12.127  22.416   5.894  0.3053 -0.0412 -0.1333
 4055POPC   NC349177  21.128  29.835   8.056  0.0505 -0.0625  0.4159
 4055POPC   PO449178  20.760  29.788   7.895 -0.1101 -0.4819  0.1070
 4055POPC   GL149179  20.678  29.857   7.498  0.0658  0.0715 -0.2692
 4055POPC   GL249180  20.647  29.554   7.443  0.2699 -0.0791  0.1159
 4055POPC   C1A49181  20.904  29.815   7.109  0.2148 -0.2396  0.1129
 4055POPC   D2A49182  20.836  29.680   6.662 -0.1199  0.0950  0.2498
 4055POPC   C3A49183  21.134  29.644   6.262 -0.0015 -0.1096 -0.1330
 4055POPC   C4A49184  21.575  29.799   6.143 -0.0833 -0.0486  0.0815
 4055POPC   C1B49185  20.632  29.388   7.010 -0.0261 -0.0708 -0.0460
 4055POPC   C2B49186  20.709  29.130   6.619 -0.1602 -0.1580 -0.1471
 4055POPC   C3B49187  20.602  28.834   6.323 -0.0109 -0.2284  0.0797
 4055POPC   C4B49188  20.455  28.882   5.886 -0.0411  0.0420 -0.1159
 4056POPC   NC349189   5.705  25.015   8.040  0.0276 -0.0331  0.1808
 4056POPC   PO449190   5.759  24.751   7.779  0.1015  0.2072 -0.1358
 4056POPC   GL149191   5.746  25.063   7.528  0.0220 -0.1904  0.2452
 4056POPC   GL249192   5.488  25.198   7.611  0.2137 -0.0327 -0.1074
 4056POPC   C1A49193   5.652  25.234   7.074  0.0454 -0.0876  0.0366
 4056POPC   D2A49194   5.640  25.120   6.578  0.3824  0.3023 -0.3252
 4056POPC   C3A49195   5.918  25.087   6.204  0.2533  0.0590  0.2772
 4056POPC   C4A49196   6.001  25.431   5.875  0.0202  0.2569 -0.2190
 4056POPC   C1B49197   5.332  24.930   7.268 -0.0265 -0.0956 -0.0048
 4056POPC   C2B49198   5.178  24.903   6.807  0.1641 -0.0800 -0.0917
 4056POPC   C3B49199   5.180  24.647   6.427  0.1828  0.1977 -0.1333
 4056POPC   C4B49200   4.993  24.241   6.202  0.0128  0.1754 -0.0010
 4057POPC   NC349201  11.251   1.347   7.851  0.2265 -0.3980  0.0974
 4057POPC   PO449202  11.542   1.624   7.744 -0.0021  0.0917 -0.1813
 4057POPC   GL149203  11.452   1.766   7.388 -0.0422 -0.0277 -0.0885
 4057POPC   GL249204  11.611   1.952   7.388  0.0023 -0.3379 -0.1840
 4057POPC   C1A49205  11.068   1.837   7.188 -0.0396  0.2045  0.2587
 4057POPC   D2A49206  10.604   1.964   7.062 -0.0234 -0.3298  0.1971
 4057POPC   C3A49207  10.514   2.049   6.598  0.1823 -0.2576 -0.1721
 4057POPC   C4A49208  10.699   2.028   6.121  0.2111  0.3809  0.1018
 4057POPC   C1B49209  11.497   2.120   6.938  0.3183 -0.1102 -0.0471
 4057POPC   C2B49210  11.409   2.025   6.530 -0.0030 -0.1694  0.0942
 4057POPC   C3B49211  11.104   2.327   6.209 -0.0787  0.1799 -0.0192
 4057POPC   C4B49212  10.787   2.507   5.937 -0.1427  0.0811 -0.0428
 4058POPC   NC349213   4.727  24.570   8.148 -0.0209 -0.2702  0.0915
 4058POPC   PO449214   4.567  24.888   8.007 -0.0490 -0.4399  0.2695
 4058POPC   GL149215   4.602  24.875   7.631 -0.1958 -0.3634 -0.1307
 4058POPC   GL249216   4.845  24.674   7.623 -0.3042  0.0623 -0.2404
 4058POPC   C1A49217   4.418  24.672   7.277 -0.0160 -0.0619 -0.1874
 4058POPC   D2A49218   4.320  24.388   6.881  0.2109  0.3583  0.1590
 4058POPC   C3A49219   4.325  24.645   6.473  0.0270  0.2139 -0.4612
 4058POPC   C4A49220   4.337  24.613   6.020 -0.1020  0.0471 -0.0657
 4058POPC   C1B49221   4.850  24.942   7.215 -0.1174 -0.1445  0.0981
 4058POPC   C2B49222   4.714  25.051   6.767 -0.1060 -0.1092 -0.0747
 4058POPC   C3B49223   4.791  24.929   6.307  0.1396  0.0092  0.1129
 4058POPC   C4B49224   4.877  24.655   5.932  0.1283  0.1176 -0.0008
 4059POPC   NC349225  29.684  15.471   7.770  0.0014 -0.1486 -0.1462
 4059POPC   PO449226  29.375  15.453   7.976  0.0182 -0.2541  0.3318
 4059POPC   GL149227  29.123  15.643   7.664  0.2879 -0.0174 -0.2674
 4059POPC   GL249228  29.329  15.768   7.529 -0.0254 -0.2013  0.1256
 4059POPC   C1A49229  28.901  15.790   7.288 -0.1157 -0.1640 -0.2306
 4059POPC   D2A49230  28.612  15.827   6.945  0.0736  0.0433  0.2640
 4059POPC   C3A49231  28.669  15.909   6.460 -0.3990 -0.1549  0.6216
 4059POPC   C4A49232  28.787  15.711   6.052  0.3922 -0.1217  0.0017
 4059POPC   C1B49233  29.330  15.676   7.083 -0.1225 -0.4002 -0.0555
 4059POPC   C2B49234  28.997  15.461   6.849 -0.2551 -0.3861  0.1442
 4059POPC   C3B49235  28.748  15.367   6.494  0.2974 -0.0066 -0.0435
 4059POPC   C4B49236  28.756  15.106   6.120 -0.1157 -0.2367 -0.1300
 4060POPC   NC349237  24.310  30.769   8.226 -0.1064 -0.2427 -0.0020
 4060POPC   PO449238  24.161  30.682   7.858  0.1439 -0.1087 -0.0851
 4060POPC   GL149239  24.060  30.347   7.610 -0.2629 -0.7475 -0.1200
 4060POPC   GL249240  24.325  30.308   7.552 -0.3437  0.1255  0.3598
 4060POPC   C1A49241  24.122  29.931   7.823 -0.1235  0.1477 -0.2031
 4060POPC   D2A49242  24.055  29.464   7.686 -0.0892  0.1026  0.1817
 4060POPC   C3A49243  24.236  29.017   7.528 -0.0955  0.0149 -0.2156
 4060POPC   C4A49244  24.382  28.667   7.253 -0.2180 -0.1926  0.2002
 4060POPC   C1B49245  24.433  29.867   7.443  0.1560 -0.0106 -0.0157
 4060POPC   C2B49246  24.207  29.549   7.182 -0.1196 -0.1519 -0.1139
 4060POPC   C3B49247  24.177  29.130   7.001  0.0803  0.1574 -0.0947
 4060POPC   C4B49248  24.438  28.887   6.738  0.0192  0.2759 -0.0243
 4061POPC   NC349249  31.614  15.280   7.754 -0.0131  0.1548 -0.2956
 4061POPC   PO449250  31.243  15.293   7.944  0.1556 -0.0843  0.0672
 4061POPC   GL149251  31.186  15.225   7.565 -0.0592 -0.2060  0.3693
 4061POPC   GL249252  30.898  15.128   7.593 -0.0153 -0.0053  0.0418
 4061POPC   C1A49253  30.980  15.466   7.187  0.0575  0.0206 -0.2113
 4061POPC   D2A49254  30.891  15.306   6.794  0.2514 -0.2188 -0.0317
 4061POPC   C3A49255  30.603  14.883   6.781 -0.1064  0.2691 -0.1796
 4061POPC   C4A49256  30.681  14.512   6.873  0.1157 -0.0077  0.1922
 4061POPC   C1B49257  30.545  15.078   7.269  0.1893 -0.1272  0.1104
 4061POPC   C2B49258  30.260  14.718   7.060 -0.2119 -0.2294 -0.0914
 4061POPC   C3B49259  29.939  14.577   6.771 -0.2577 -0.0208 -0.1802
 4061POPC   C4B49260  29.754  14.477   6.390  0.1205  0.1032  0.2953
 4062POPC   NC349261   5.323  13.442   8.083 -0.2135 -0.2105 -0.4957
 4062POPC   PO449262   4.978  13.510   8.020 -0.1190  0.0937  0.1292
 4062POPC   GL149263   4.786  13.765   7.809  0.2775 -0.0197  0.2100
 4062POPC   GL249264   4.658  14.022   8.013 -0.0361  0.1935 -0.2191
 4062POPC   C1A49265   4.734  14.105   7.487 -0.0780 -0.2218 -0.1630
 4062POPC   D2A49266   4.467  14.215   7.113  0.1998  0.2532  0.2384
 4062POPC   C3A49267   4.330  14.250   6.682 -0.1258 -0.2890 -0.0541
 4062POPC   C4A49268   4.352  14.473   6.279  0.1657  0.5202  0.1627
 4062POPC   C1B49269   4.238  14.144   7.971 -0.2587 -0.0880  0.0545
 4062POPC   C2B49270   3.861  14.059   7.748 -0.1337 -0.3379 -0.0270
 4062POPC   C3B49271   3.706  14.362   7.481  0.2655  0.2182 -0.2008
 4062POPC   C4B49272   3.493  14.548   7.150 -0.0800 -0.2115 -0.0114
 4063POPC   NC349273   1.948   8.699   7.611 -0.0963  0.0464 -0.1800
 4063POPC   PO449274   2.205   8.976   7.573  0.0877  0.3597  0.2386
 4063POPC   GL149275   2.100   9.158   7.225 -0.1621  0.0512  0.1243
 4063POPC   GL249276   2.288   9.028   6.992 -0.0600  0.0520 -0.2073
 4063POPC   C1A49277   2.096   9.445   6.881 -0.0470 -0.1751 -0.0270
 4063POPC   D2A49278   1.780   9.325   6.595 -0.1507 -0.1587  0.3181
 4063POPC   C3A49279   1.671   9.375   6.146  0.2529  0.0265 -0.0451
 4063POPC   C4A49280   1.875   9.635   5.785 -0.2884  0.1639 -0.0557
 4063POPC   C1B49281   2.079   8.792   6.675 -0.0215  0.1819  0.3240
 4063POPC   C2B49282   2.040   8.877   6.209 -0.2513  0.1201 -0.5961
 4063POPC   C3B49283   2.018   9.137   5.821  0.1079 -0.0680 -0.0763
 4063POPC   C4B49284   1.653   9.209   5.596  0.0043  0.1377  0.0052
 4064POPC   NC349285   9.916   1.254   8.299 -0.1652 -0.0881 -0.0207
 4064POPC   PO449286   9.765   0.919   8.223  0.3030 -0.0917  0.0383
 4064POPC   GL149287   9.693   1.099   7.908 -0.2740 -0.3571 -0.3134
 4064POPC   GL249288   9.394   1.073   7.872  0.1722 -0.2743 -0.0228
 4064POPC   C1A49289   9.937   1.150   7.520 -0.0319 -0.0338  0.2603
 4064POPC   D2A49290   9.919   1.265   7.043  0.0969  0.0320  0.1070
 4064POPC   C3A49291   9.744   1.566   6.687 -0.1017  0.2311  0.0058
 4064POPC   C4A49292   9.506   1.807   6.325  0.1443 -0.0693  0.1142
 4064POPC   C1B49293   9.408   1.181   7.440  0.2835 -0.0590  0.0705
 4064POPC   C2B49294   9.382   1.387   7.066  0.2083  0.1990 -0.3297
 4064POPC   C3B49295   9.203   1.565   6.684  0.0153  0.2804 -0.1599
 4064POPC   C4B49296   9.060   1.993   6.573  0.0859 -0.0165 -0.0156
 4065POPC   NC349297   1.010  10.096   7.910  0.0002  0.0789 -0.2761
 4065POPC   PO449298   0.588  10.138   7.917 -0.0119  0.2022 -0.1838
 4065POPC   GL149299   0.568  10.187   7.504  0.0279  0.0182 -0.2212
 4065POPC   GL249300   0.900  10.318   7.484 -0.2631 -0.1599 -0.0044
 4065POPC   C1A49301   0.717   9.784   7.244 -0.0563  0.0523  0.1109
 4065POPC   D2A49302   0.825   9.370   7.074 -0.4816  0.0872  0.0095
 4065POPC   C3A49303   0.501   9.324   6.695  0.2469 -0.0444  0.0230
 4065POPC   C4A49304   0.221   9.483   6.385  0.1037 -0.1929  0.0864
 4065POPC   C1B49305   0.952  10.275   7.048 -0.1723  0.0858  0.1723
 4065POPC   C2B49306   1.082  10.378   6.642  0.0709 -0.4333  0.1468
 4065POPC   C3B49307   1.428  10.270   6.352 -0.0550  0.1135  0.1698
 4065POPC   C4B49308   1.432   9.968   6.036 -0.0693 -0.1449 -0.0793
 4066POPC   NC349309   9.691  13.697   8.262 -0.1808  0.3175  0.3256
 4066POPC   PO449310  10.099  13.735   8.211  0.2755 -0.2124  0.3789
 4066POPC   GL149311  10.132  13.517   7.855 -0.0452  0.0711  0.1016
 4066POPC   GL249312  10.028  13.254   7.978 -0.0149  0.1315  0.1366
 4066POPC   C1A49313  10.438  13.235   7.678  0.1310 -0.1409  0.0483
 4066POPC   D2A49314  10.771  13.209   7.309 -0.2304 -0.0147  0.0871
 4066POPC   C3A49315  11.200  13.177   7.164  0.0194  0.0593 -0.0766
 4066POPC   C4A49316  11.640  13.083   7.277 -0.2454  0.1230 -0.0019
 4066POPC   C1B49317   9.962  13.094   7.553  0.1886  0.0591 -0.1652
 4066POPC   C2B49318   9.998  13.151   7.119  0.2530 -0.0981  0.1946
 4066POPC   C3B49319   9.968  13.045   6.676 -0.1434  0.0350 -0.3300
 4066POPC   C4B49320  10.013  12.738   6.364  0.3361 -0.2023  0.3109
 4067POPC   NC349321  25.170  23.586   7.865 -0.2336 -0.0056  0.0299
 4067POPC   PO449322  25.443  23.347   8.036  0.3928  0.2222  0.0215
 4067POPC   GL149323  25.626  23.112   7.713  0.3673 -0.0465  0.3214
 4067POPC   GL249324  25.682  23.365   7.546 -0.0352  0.3791 -0.4505
 4067POPC   C1A49325  25.811  22.888   7.348 -0.0527 -0.2204 -0.1886
 4067POPC   D2A49326  25.808  22.997   6.870 -0.1008 -0.1221 -0.5247
 4067POPC   C3A49327  25.790  22.652   6.598  0.0811 -0.1311 -0.0122
 4067POPC   C4A49328  25.752  22.251   6.363 -0.0802  0.0406 -0.3568
 4067POPC   C1B49329  25.652  23.420   7.054  0.1531  0.0968 -0.0609
 4067POPC   C2B49330  25.874  23.419   6.599 -0.1749  0.0613  0.3458
 4067POPC   C3B49331  25.873  23.254   6.202  0.1168  0.0484  0.0185
 4067POPC   C4B49332  25.861  22.827   6.095 -0.0022 -0.3880  0.1886
 4068POPC   NC349333  20.269  13.906   7.509  0.0808  0.0464 -0.0213
 4068POPC   PO449334  20.057  13.597   7.709 -0.0567  0.0064  0.6483
 4068POPC   GL149335  20.018  13.379   7.354 -0.2120  0.2496 -0.4047
 4068POPC   GL249336  20.197  13.564   7.156  0.2784  0.4000  0.1287
 4068POPC   C1A49337  20.186  13.051   7.046 -0.2873 -0.2056 -0.1690
 4068POPC   D2A49338  20.251  12.814   6.687 -0.0898  0.2314 -0.1828
 4068POPC   C3A49339  20.487  13.024   6.363  0.0862  0.0909 -0.0010
 4068POPC   C4A49340  20.601  13.194   5.938  0.0243  0.0030 -0.1907
 4068POPC   C1B49341  20.358  13.457   6.724  0.2127 -0.3349  0.0578
 4068POPC   C2B49342  20.189  13.469   6.258 -0.1546 -0.0962  0.0261
 4068POPC   C3B49343  20.152  13.493   5.831  0.0889  0.1941 -0.3890
 4068POPC   C4B49344  20.064  13.266   5.412 -0.0625 -0.1046 -0.2292
 4069POPC   NC349345  17.553   1.040   8.215  0.0607  0.2364 -0.0425
 4069POPC   PO449346  17.853   1.020   7.943 -0.3404 -0.0581  0.1032
 4069POPC   GL149347  17.974   0.873   7.474  0.2238  0.0839 -0.0535
 4069POPC   GL249348  17.928   1.221   7.339 -0.1439 -0.0719 -0.1523
 4069POPC   C1A49349  17.772   0.839   7.078 -0.0445 -0.0201  0.2226
 4069POPC   D2A49350  17.550   0.970   6.668  0.4118 -0.1972 -0.0693
 4069POPC   C3A49351  17.729   1.289   6.405 -0.1135  0.1879  0.3737
 4069POPC   C4A49352  18.122   1.173   6.145  0.1168 -0.1138  0.0108
 4069POPC   C1B49353  17.806   1.385   6.927 -0.1252  0.1287 -0.0796
 4069POPC   C2B49354  17.822   1.778   6.575 -0.0276 -0.2059 -0.2617
 4069POPC   C3B49355  18.091   1.867   6.212 -0.2158 -0.1822 -0.1674
 4069POPC   C4B49356  18.500   2.060   6.087  0.1391 -0.0767 -0.0446
 4070POPC   NC349357  23.620   1.061   7.773  0.2618 -0.2653  0.0520
 4070POPC   PO449358  23.877   0.745   7.760  0.2117 -0.0569  0.0132
 4070POPC   GL149359  23.975   0.699   7.387 -0.1851 -0.4013  0.1522
 4070POPC   GL249360  23.985   0.965   7.254 -0.1795 -0.0495  0.2453
 4070POPC   C1A49361  24.400   0.588   7.222 -0.1349 -0.0995 -0.2945
 4070POPC   D2A49362  24.391   0.364   6.801 -0.0124  0.0425  0.0268
 4070POPC   C3A49363  24.619   0.695   6.513  0.0874 -0.1524  0.1080
 4070POPC   C4A49364  24.701   0.815   6.052 -0.1067 -0.0883 -0.5217
 4070POPC   C1B49365  24.169   0.896   6.805  0.0318  0.3730  0.0543
 4070POPC   C2B49366  24.138   0.667   6.389 -0.1743 -0.2877 -0.2257
 4070POPC   C3B49367  24.164   0.669   5.938  0.1296 -0.0056  0.1523
 4070POPC   C4B49368  24.126   0.601   5.465  0.0681 -0.0234 -0.0138
 4071POPC   NC349369   0.077   1.764   7.806  0.1136 -0.0306  0.2376
 4071POPC   PO449370  -0.196   1.531   7.775  0.1606 -0.0921 -0.3481
 4071POPC   GL149371  -0.409   1.458   7.333  0.1973 -0.6553  0.1531
 4071POPC   GL249372  -0.651   1.361   7.233  0.0307 -0.0389  0.0955
 4071POPC   C1A49373  -0.372   1.792   6.956  0.4121 -0.0960  0.0010
 4071POPC   D2A49374  -0.467   1.856   6.527 -0.0882 -0.1320 -0.0731
 4071POPC   C3A49375  -0.162   1.858   6.189 -0.3398  0.1276  0.1362
 4071POPC   C4A49376   0.204   1.694   5.938 -0.0019  0.1136 -0.0488
 4071POPC   C1B49377  -0.652   1.361   6.796 -0.1360 -0.0348  0.1187
 4071POPC   C2B49378  -0.760   1.375   6.360 -0.2043 -0.0353  0.0485
 4071POPC   C3B49379  -0.656   1.633   5.990 -0.0516  0.0552  0.2978
 4071POPC   C4B49380  -0.318   1.546   5.792  0.2541 -0.1634  0.2432
 4072POPC   NC349381  14.641  12.305   8.215 -0.0638  0.2467 -0.0774
 4072POPC   PO449382  14.958  12.268   7.998 -0.0333 -0.3061 -0.1922
 4072POPC   GL149383  14.843  12.428   7.671 -0.0782 -0.4521 -0.1722
 4072POPC   GL249384  14.741  12.167   7.575 -0.0513 -0.0923 -0.2390
 4072POPC   C1A49385  15.215  12.609   7.453 -0.2748 -0.2445 -0.0934
 4072POPC   D2A49386  15.526  12.444   7.152 -0.0559  0.3099  0.3046
 4072POPC   C3A49387  15.790  12.640   6.845  0.0556 -0.3296  0.3236
 4072POPC   C4A49388  15.860  12.565   6.369  0.2597 -0.0345 -0.2345
 4072POPC   C1B49389  14.796  12.393   7.197 -0.0679 -0.1609 -0.1767
 4072POPC   C2B49390  14.920  12.254   6.794 -0.0410  0.0484  0.5738
 4072POPC   C3B49391  14.889  12.170   6.372 -0.0781 -0.1279 -0.0785
 4072POPC   C4B49392  15.031  12.059   5.967 -0.3739  0.1498 -0.2354
 4073POPC   NC349393  15.816  15.537   8.022 -0.5758 -0.2269 -0.0278
 4073POPC   PO449394  15.590  15.493   7.741 -0.0497  0.3452 -0.1781
 4073POPC   GL149395  15.500  15.484   7.352  0.4157 -0.0073 -0.0005
 4073POPC   GL249396  15.241  15.437   7.338 -0.1790 -0.0027  0.1115
 4073POPC   C1A49397  15.565  15.106   7.096 -0.1306  0.0277  0.1886
 4073POPC   D2A49398  15.544  15.009   6.646  0.0634 -0.0903 -0.1157
 4073POPC   C3A49399  15.548  15.350   6.340  0.1144  0.0209  0.1773
 4073POPC   C4A49400  15.608  15.399   5.845 -0.3416  0.1177 -0.2505
 4073POPC   C1B49401  15.180  15.341   6.856 -0.2688 -0.0800  0.0701
 4073POPC   C2B49402  15.121  15.148   6.496  0.3109 -0.0946 -0.0087
 4073POPC   C3B49403  14.835  14.958   6.146  0.0723  0.1840 -0.1375
 4073POPC   C4B49404  14.818  15.089   5.714 -0.1937 -0.1805 -0.4242
 4074POPC   NC349405  14.620   3.051   8.155  0.1215 -0.0025  0.3750
 4074POPC   PO449406  14.751   3.081   7.763  0.2079  0.1746 -0.0694
 4074POPC   GL149407  14.809   3.140   7.400  0.0321  0.1017 -0.2277
 4074POPC   GL249408  14.521   3.176   7.337  0.0243  0.0414  0.2969
 4074POPC   C1A49409  15.011   3.344   7.032  0.1521  0.4720  0.2301
 4074POPC   D2A49410  14.933   3.181   6.562  0.3122 -0.1116 -0.0012
 4074POPC   C3A49411  15.075   3.501   6.326  0.0204 -0.1670 -0.1673
 4074POPC   C4A49412  14.971   3.713   5.910  0.0080  0.3735 -0.0182
 4074POPC   C1B49413  14.586   2.892   6.925 -0.1769 -0.1641  0.0156
 4074POPC   C2B49414  14.741   2.685   6.547  0.0566 -0.0321 -0.0242
 4074POPC   C3B49415  14.700   2.585   6.086 -0.2201 -0.3188  0.1418
 4074POPC   C4B49416  14.536   2.618   5.650 -0.0941  0.0254 -0.0450
 4075POPC   NC349417  10.885  31.497   7.832  0.1048  0.1679  0.1335
 4075POPC   PO449418  10.482  31.425   7.872 -0.0872 -0.1478 -0.2688
 4075POPC   GL149419  10.325  31.311   7.535  0.3382  0.1427 -0.1282
 4075POPC   GL249420  10.355  31.609   7.457  0.1935  0.3815  0.0931
 4075POPC   C1A49421  10.292  31.342   7.032 -0.0269 -0.0971 -0.0509
 4075POPC   D2A49422  10.314  31.466   6.611  0.1866 -0.0444 -0.0510
 4075POPC   C3A49423  10.601  31.473   6.250  0.1433  0.0756  0.2532
 4075POPC   C4A49424  10.703  31.850   5.949  0.2155  0.2141 -0.1558
 4075POPC   C1B49425  10.503  31.758   7.028  0.0371  0.1324 -0.2273
 4075POPC   C2B49426  10.805  31.577   6.744 -0.2397  0.1698  0.0930
 4075POPC   C3B49427  11.062  31.310   6.521  0.1166  0.2944  0.0913
 4075POPC   C4B49428  10.929  31.110   6.150 -0.0970 -0.1782  0.0131
 4076POPC   NC349429  14.319  18.743   7.910 -0.0460 -0.1801  0.1032
 4076POPC   PO449430  14.561  18.510   7.666 -0.0194 -0.0386  0.0736
 4076POPC   GL149431  14.822  18.626   7.331  0.0381 -0.4335 -0.2603
 4076POPC   GL249432  15.080  18.650   7.485 -0.4707  0.1779 -0.0624
 4076POPC   C1A49433  14.558  18.728   6.940  0.3131 -0.1659 -0.0621
 4076POPC   D2A49434  14.385  18.384   6.669  0.1134  0.1342 -0.0045
 4076POPC   C3A49435  14.503  18.376   6.178 -0.3300 -0.3396 -0.0803
 4076POPC   C4A49436  14.558  18.651   5.799  0.0950  0.1901  0.2765
 4076POPC   C1B49437  15.368  18.560   7.103  0.1043 -0.2109 -0.1278
 4076POPC   C2B49438  15.590  18.715   6.711 -0.2694 -0.2020  0.0529
 4076POPC   C3B49439  15.670  18.958   6.306 -0.2050  0.3125 -0.1332
 4076POPC   C4B49440  15.959  19.104   5.972 -0.1213  0.0443  0.0281
 4077POPC   NC349441   3.021   0.016   7.966 -0.2533  0.1158  0.0469
 4077POPC   PO449442   3.427   0.042   7.958 -0.0928  0.2953  0.0939
 4077POPC   GL149443   3.386   0.225   7.599  0.0565  0.3653  0.2057
 4077POPC   GL249444   3.554   0.447   7.553  0.1882 -0.1166 -0.0671
 4077POPC   C1A49445   3.092   0.512   7.281  0.0316  0.1029 -0.3861
 4077POPC   D2A49446   2.914   0.953   7.185 -0.0782  0.0015  0.0395
 4077POPC   C3A49447   2.880   0.965   6.735 -0.1117  0.3870  0.5121
 4077POPC   C4A49448   2.668   0.897   6.354  0.1070  0.3292  0.0218
 4077POPC   C1B49449   3.540   0.728   7.148 -0.0274 -0.0471  0.0250
 4077POPC   C2B49450   3.428   0.922   6.761 -0.2227  0.2761  0.1103
 4077POPC   C3B49451   3.296   1.033   6.312 -0.2114  0.2530 -0.1443
 4077POPC   C4B49452   2.947   1.005   5.978 -0.0213  0.2082  0.0989
 4078POPC   NC349453  12.170  17.974   7.367  0.0708 -0.4426  0.2837
 4078POPC   PO449454  12.230  17.615   7.569  0.2375 -0.0751 -0.2240
 4078POPC   GL149455  12.237  17.563   7.099 -0.1489  0.1805 -0.2325
 4078POPC   GL249456  12.545  17.474   7.003  0.3852  0.1130 -0.0534
 4078POPC   C1A49457  12.261  17.625   6.605 -0.1778  0.1299  0.0811
 4078POPC   D2A49458  12.328  17.422   6.173 -0.3600 -0.1141 -0.1386
 4078POPC   C3A49459  12.346  17.166   5.844  0.0773  0.0883  0.3410
 4078POPC   C4A49460  12.000  17.202   5.552 -0.1165  0.1838  0.0538
 4078POPC   C1B49461  12.607  17.172   6.652 -0.2168 -0.0206  0.4030
 4078POPC   C2B49462  12.838  17.135   6.250 -0.0396  0.0219 -0.0921
 4078POPC   C3B49463  12.883  17.174   5.797 -0.0791  0.3281 -0.2972
 4078POPC   C4B49464  12.602  17.286   5.410 -0.0462 -0.1004  0.1559
 4079POPC   NC349465   8.736  11.643   8.586  0.2558  0.1493 -0.1658
 4079POPC   PO449466   8.868  11.893   8.313 -0.6048  0.2301  0.5961
 4079POPC   GL149467   8.997  12.039   8.034 -0.2428  0.2976  0.1575
 4079POPC   GL249468   8.860  11.874   7.769 -0.2488  0.1714  0.0936
 4079POPC   C1A49469   9.322  11.987   7.712 -0.1468 -0.2749  0.1474
 4079POPC   D2A49470   9.634  12.163   7.512 -0.2810 -0.0763  0.0305
 4079POPC   C3A49471   9.878  11.863   7.238  0.0512  0.0941 -0.1138
 4079POPC   C4A49472  10.261  11.861   7.001  0.1047 -0.0489 -0.1308
 4079POPC   C1B49473   9.011  11.702   7.420  0.3064 -0.0326 -0.1156
 4079POPC   C2B49474   8.987  11.866   6.962 -0.0374 -0.0452  0.1085
 4079POPC   C3B49475   8.934  12.027   6.548  0.1870  0.2393 -0.1154
 4079POPC   C4B49476   8.430  12.157   6.518 -0.0617  0.0114 -0.2482
 4080POPC   NC349477  25.775  13.760   8.283 -0.2400  0.0633  0.1027
 4080POPC   PO449478  25.562  13.596   8.030  0.0015 -0.1137 -0.0760
 4080POPC   GL149479  25.519  13.683   7.677  0.0960 -0.1301 -0.0863
 4080POPC   GL249480  25.598  13.503   7.455  0.1224  0.2475  0.2278
 4080POPC   C1A49481  25.135  13.725   7.442  0.2914 -0.2109  0.4478
 4080POPC   D2A49482  25.025  13.735   6.994 -0.1419 -0.1014 -0.2176
 4080POPC   C3A49483  24.854  13.673   6.597 -0.3302 -0.2545 -0.2815
 4080POPC   C4A49484  24.761  13.729   6.095 -0.1776  0.0418 -0.0022
 4080POPC   C1B49485  25.850  13.408   7.055 -0.1205  0.3616 -0.2792
 4080POPC   C2B49486  26.018  13.428   6.605 -0.4788  0.0587 -0.4514
 4080POPC   C3B49487  26.505  13.399   6.388 -0.1254  0.1838  0.0916
 4080POPC   C4B49488  26.689  13.527   5.986  0.0440 -0.3243  0.1668
 4081POPC   NC349489   0.731   9.192   7.568  0.1560  0.4367 -0.0118
 4081POPC   PO449490   0.832   8.805   7.509 -0.1454 -0.2923  0.2654
 4081POPC   GL149491   0.634   8.746   7.220 -0.0440 -0.2874 -0.2681
 4081POPC   GL249492   0.454   8.972   7.267  0.1671 -0.1915 -0.1411
 4081POPC   C1A49493   0.702   8.844   6.806  0.2141  0.0589  0.0046
 4081POPC   D2A49494   0.570   8.681   6.314 -0.0766  0.1096 -0.0476
 4081POPC   C3A49495   0.648   8.729   5.874  0.3371 -0.0457  0.0795
 4081POPC   C4A49496   0.552   8.572   5.454 -0.3454  0.1711 -0.0528
 4081POPC   C1B49497   0.233   8.940   6.879  0.2098  0.1928 -0.1632
 4081POPC   C2B49498   0.045   8.853   6.454 -0.1823  0.0950 -0.0313
 4081POPC   C3B49499   0.023   8.966   5.999  0.1240 -0.0675 -0.3751
 4081POPC   C4B49500   0.153   8.662   5.654 -0.2627 -0.1844 -0.0808
 4082POPC   NC349501   8.151  22.296   8.113  0.0324 -0.2924  0.0674
 4082POPC   PO449502   7.916  22.016   8.051  0.3188 -0.0477 -0.2437
 4082POPC   GL149503   7.769  22.150   7.698  0.2287 -0.2742 -0.3425
 4082POPC   GL249504   7.947  22.441   7.689 -0.4542 -0.2095 -0.1751
 4082POPC   C1A49505   7.760  22.265   7.261 -0.1162  0.0721  0.0275
 4082POPC   D2A49506   7.815  22.342   6.787 -0.0814  0.0144  0.3065
 4082POPC   C3A49507   7.938  22.077   6.397  0.0310 -0.2294  0.4058
 4082POPC   C4A49508   8.097  22.192   5.931  0.1919  0.1794  0.0624
 4082POPC   C1B49509   8.258  22.327   7.409 -0.2460  0.2199  0.0502
 4082POPC   C2B49510   8.332  22.125   6.933 -0.6286 -0.1103  0.1749
 4082POPC   C3B49511   8.539  22.185   6.515 -0.2924  0.3957 -0.1327
 4082POPC   C4B49512   8.678  22.051   6.059 -0.1263 -0.2130 -0.1127
 4083POPC   NC349513  14.393  20.656   7.794 -0.0427 -0.0938  0.2712
 4083POPC   PO449514  14.762  20.474   7.690  0.0617  0.0782 -0.1483
 4083POPC   GL149515  15.050  20.213   7.462 -0.3019 -0.1419 -0.2664
 4083POPC   GL249516  14.860  20.324   7.194  0.0254 -0.0400  0.1235
 4083POPC   C1A49517  15.372  20.402   7.186 -0.1905 -0.1056 -0.0436
 4083POPC   D2A49518  15.558  20.009   7.016 -0.1723  0.2218  0.3168
 4083POPC   C3A49519  15.709  19.962   6.633 -0.0534  0.0687 -0.0976
 4083POPC   C4A49520  15.887  19.982   6.214 -0.0227 -0.1432  0.1923
 4083POPC   C1B49521  14.547  20.251   6.946 -0.1721 -0.1663 -0.2187
 4083POPC   C2B49522  14.472  20.234   6.450 -0.0940  0.0114 -0.2772
 4083POPC   C3B49523  14.604  20.115   6.007  0.0260 -0.0669 -0.1065
 4083POPC   C4B49524  14.973  19.987   5.767  0.0179 -0.1405 -0.0688
 4084POPC   NC349525   7.289  10.421   7.888 -0.1209 -0.2409  0.0270
 4084POPC   PO449526   7.128  10.473   7.530 -0.0823  0.1687 -0.3186
 4084POPC   GL149527   7.070  10.505   7.171 -0.0777 -0.0189 -0.0786
 4084POPC   GL249528   6.926  10.371   7.087  0.1918  0.2031  0.0672
 4084POPC   C1A49529   7.388  10.569   6.866  0.1647  0.0636  0.4717
 4084POPC   D2A49530   7.760  10.360   6.770 -0.2169 -0.2379  0.1890
 4084POPC   C3A49531   7.797  10.289   6.302  0.4016  0.2872 -0.2385
 4084POPC   C4A49532   7.567  10.043   5.997  0.2709  0.0117 -0.2355
 4084POPC   C1B49533   7.155  10.111   6.848 -0.1084 -0.2164  0.0688
 4084POPC   C2B49534   7.286  10.189   6.395 -0.0862  0.1535  0.0908
 4084POPC   C3B49535   7.109  10.417   6.039 -0.1135  0.0101 -0.0507
 4084POPC   C4B49536   6.706  10.650   5.990 -0.0062  0.5301  0.3149
 4085POPC   NC349537   2.726   6.237   7.768  0.2025 -0.0290 -0.3952
 4085POPC   PO449538   2.324   6.236   7.840 -0.2063  0.3048 -0.1110
 4085POPC   GL149539   2.167   6.118   7.460  0.3010  0.2733 -0.1472
 4085POPC   GL249540   1.894   6.081   7.470 -0.2119  0.0911  0.0435
 4085POPC   C1A49541   2.286   6.091   7.006  0.0292  0.3306  0.0080
 4085POPC   D2A49542   2.292   6.309   6.599  0.1071  0.0087 -0.0422
 4085POPC   C3A49543   2.166   6.116   6.165 -0.2441 -0.0900 -0.1313
 4085POPC   C4A49544   2.557   5.838   6.097  0.2593 -0.1136 -0.0841
 4085POPC   C1B49545   1.861   5.838   7.037  0.0072  0.0355  0.2084
 4085POPC   C2B49546   1.795   5.656   6.578  0.2645  0.0592  0.1429
 4085POPC   C3B49547   1.817   5.685   6.145 -0.1537  0.0615  0.1637
 4085POPC   C4B49548   1.974   5.698   5.691  0.1625  0.0049  0.3041
 4086POPC   NC349549  13.711  29.870   7.761 -0.0864  0.1430 -0.2583
 4086POPC   PO449550  13.403  29.612   7.887 -0.0842  0.0037 -0.2919
 4086POPC   GL149551  13.171  29.545   7.532  0.1310 -0.0037  0.0456
 4086POPC   GL249552  12.890  29.702   7.459 -0.2350 -0.1906  0.1280
 4086POPC   C1A49553  13.313  29.410   7.169 -0.0282  0.0255  0.1571
 4086POPC   D2A49554  13.311  29.073   6.805 -0.1744 -0.1607 -0.1410
 4086POPC   C3A49555  13.299  29.363   6.410 -0.0597  0.0980  0.1056
 4086POPC   C4A49556  13.394  29.241   5.999  0.0832 -0.1287  0.0516
 4086POPC   C1B49557  12.672  29.707   7.046 -0.1081 -0.0025  0.0091
 4086POPC   C2B49558  12.496  29.930   6.670 -0.2836  0.0329 -0.0508
 4086POPC   C3B49559  12.600  30.118   6.270  0.0538  0.0911 -0.0632
 4086POPC   C4B49560  12.676  29.941   5.884 -0.0572 -0.1802  0.2291
 4087POPC   NC349561  20.485  30.697   7.387 -0.0204 -0.0039 -0.0433
 4087POPC   PO449562  20.407  31.059   7.384  0.3110  0.0679  0.2096
 4087POPC   GL149563  20.170  31.158   7.020  0.0654  0.2707 -0.1576
 4087POPC   GL249564  20.330  31.190   6.813  0.0009  0.1166 -0.0488
 4087POPC   C1A49565  20.119  30.775   6.720  0.0769 -0.0704 -0.0681
 4087POPC   D2A49566  20.203  30.729   6.248 -0.0036  0.2372 -0.0109
 4087POPC   C3A49567  20.313  30.338   5.956  0.1490  0.1160 -0.1155
 4087POPC   C4A49568  20.599  30.221   5.628  0.1082  0.1146  0.0575
 4087POPC   C1B49569  20.493  31.036   6.468 -0.0810 -0.0201  0.0438
 4087POPC   C2B49570  20.791  31.130   6.174  0.0478  0.2170  0.2910
 4087POPC   C3B49571  21.198  31.078   5.932 -0.3426  0.1784 -0.4310
 4087POPC   C4B49572  21.633  30.883   6.026  0.0346  0.0849 -0.0702
 4088POPC   NC349573   2.481  16.394   7.202 -0.0846  0.4728  0.2497
 4088POPC   PO449574   2.855  16.326   7.389 -0.1015 -0.1871 -0.1076
 4088POPC   GL149575   2.978  16.350   7.000  0.0068  0.2146  0.0925
 4088POPC   GL249576   3.033  16.054   6.904 -0.3206  0.2785 -0.0170
 4088POPC   C1A49577   3.217  16.319   6.533 -0.2380  0.0800 -0.1955
 4088POPC   D2A49578   3.217  16.322   6.086 -0.1259  0.0654  0.2158
 4088POPC   C3A49579   3.562  16.422   5.828  0.1911  0.0310 -0.0219
 4088POPC   C4A49580   3.917  16.156   5.653  0.3232  0.0711 -0.1201
 4088POPC   C1B49581   3.145  15.848   6.524 -0.2629  0.0292 -0.2591
 4088POPC   C2B49582   3.224  15.641   6.078  0.0510 -0.2851 -0.0725
 4088POPC   C3B49583   3.479  15.442   5.803  0.0078  0.4203 -0.0734
 4088POPC   C4B49584   3.738  15.098   5.562 -0.0528  0.0582 -0.1689
 4089POPC   NC349585   8.540  16.987   7.701 -0.0629  0.0373 -0.0648
 4089POPC   PO449586   8.219  17.170   7.619  0.3298  0.0474 -0.0093
 4089POPC   GL149587   7.946  17.076   7.397  0.2116  0.4362  0.2443
 4089POPC   GL249588   7.796  16.801   7.413 -0.0143  0.0144  0.0304
 4089POPC   C1A49589   7.640  17.144   7.027  0.0060 -0.1024 -0.0451
 4089POPC   D2A49590   7.210  17.162   7.047  0.2031 -0.0996  0.0563
 4089POPC   C3A49591   7.188  16.724   7.033 -0.3150  0.1631 -0.1433
 4089POPC   C4A49592   7.442  16.417   7.312 -0.0681 -0.0208  0.2777
 4089POPC   C1B49593   7.728  16.642   6.941  0.2228 -0.2874 -0.1433
 4089POPC   C2B49594   7.469  16.706   6.594 -0.0748  0.4066  0.0631
 4089POPC   C3B49595   7.409  16.980   6.234 -0.2210 -0.1167  0.1712
 4089POPC   C4B49596   7.644  17.178   5.877 -0.1290 -0.0232  0.1026
 4090POPC   NC349597   1.071   1.381   7.800 -0.0057  0.1656 -0.0750
 4090POPC   PO449598   0.786   1.168   7.702 -0.1091  0.1296  0.1239
 4090POPC   GL149599   0.945   1.236   7.348 -0.0245  0.2787 -0.3405
 4090POPC   GL249600   1.217   1.212   7.321  0.0988 -0.1182  0.1464
 4090POPC   C1A49601   0.932   1.339   6.864 -0.0422  0.1130 -0.1269
 4090POPC   D2A49602   0.868   1.334   6.420 -0.0977 -0.1114  0.1939
 4090POPC   C3A49603   0.863   1.744   6.090 -0.2416  0.3211 -0.1854
 4090POPC   C4A49604   1.017   2.157   6.053  0.0418  0.0794 -0.1636
 4090POPC   C1B49605   1.423   1.241   6.958  0.0179 -0.2350  0.2473
 4090POPC   C2B49606   1.382   1.306   6.502 -0.1462  0.2146 -0.0902
 4090POPC   C3B49607   1.735   1.356   6.197  0.1165 -0.3385  0.2023
 4090POPC   C4B49608   2.065   1.495   5.887  0.2360  0.2476  0.0949
 4091POPC   NC349609   7.497  21.126   8.207  0.0385 -0.0768  0.2736
 4091POPC   PO449610   7.266  21.271   7.886  0.0431  0.1721 -0.1847
 4091POPC   GL149611   7.504  21.355   7.545  0.0780 -0.1446 -0.1819
 4091POPC   GL249612   7.303  21.450   7.375 -0.0636  0.2268 -0.0643
 4091POPC   C1A49613   7.772  21.700   7.382  0.1586 -0.1394 -0.0435
 4091POPC   D2A49614   7.883  21.867   6.955 -0.1197  0.1057 -0.0087
 4091POPC   C3A49615   8.168  21.745   6.610 -0.1719 -0.0428 -0.2263
 4091POPC   C4A49616   8.601  21.645   6.714  0.1404 -0.1486  0.1229
 4091POPC   C1B49617   7.426  21.382   6.889 -0.0067  0.0820  0.0712
 4091POPC   C2B49618   7.610  21.539   6.486 -0.1115  0.0938  0.1730
 4091POPC   C3B49619   7.652  21.658   6.044  0.1146  0.0434  0.0673
 4091POPC   C4B49620   7.842  21.889   5.613  0.0354 -0.0553 -0.0094
 4092POPC   NC349621  13.956  13.613   7.581  0.0462  0.0190  0.2278
 4092POPC   PO449622  13.606  13.708   7.766  0.1361  0.1044 -0.0920
 4092POPC   GL149623  13.587  13.798   7.408 -0.2278 -0.1075  0.3803
 4092POPC   GL249624  13.801  13.927   7.209 -0.0311 -0.1893  0.1108
 4092POPC   C1A49625  13.373  13.683   7.027 -0.1505 -0.0362 -0.0166
 4092POPC   D2A49626  13.112  13.613   6.623  0.1193  0.1035  0.1183
 4092POPC   C3A49627  13.242  13.455   6.191  0.0403 -0.2580  0.1532
 4092POPC   C4A49628  13.457  13.512   5.755  0.1483 -0.0791  0.0730
 4092POPC   C1B49629  13.993  13.698   6.790 -0.0500 -0.0255 -0.0653
 4092POPC   C2B49630  14.086  13.495   6.393 -0.2144  0.3105 -0.0639
 4092POPC   C3B49631  14.283  13.185   6.068 -0.0269 -0.1773  0.3502
 4092POPC   C4B49632  14.508  12.767   6.096  0.0512  0.0564  0.0426
 4093POPC   NC349633  10.149  27.902   7.775 -0.0529  0.0115 -0.1785
 4093POPC   PO449634  10.383  28.226   7.707 -0.2787  0.4150  0.1800
 4093POPC   GL149635  10.616  28.466   7.432  0.1542  0.1174  0.2707
 4093POPC   GL249636  10.677  28.317   7.212 -0.1181  0.0408  0.0670
 4093POPC   C1A49637  10.616  28.840   7.106 -0.0206  0.1488 -0.0316
 4093POPC   D2A49638  10.651  28.963   6.641  0.0609 -0.1578  0.3222
 4093POPC   C3A49639  10.867  28.732   6.301  0.0234  0.1388 -0.0859
 4093POPC   C4A49640  11.109  28.645   5.899  0.0159  0.1203 -0.6027
 4093POPC   C1B49641  10.594  28.264   6.789  0.1871 -0.2891  0.2264
 4093POPC   C2B49642  10.602  28.097   6.352 -0.0567  0.2020 -0.1195
 4093POPC   C3B49643  10.396  28.039   5.895  0.1697 -0.0897  0.0884
 4093POPC   C4B49644  10.530  27.899   5.425 -0.1133 -0.3394 -0.1248
 4094POPC   NC349645   1.911  16.411   7.120  0.1808  0.4202  0.0316
 4094POPC   PO449646   1.565  16.503   7.288  0.2152  0.0807  0.2434
 4094POPC   GL149647   1.379  16.259   7.007 -0.0864  0.1504 -0.3735
 4094POPC   GL249648   1.152  16.108   7.196  0.1696 -0.0004 -0.0516
 4094POPC   C1A49649   1.194  16.319   6.617  0.2919  0.0660  0.1315
 4094POPC   D2A49650   1.081  16.300   6.135  0.5508 -0.2417 -0.1029
 4094POPC   C3A49651   1.093  16.065   5.753  0.1874  0.0828  0.1874
 4094POPC   C4A49652   1.026  16.053   5.309  0.0172 -0.2791  0.2881
 4094POPC   C1B49653   1.310  15.850   6.893 -0.0901  0.2152  0.0815
 4094POPC   C2B49654   1.546  15.893   6.506  0.3124 -0.0565 -0.0924
 4094POPC   C3B49655   1.734  15.663   6.140 -0.1045  0.0429  0.0085
 4094POPC   C4B49656   1.887  15.587   5.727  0.1949  0.1998  0.1743
 4095POPC   NC349657  10.793  25.983   8.214 -0.2612 -0.0743  0.0552
 4095POPC   PO449658  10.433  26.003   8.071 -0.0612 -0.0330  0.4027
 4095POPC   GL149659  10.245  26.041   7.642 -0.1129  0.1321 -0.4754
 4095POPC   GL249660  10.033  25.897   7.718 -0.3279  0.0783  0.3541
 4095POPC   C1A49661  10.117  26.171   7.224 -0.2854 -0.0918  0.0312
 4095POPC   D2A49662  10.008  26.144   6.753  0.1250  0.1289  0.0252
 4095POPC   C3A49663  10.233  26.002   6.379  0.1102  0.0313  0.0153
 4095POPC   C4A49664  10.307  25.681   5.999 -0.1441  0.2259 -0.3095
 4095POPC   C1B49665  10.348  25.662   7.447  0.4833  0.0310  0.0878
 4095POPC   C2B49666  10.405  25.325   7.105  0.0043  0.2120 -0.0834
 4095POPC   C3B49667  10.364  25.109   6.696  0.1793  0.2244 -0.1582
 4095POPC   C4B49668  10.337  25.228   6.193  0.1133  0.0212  0.1022
 4096POPC   NC349669  16.355  25.313   7.363 -0.0222  0.0095  0.0326
 4096POPC   PO449670  15.968  25.189   7.379 -0.2606 -0.0963 -0.1966
 4096POPC   GL149671  15.978  25.274   7.041 -0.1678 -0.2035 -0.1261
 4096POPC   GL249672  16.116  25.116   6.893  0.0754  0.0003 -0.0587
 4096POPC   C1A49673  15.918  25.565   6.675  0.2391 -0.0273 -0.0267
 4096POPC   D2A49674  16.193  25.823   6.454 -0.0114  0.2171 -0.1362
 4096POPC   C3A49675  15.997  26.199   6.367 -0.0499 -0.2013  0.1575
 4096POPC   C4A49676  16.106  26.637   6.446 -0.1695 -0.0371 -0.1050
 4096POPC   C1B49677  16.345  25.345   6.516  0.1715 -0.1525 -0.1829
 4096POPC   C2B49678  16.584  25.631   6.253  0.1294 -0.0308 -0.0918
 4096POPC   C3B49679  16.953  25.825   6.052  0.1462 -0.0499 -0.3582
 4096POPC   C4B49680  17.222  26.021   5.713  0.1361  0.2339 -0.5011
 4097POPC   NC349681  25.702  16.678   8.318 -0.0914 -0.2386 -0.1381
 4097POPC   PO449682  25.993  16.657   8.055  0.0389 -0.3626 -0.0057
 4097POPC   GL149683  25.913  16.453   7.724 -0.0793  0.0647  0.4259
 4097POPC   GL249684  25.635  16.526   7.791  0.0573  0.0962 -0.0646
 4097POPC   C1A49685  25.667  16.335   7.333  0.3090 -0.3049  0.1580
 4097POPC   D2A49686  25.468  16.204   6.964 -0.1372 -0.1483  0.1062
 4097POPC   C3A49687  25.061  16.091   6.714  0.1474  0.1829  0.0477
 4097POPC   C4A49688  24.628  15.943   6.669  0.3506  0.2569 -0.1036
 4097POPC   C1B49689  25.809  16.802   7.446  0.1615 -0.0652  0.0142
 4097POPC   C2B49690  25.670  17.068   7.107 -0.1542  0.1200  0.1547
 4097POPC   C3B49691  25.449  17.250   6.756 -0.1169  0.2945  0.0244
 4097POPC   C4B49692  25.153  17.176   6.383  0.1737 -0.0446  0.1396
 4098POPC   NC349693  24.369  24.484   7.426 -0.1381  0.2926 -0.1599
 4098POPC   PO449694  24.759  24.335   7.411 -0.0966 -0.0820  0.2498
 4098POPC   GL149695  24.744  24.330   7.087  0.2039 -0.0901  0.1368
 4098POPC   GL249696  24.413  24.273   6.978 -0.0221  0.0295 -0.1188
 4098POPC   C1A49697  25.114  24.253   6.831  0.2864 -0.0815  0.0527
 4098POPC   D2A49698  25.079  24.119   6.325  0.1183  0.2067  0.0225
 4098POPC   C3A49699  25.188  24.332   5.918  0.3117 -0.0823  0.1106
 4098POPC   C4A49700  25.204  24.304   5.469 -0.1919 -0.2957 -0.0980
 4098POPC   C1B49701  24.138  24.281   6.606  0.0896 -0.2678 -0.0466
 4098POPC   C2B49702  24.076  24.240   6.170  0.0492 -0.3156 -0.1909
 4098POPC   C3B49703  23.932  24.208   5.782  0.1175  0.2279  0.0073
 4098POPC   C4B49704  23.743  24.106   5.357 -0.0839 -0.0864  0.0205
 4099POPC   NC349705  28.511  11.795   7.616  0.1577  0.1796  0.0005
 4099POPC   PO449706  28.212  11.564   7.724  0.0693  0.2476 -0.0377
 4099POPC   GL149707  28.444  11.377   7.458 -0.1125 -0.3145  0.0190
 4099POPC   GL249708  28.311  11.178   7.311 -0.0343  0.1763  0.1554
 4099POPC   C1A49709  28.559  11.533   7.014  0.0673 -0.1195  0.2022
 4099POPC   D2A49710  28.533  11.390   6.563  0.0914  0.1727  0.0060
 4099POPC   C3A49711  28.846  11.403   6.286 -0.0499 -0.0164  0.1573
 4099POPC   C4A49712  29.052  11.447   5.822 -0.1014  0.1713  0.0241
 4099POPC   C1B49713  28.200  10.907   6.933 -0.1298  0.0008  0.0160
 4099POPC   C2B49714  28.103  10.951   6.476 -0.3387 -0.2473 -0.3432
 4099POPC   C3B49715  28.243  10.647   6.153  0.0336  0.0052  0.1352
 4099POPC   C4B49716  28.223  10.196   5.957  0.0900  0.0452 -0.0825
 4100POPC   NC349717   3.355  12.035   8.359 -0.1517 -0.2773  0.0103
 4100POPC   PO449718   3.338  11.783   8.087  0.2254 -0.1154  0.0157
 4100POPC   GL149719   3.429  11.783   7.633  0.0516 -0.0731 -0.0660
 4100POPC   GL249720   3.348  11.499   7.619  0.3156 -0.2631  0.0017
 4100POPC   C1A49721   3.553  11.925   7.208  0.1797  0.2266 -0.1313
 4100POPC   D2A49722   3.646  11.822   6.788  0.1061  0.0614  0.0679
 4100POPC   C3A49723   3.907  12.036   6.477 -0.1446 -0.0375 -0.1894
 4100POPC   C4A49724   4.026  12.397   6.310 -0.0276 -0.3486 -0.0259
 4100POPC   C1B49725   3.190  11.542   7.152 -0.0590 -0.1427 -0.1337
 4100POPC   C2B49726   2.898  11.644   6.824 -0.1387  0.1726 -0.0070
 4100POPC   C3B49727   2.702  12.050   6.662 -0.1205 -0.2447  0.1721
 4100POPC   C4B49728   2.364  12.343   6.445  0.2592 -0.0304 -0.0342
 4101POPC   NC349729  14.153  28.089   7.708  0.0838  0.2107 -0.1507
 4101POPC   PO449730  14.484  27.980   7.946  0.3246 -0.0537  0.0580
 4101POPC   GL149731  14.544  27.992   7.490 -0.0820 -0.1592  0.1820
 4101POPC   GL249732  14.737  28.136   7.517  0.0743  0.2434 -0.4045
 4101POPC   C1A49733  14.582  27.881   7.049 -0.1470  0.0065 -0.0500
 4101POPC   D2A49734  14.655  27.425   6.853  0.0196  0.2443  0.2001
 4101POPC   C3A49735  14.461  27.266   6.457  0.0612  0.2547  0.1597
 4101POPC   C4A49736  14.223  27.328   6.093  0.2349 -0.2622  0.2633
 4101POPC   C1B49737  14.510  28.396   7.210  0.3053 -0.0613 -0.0899
 4101POPC   C2B49738  14.372  28.219   6.772 -0.1127  0.0499  0.2360
 4101POPC   C3B49739  14.520  28.246   6.331 -0.0395 -0.0471  0.1398
 4101POPC   C4B49740  14.741  28.303   5.916 -0.0123 -0.0008 -0.0377
 4102POPC   NC349741   3.215  26.151   8.092  0.0564 -0.1956  0.0511
 4102POPC   PO449742   3.424  25.846   7.984 -0.1073 -0.0106  0.1642
 4102POPC   GL149743   3.477  25.839   7.613 -0.3757 -0.2325 -0.0211
 4102POPC   GL249744   3.209  25.915   7.453  0.1665  0.3781  0.0504
 4102POPC   C1A49745   3.549  25.576   7.228 -0.2358  0.0227  0.1827
 4102POPC   D2A49746   3.482  25.650   6.784 -0.0920  0.0219 -0.0372
 4102POPC   C3A49747   3.832  25.687   6.505  0.2801  0.0639  0.1694
 4102POPC   C4A49748   4.084  25.493   6.169  0.0077  0.2038  0.2589
 4102POPC   C1B49749   3.174  25.916   7.020 -0.0884 -0.4997  0.1094
 4102POPC   C2B49750   3.098  25.941   6.612  0.0328  0.1382 -0.1534
 4102POPC   C3B49751   2.689  26.057   6.367  0.2710 -0.0080 -0.0276
 4102POPC   C4B49752   2.479  26.500   6.275 -0.0705 -0.2069  0.0411
 4103POPC   NC349753  27.261  31.450   7.765  0.2976 -0.0008 -0.1877
 4103POPC   PO449754  27.071  31.782   7.667  0.1641 -0.0251 -0.1469
 4103POPC   GL149755  27.022  31.592   7.319  0.0339  0.1461 -0.2264
 4103POPC   GL249756  27.314  31.510   7.236  0.0418 -0.2208  0.0654
 4103POPC   C1A49757  26.979  31.631   6.872  0.2484 -0.0356 -0.3187
 4103POPC   D2A49758  26.800  31.679   6.489  0.2794 -0.1153 -0.0977
 4103POPC   C3A49759  27.059  31.862   6.136 -0.1900  0.1066 -0.2452
 4103POPC   C4A49760  27.418  31.860   5.779 -0.1077 -0.2003  0.0509
 4103POPC   C1B49761  27.418  31.358   6.770 -0.0821  0.2771 -0.0187
 4103POPC   C2B49762  27.211  31.473   6.375  0.0018 -0.2168 -0.1594
 4103POPC   C3B49763  27.176  31.440   5.893  0.3533  0.1006  0.1844
 4103POPC   C4B49764  27.024  31.680   5.541 -0.1082  0.2235 -0.0316
 4104POPC   NC349765  16.171  18.010   8.690  0.1283 -0.4307 -0.0192
 4104POPC   PO449766  16.194  18.195   8.319 -0.0197 -0.3346  0.1137
 4104POPC   GL149767  16.491  18.169   8.042 -0.2789  0.0577  0.1672
 4104POPC   GL249768  16.571  18.344   7.864  0.0343  0.1826 -0.2593
 4104POPC   C1A49769  16.897  17.973   7.998  0.1835  0.0523 -0.1964
 4104POPC   D2A49770  17.257  17.711   8.034 -0.1021 -0.1738  0.0767
 4104POPC   C3A49771  17.431  17.718   7.590  0.2189 -0.1798 -0.1672
 4104POPC   C4A49772  17.305  17.406   7.212  0.1111  0.0906 -0.1613
 4104POPC   C1B49773  16.714  18.483   7.476 -0.0011 -0.2332 -0.1586
 4104POPC   C2B49774  16.786  18.193   7.151  0.0118 -0.0906  0.2486
 4104POPC   C3B49775  16.910  18.119   6.740 -0.1724 -0.0417 -0.0868
 4104POPC   C4B49776  17.014  18.193   6.301  0.0598 -0.2066  0.0765
 4105POPC   NC349777   7.724  10.370   7.418 -0.0380  0.0463 -0.0035
 4105POPC   PO449778   7.625  10.129   7.733 -0.0486 -0.0661 -0.1210
 4105POPC   GL149779   7.317   9.808   7.564 -0.3683  0.1043 -0.0319
 4105POPC   GL249780   7.238   9.984   7.290 -0.1042 -0.1356  0.1237
 4105POPC   C1A49781   7.367   9.399   7.339 -0.1216 -0.0646  0.1078
 4105POPC   D2A49782   7.382   8.997   7.092 -0.0885  0.0302  0.0220
 4105POPC   C3A49783   7.413   9.018   6.631  0.0245  0.1512 -0.0542
 4105POPC   C4A49784   7.439   9.060   6.160  0.0276  0.1970  0.0992
 4105POPC   C1B49785   7.550   9.817   7.002  0.0414 -0.1129 -0.1717
 4105POPC   C2B49786   7.522   9.805   6.491  0.0584  0.0655 -0.0440
 4105POPC   C3B49787   7.262   9.489   6.344  0.1174  0.0376  0.2217
 4105POPC   C4B49788   6.925   9.461   6.017 -0.0515  0.1019  0.2742
 4106POPC   NC349789   2.211   0.112   8.014  0.0234  0.3988  0.2616
 4106POPC   PO449790   2.561   0.132   7.812  0.1228 -0.0279 -0.1078
 4106POPC   GL149791   2.404   0.122   7.426 -0.1798  0.3377 -0.2305
 4106POPC   GL249792   2.126   0.174   7.435  0.1973  0.0572  0.0369
 4106POPC   C1A49793   2.702   0.224   7.068  0.0020  0.0303  0.1065
 4106POPC   D2A49794   3.014   0.385   6.739  0.0670  0.2361  0.1747
 4106POPC   C3A49795   3.059   0.568   6.324  0.2859 -0.0600  0.1791
 4106POPC   C4A49796   3.270   0.599   5.932 -0.2346 -0.0739 -0.0643
 4106POPC   C1B49797   2.233   0.204   6.997  0.1715 -0.1358  0.5263
 4106POPC   C2B49798   2.215   0.093   6.580 -0.1886  0.0156 -0.0016
 4106POPC   C3B49799   2.282   0.088   6.141 -0.1488 -0.0717  0.1329
 4106POPC   C4B49800   2.207  -0.049   5.719 -0.0565 -0.1354 -0.0157
 4107POPC   NC349801  16.684  24.384   7.889  0.0626 -0.0357  0.1632
 4107POPC   PO449802  16.988  24.620   7.865  0.0973 -0.0252  0.0221
 4107POPC   GL149803  16.983  24.535   7.471 -0.2547 -0.1678  0.0736
 4107POPC   GL249804  17.255  24.548   7.383  0.2916 -0.1150  0.1417
 4107POPC   C1A49805  16.857  24.465   7.007 -0.0874 -0.0587 -0.3072
 4107POPC   D2A49806  16.513  24.202   6.766 -0.1230 -0.0720 -0.1195
 4107POPC   C3A49807  16.374  24.449   6.432 -0.0072 -0.2074  0.4091
 4107POPC   C4A49808  16.104  24.448   6.043 -0.0427  0.2335  0.1870
 4107POPC   C1B49809  17.323  24.302   6.930 -0.1491  0.0251  0.0893
 4107POPC   C2B49810  17.454  24.379   6.513  0.1985 -0.0267  0.1097
 4107POPC   C3B49811  17.483  24.496   6.056  0.0024 -0.1309 -0.0677
 4107POPC   C4B49812  17.709  24.608   5.644 -0.0252  0.0571 -0.2603
 4108POPC   NC349813   4.439  16.781   8.343  0.1410  0.0208  0.0120
 4108POPC   PO449814   4.468  16.855   7.996  0.3651 -0.2070  0.0315
 4108POPC   GL149815   4.504  16.737   7.629 -0.2065  0.2334  0.0130
 4108POPC   GL249816   4.481  16.929   7.480  0.0134  0.0051 -0.0739
 4108POPC   C1A49817   4.205  16.489   7.368  0.1673  0.4317  0.1075
 4108POPC   D2A49818   4.031  16.437   6.952 -0.0348 -0.0437  0.1353
 4108POPC   C3A49819   4.169  16.206   6.520  0.2150 -0.0090  0.2142
 4108POPC   C4A49820   4.116  16.223   6.083 -0.3148 -0.1970  0.4216
 4108POPC   C1B49821   4.608  17.048   7.069 -0.0274 -0.3355  0.3231
 4108POPC   C2B49822   4.639  16.989   6.674  0.1293 -0.2891  0.2328
 4108POPC   C3B49823   4.863  17.018   6.312 -0.0416  0.1743  0.3386
 4108POPC   C4B49824   5.032  16.984   5.840  0.0016  0.1877  0.0269
 4109POPC   NC349825  14.547  14.276   7.998 -0.2532 -0.2733 -0.0598
 4109POPC   PO449826  14.407  14.389   7.654 -0.2292  0.1128  0.1355
 4109POPC   GL149827  14.187  14.427   7.210  0.2083 -0.0005  0.1319
 4109POPC   GL249828  14.140  14.224   6.998  0.0500  0.2236 -0.0506
 4109POPC   C1A49829  14.022  14.824   7.038  0.1747 -0.2591 -0.3174
 4109POPC   D2A49830  14.060  15.241   6.851  0.1437 -0.3395 -0.1957
 4109POPC   C3A49831  14.253  15.231   6.399 -0.0587 -0.1191  0.4020
 4109POPC   C4A49832  14.399  15.137   5.993 -0.1286 -0.5121  0.0857
 4109POPC   C1B49833  13.954  14.154   6.518  0.3335 -0.0942  0.0996
 4109POPC   C2B49834  13.986  14.339   6.086 -0.0936  0.1674  0.1183
 4109POPC   C3B49835  13.997  14.780   6.026 -0.1072  0.1543  0.1717
 4109POPC   C4B49836  13.645  15.084   6.063 -0.0309 -0.1047  0.2002
 4110POPC   NC349837   7.993   5.421   6.946 -0.1913 -0.0913  0.1511
 4110POPC   PO449838   8.019   5.662   7.239 -0.0907 -0.2104 -0.1563
 4110POPC   GL149839   8.192   5.940   7.132  0.0037  0.1872  0.0351
 4110POPC   GL249840   8.483   6.040   7.164 -0.0151 -0.1072 -0.0903
 4110POPC   C1A49841   8.185   6.372   7.012  0.0664 -0.1956 -0.0864
 4110POPC   D2A49842   8.107   6.585   6.624 -0.3026  0.0307 -0.1344
 4110POPC   C3A49843   8.188   6.544   6.224  0.0380  0.0653 -0.0817
 4110POPC   C4A49844   8.390   6.720   5.844 -0.3767 -0.3095 -0.1930
 4110POPC   C1B49845   8.331   6.057   6.690 -0.1727 -0.1923 -0.0595
 4110POPC   C2B49846   8.101   5.968   6.246 -0.1290 -0.1170 -0.1302
 4110POPC   C3B49847   7.713   6.168   5.977 -0.0180 -0.1618  0.1509
 4110POPC   C4B49848   7.479   6.311   5.580  0.0867  0.1576  0.0092
 4111POPC   NC349849   3.053  25.121   7.944  0.1551 -0.0851 -0.0436
 4111POPC   PO449850   2.749  24.856   8.018 -0.2720 -0.0610 -0.3540
 4111POPC   GL149851   2.897  24.793   7.604 -0.1193 -0.0476 -0.1498
 4111POPC   GL249852   2.845  25.072   7.470 -0.0552  0.0105 -0.3697
 4111POPC   C1A49853   3.070  24.434   7.342 -0.1921 -0.2103  0.2449
 4111POPC   D2A49854   3.201  24.087   7.019  0.2129 -0.1414  0.2448
 4111POPC   C3A49855   3.301  24.095   6.602  0.0990  0.1052  0.0739
 4111POPC   C4A49856   3.557  24.166   6.186 -0.0434 -0.0038 -0.3516
 4111POPC   C1B49857   3.023  25.365   7.191 -0.0265  0.0396 -0.2980
 4111POPC   C2B49858   2.961  25.480   6.733 -0.0609  0.0361  0.0194
 4111POPC   C3B49859   2.934  25.572   6.266  0.2174 -0.0234 -0.1186
 4111POPC   C4B49860   3.083  25.948   6.035 -0.0345 -0.2117  0.1327
 4112POPC   NC349861   7.517  26.143   8.009  0.2034 -0.1336 -0.3448
 4112POPC   PO449862   7.690  25.875   7.770  0.1388 -0.0012 -0.3019
 4112POPC   GL149863   7.875  25.809   7.370  0.7115  0.1231  0.0401
 4112POPC   GL249864   8.053  25.954   7.431 -0.2866 -0.1732 -0.2388
 4112POPC   C1A49865   7.758  26.000   6.962 -0.1469  0.0945  0.0068
 4112POPC   D2A49866   7.498  26.115   6.574  0.2917  0.0826 -0.1001
 4112POPC   C3A49867   7.768  26.062   6.198  0.1129  0.1649 -0.0757
 4112POPC   C4A49868   8.200  26.074   6.237 -0.1157 -0.0566 -0.0616
 4112POPC   C1B49869   8.189  25.786   7.054  0.2146 -0.1977 -0.1722
 4112POPC   C2B49870   8.363  25.983   6.706 -0.1705  0.1269  0.0328
 4112POPC   C3B49871   8.689  25.972   6.419  0.2836 -0.1803  0.2275
 4112POPC   C4B49872   8.874  25.749   6.068  0.0682 -0.1208  0.2135
 4113POPC   NC349873  14.531  27.464   7.323  0.1021 -0.2147 -0.2494
 4113POPC   PO449874  14.275  27.617   7.522  0.2408  0.0635 -0.1796
 4113POPC   GL149875  13.996  27.588   7.324  0.2894 -0.1723  0.1755
 4113POPC   GL249876  14.036  27.419   7.107  0.0534  0.1479 -0.0483
 4113POPC   C1A49877  13.621  27.860   7.209  0.2973  0.1269 -0.0969
 4113POPC   D2A49878  13.416  27.955   6.803 -0.3663  0.2462  0.1181
 4113POPC   C3A49879  13.008  28.217   6.719 -0.1398 -0.0671 -0.1857
 4113POPC   C4A49880  12.679  28.361   6.495  0.2104  0.3006 -0.3326
 4113POPC   C1B49881  14.179  27.564   6.721 -0.0911 -0.0739 -0.0270
 4113POPC   C2B49882  14.199  27.885   6.420  0.1886 -0.1038  0.1169
 4113POPC   C3B49883  14.096  28.098   6.018  0.0329  0.1100  0.1479
 4113POPC   C4B49884  14.204  28.304   5.652 -0.1516 -0.0193 -0.2831
 4114POPC   NC349885  20.317  26.854   7.746 -0.3296  0.1068  0.0500
 4114POPC   PO449886  20.494  27.128   7.978 -0.1420 -0.0387  0.2100
 4114POPC   GL149887  20.587  27.217   7.566 -0.0338  0.0020  0.4940
 4114POPC   GL249888  20.872  27.244   7.369 -0.0323  0.0867  0.1152
 4114POPC   C1A49889  20.514  27.416   7.133  0.1071 -0.0146  0.1668
 4114POPC   D2A49890  20.721  27.548   6.726  0.1946 -0.2238 -0.0289
 4114POPC   C3A49891  20.541  27.586   6.283 -0.0688  0.0991 -0.0780
 4114POPC   C4A49892  20.151  27.865   6.269  0.3744  0.1174 -0.1896
 4114POPC   C1B49893  20.987  27.081   6.925  0.0629  0.0926 -0.0883
 4114POPC   C2B49894  21.157  27.247   6.547 -0.0776  0.0273 -0.0359
 4114POPC   C3B49895  21.275  27.101   6.134  0.1525 -0.1649  0.0187
 4114POPC   C4B49896  21.402  26.743   5.798 -0.0354 -0.0613  0.0803
 4115POPC   NC349897  13.049  23.639   7.942 -0.0291 -0.0053  0.3147
 4115POPC   PO449898  13.141  23.283   7.756  0.0766 -0.0350  0.0729
 4115POPC   GL149899  13.291  23.226   7.446 -0.1908 -0.3939  0.3016
 4115POPC   GL249900  13.419  22.946   7.392 -0.2778 -0.1540  0.3555
 4115POPC   C1A49901  13.191  23.213   7.021 -0.0854 -0.2666  0.4121
 4115POPC   D2A49902  13.162  23.125   6.565 -0.2769 -0.3284  0.0950
 4115POPC   C3A49903  13.161  23.222   6.106  0.1893 -0.3795  0.0399
 4115POPC   C4A49904  13.045  22.954   5.806 -0.0125 -0.0335  0.0485
 4115POPC   C1B49905  13.520  22.797   6.962  0.2477 -0.1864  0.1523
 4115POPC   C2B49906  13.539  22.669   6.502  0.0532 -0.1155  0.1326
 4115POPC   C3B49907  13.530  22.875   6.119 -0.0564  0.0611  0.2327
 4115POPC   C4B49908  13.637  22.975   5.681 -0.0499 -0.0210  0.3707
 4116POPC   NC349909  19.151  13.348   7.707 -0.0001  0.4063 -0.2278
 4116POPC   PO449910  19.046  13.755   7.687  0.1546  0.1242  0.0084
 4116POPC   GL149911  18.930  13.728   7.380  0.0673  0.1748  0.1717
 4116POPC   GL249912  18.929  13.508   7.283  0.0923 -0.0262 -0.2793
 4116POPC   C1A49913  18.818  13.893   6.997  0.2190 -0.1996  0.2706
 4116POPC   D2A49914  18.838  13.801   6.584 -0.0043  0.1367 -0.0524
 4116POPC   C3A49915  18.999  13.407   6.471 -0.1564  0.1770  0.2089
 4116POPC   C4A49916  19.049  13.047   6.247  0.0855  0.1634 -0.1787
 4116POPC   C1B49917  19.197  13.557   6.901  0.0390  0.3080  0.0658
 4116POPC   C2B49918  19.370  13.815   6.591  0.0468  0.1842 -0.0565
 4116POPC   C3B49919  19.594  13.866   6.211  0.0068  0.2938 -0.1453
 4116POPC   C4B49920  19.750  13.692   5.784  0.0656 -0.0524  0.2534
 4117POPC   NC349921  15.675   4.373   7.392 -0.1980  0.3042 -0.0940
 4117POPC   PO449922  15.343   4.207   7.336  0.2838  0.0903 -0.2119
 4117POPC   GL149923  15.371   3.850   7.101 -0.0903 -0.2801 -0.1217
 4117POPC   GL249924  15.556   3.989   6.922 -0.1104  0.1827  0.1790
 4117POPC   C1A49925  15.308   3.650   6.724  0.0039  0.1370 -0.4453
 4117POPC   D2A49926  15.465   3.234   6.588  0.2467 -0.3755 -0.2345
 4117POPC   C3A49927  15.526   3.235   6.113  0.0618  0.0726 -0.1952
 4117POPC   C4A49928  15.658   3.032   5.758 -0.2952 -0.0286  0.0877
 4117POPC   C1B49929  15.469   4.216   6.517  0.0525  0.2269  0.1210
 4117POPC   C2B49930  15.618   4.408   6.145  0.0489 -0.0629  0.3857
 4117POPC   C3B49931  15.819   4.832   6.026  0.0470 -0.1503 -0.0304
 4117POPC   C4B49932  16.160   5.162   5.784 -0.0682 -0.1769  0.1027
 4118POPC   NC349933  27.744  29.050   7.279  0.0364 -0.1052  0.0854
 4118POPC   PO449934  28.156  29.039   7.348  0.2180  0.3413 -0.1646
 4118POPC   GL149935  28.126  29.057   6.979 -0.0418  0.1188  0.2337
 4118POPC   GL249936  28.075  28.758   6.956 -0.1151 -0.0490  0.0088
 4118POPC   C1A49937  28.373  29.151   6.601 -0.1521  0.2233 -0.0494
 4118POPC   D2A49938  28.588  29.333   6.276  0.0369 -0.1007  0.0845
 4118POPC   C3A49939  28.486  29.319   5.841  0.0379  0.0689  0.0458
 4118POPC   C4A49940  28.067  29.102   5.743  0.0093  0.0336  0.0547
 4118POPC   C1B49941  27.922  28.630   6.557 -0.0427  0.2727  0.0533
 4118POPC   C2B49942  27.864  28.639   6.074  0.4118  0.3161 -0.1122
 4118POPC   C3B49943  27.361  28.491   5.945 -0.2092 -0.2581  0.2659
 4118POPC   C4B49944  27.112  28.403   5.524  0.1944  0.0700 -0.1115
 4119POPC   NC349945  18.185  12.819   7.822 -0.1186 -0.0459 -0.1715
 4119POPC   PO449946  18.293  13.141   7.699 -0.1813  0.0545 -0.3110
 4119POPC   GL149947  18.393  12.928   7.383  0.0676  0.0643 -0.0617
 4119POPC   GL249948  18.510  13.148   7.266 -0.2399  0.1258 -0.1125
 4119POPC   C1A49949  18.572  12.494   7.254 -0.3789  0.0338 -0.1903
 4119POPC   D2A49950  18.719  12.049   7.316  0.0068 -0.0671  0.0026
 4119POPC   C3A49951  18.581  11.849   6.917  0.1147 -0.1997 -0.0222
 4119POPC   C4A49952  18.449  11.759   6.514 -0.1080 -0.1569  0.0734
 4119POPC   C1B49953  18.348  12.958   6.903  0.0224 -0.2316 -0.2897
 4119POPC   C2B49954  18.026  12.786   6.610 -0.0592 -0.0537 -0.1708
 4119POPC   C3B49955  17.644  12.531   6.479 -0.0508 -0.1268 -0.2545
 4119POPC   C4B49956  17.378  12.559   6.044 -0.1909 -0.0974 -0.3702
 4120POPC   NC349957  23.076   7.865   7.997 -0.0372  0.1631  0.1805
 4120POPC   PO449958  23.426   8.033   7.886 -0.0220 -0.2344 -0.0858
 4120POPC   GL149959  23.428   8.355   7.441 -0.4249  0.0422  0.0235
 4120POPC   GL249960  23.364   8.113   7.398  0.0157  0.2777  0.1533
 4120POPC   C1A49961  23.339   8.607   7.073  0.0377 -0.3155  0.1669
 4120POPC   D2A49962  23.235   8.815   6.659  0.2204  0.1243  0.1050
 4120POPC   C3A49963  23.422   8.709   6.241  0.1497  0.0895 -0.0142
 4120POPC   C4A49964  23.765   8.845   5.960 -0.0138 -0.1336  0.4396
 4120POPC   C1B49965  23.679   7.783   7.239  0.1313  0.3412  0.0026
 4120POPC   C2B49966  23.869   7.835   6.823  0.2834 -0.0208  0.1572
 4120POPC   C3B49967  23.954   7.996   6.337 -0.2534  0.3059  0.1318
 4120POPC   C4B49968  23.794   8.419   6.198  0.1264  0.0362 -0.0734
 4121POPC   NC349969  30.769  22.313   7.408 -0.1685 -0.3309 -0.1621
 4121POPC   PO449970  30.461  22.452   7.617  0.1564 -0.1227  0.1324
 4121POPC   GL149971  30.312  22.586   7.258  0.0519  0.0604  0.1975
 4121POPC   GL249972  30.150  22.375   7.174  0.0688 -0.0266 -0.2711
 4121POPC   C1A49973  30.541  22.646   6.846 -0.0945 -0.0911 -0.1701
 4121POPC   D2A49974  30.413  22.838   6.423 -0.4586 -0.1774 -0.4148
 4121POPC   C3A49975  30.700  22.731   6.115 -0.1498 -0.0380 -0.2586
 4121POPC   C4A49976  30.941  22.842   5.713 -0.3157 -0.0131  0.1768
 4121POPC   C1B49977  30.123  22.334   6.746 -0.1960 -0.1086  0.1311
 4121POPC   C2B49978  30.183  22.371   6.288 -0.0343  0.3060 -0.2865
 4121POPC   C3B49979  30.328  22.626   5.894  0.0718  0.0160  0.2227
 4121POPC   C4B49980  30.213  23.100   5.774 -0.1165  0.3460  0.0986
 4122POPC   NC349981  25.143   3.475   8.388 -0.0576  0.3366  0.1011
 4122POPC   PO449982  24.936   3.150   8.227 -0.2946  0.0612  0.1182
 4122POPC   GL149983  25.055   3.354   7.807  0.1298 -0.0886  0.0699
 4122POPC   GL249984  25.085   3.070   7.676 -0.2500 -0.0042 -0.0664
 4122POPC   C1A49985  25.471   3.351   7.577  0.2315 -0.0777  0.1342
 4122POPC   D2A49986  25.810   3.093   7.492 -0.4802 -0.3398 -0.4499
 4122POPC   C3A49987  26.043   2.670   7.577 -0.0057 -0.1298 -0.2718
 4122POPC   C4A49988  26.121   2.251   7.803 -0.4817 -0.4071 -0.0512
 4122POPC   C1B49989  25.235   2.981   7.257 -0.2156  0.3910  0.0800
 4122POPC   C2B49990  25.248   2.937   6.852 -0.1388  0.2352  0.0636
 4122POPC   C3B49991  25.636   2.859   6.563  0.0426  0.0909  0.2654
 4122POPC   C4B49992  25.800   2.584   6.204  0.2100 -0.1850  0.1418
 4123POPC   NC349993  14.635  13.371   7.499  0.1758 -0.3905 -0.4241
 4123POPC   PO449994  14.305  13.254   7.658 -0.0147 -0.1534 -0.0687
 4123POPC   GL149995  14.378  13.073   7.268  0.1448 -0.1720 -0.1545
 4123POPC   GL249996  14.344  12.797   7.183  0.0347 -0.1030 -0.0496
 4123POPC   C1A49997  14.763  13.201   7.042 -0.0326  0.0168  0.0849
 4123POPC   D2A49998  15.079  13.166   6.663  0.1791  0.1442  0.0935
 4123POPC   C3A49999  15.432  13.023   6.875 -0.1042 -0.1744 -0.2086
 4123POPC   C4A50000  15.713  12.935   7.244  0.0354  0.0684 -0.2626
 4123POPC   C1B50001  14.603  12.772   6.812 -0.2891  0.3464  0.0170
 4123POPC   C2B50002  14.909  12.711   6.490  0.1386 -0.2579 -0.1063
 4123POPC   C3B50003  15.002  12.633   6.034  0.1873  0.3894 -0.1741
 4123POPC   C4B50004  15.194  12.527   5.627  0.0861  0.1939  0.2659
 4124POPC   NC350005  27.440  10.955   7.346 -0.0017 -0.0331  0.0790
 4124POPC   PO450006  27.222  11.238   7.416  0.0449 -0.3326  0.2927
 4124POPC   GL150007  27.061  11.266   7.045  0.6013 -0.2081 -0.0677
 4124POPC   GL250008  27.160  10.997   6.942  0.0280  0.0284 -0.1661
 4124POPC   C1A50009  26.809  11.500   6.673  0.0693 -0.1019  0.0059
 4124POPC   D2A50010  26.668  11.689   6.219 -0.2944  0.0409 -0.1370
 4124POPC   C3A50011  26.267  11.570   6.074 -0.0811  0.0902 -0.0725
 4124POPC   C4A50012  26.088  11.301   5.736 -0.2494  0.0299 -0.1994
 4124POPC   C1B50013  27.083  11.122   6.551  0.1330  0.0315  0.6471
 4124POPC   C2B50014  27.059  11.373   6.167 -0.1222  0.1658 -0.0116
 4124POPC   C3B50015  27.138  11.757   6.048 -0.1227  0.1214  0.0397
 4124POPC   C4B50016  27.114  12.015   5.703  0.1001  0.0706 -0.2777
 4125POPC   NC350017   0.994  26.590   8.136  0.1382 -0.1909 -0.3669
 4125POPC   PO450018   0.749  26.895   8.034 -0.4332  0.3207 -0.1746
 4125POPC   GL150019   0.508  26.990   7.690 -0.3222  0.1451 -0.0696
 4125POPC   GL250020   0.800  27.127   7.580 -0.1515  0.0567 -0.1688
 4125POPC   C1A50021   0.420  27.189   7.229  0.1517 -0.3343 -0.3466
 4125POPC   D2A50022   0.416  27.310   6.830 -0.0366 -0.4118 -0.0678
 4125POPC   C3A50023   0.318  27.292   6.407 -0.0202  0.2204  0.0234
 4125POPC   C4A50024   0.454  27.528   5.989  0.0763 -0.2290  0.0679
 4125POPC   C1B50025   1.031  26.938   7.214 -0.1635  0.1519 -0.1766
 4125POPC   C2B50026   1.121  26.711   6.842  0.0077 -0.0681  0.0006
 4125POPC   C3B50027   1.011  26.671   6.349  0.1634  0.0670  0.1346
 4125POPC   C4B50028   0.966  26.427   5.993 -0.0756 -0.2817 -0.2849
 4126POPC   NC350029  23.514  18.884   7.662  0.0862 -0.1536 -0.2049
 4126POPC   PO450030  23.638  19.215   7.841  0.1289 -0.1416  0.0329
 4126POPC   GL150031  23.886  19.086   7.535  0.1877 -0.0200  0.3061
 4126POPC   GL250032  23.916  19.406   7.490  0.0032 -0.3636 -0.0748
 4126POPC   C1A50033  23.877  18.707   7.283 -0.2613  0.1121 -0.0455
 4126POPC   D2A50034  24.052  18.361   7.009 -0.1947 -0.1444 -0.1599
 4126POPC   C3A50035  23.895  17.901   6.831 -0.2232 -0.2497 -0.0272
 4126POPC   C4A50036  23.687  17.494   6.791 -0.3954 -0.0821 -0.1513
 4126POPC   C1B50037  23.908  19.303   7.064 -0.4159 -0.1474 -0.1965
 4126POPC   C2B50038  24.123  19.114   6.736  0.4786  0.1015 -0.0934
 4126POPC   C3B50039  24.166  18.906   6.350 -0.4351  0.3431  0.2051
 4126POPC   C4B50040  24.121  18.991   5.904  0.0440 -0.0489 -0.2024
 4127POPC   NC350041  20.483  17.216   7.405 -0.0616  0.1231 -0.0501
 4127POPC   PO450042  20.827  17.409   7.655 -0.1759  0.1378  0.1288
 4127POPC   GL150043  21.083  17.373   7.331 -0.0502  0.3216  0.2045
 4127POPC   GL250044  21.156  17.594   7.107 -0.0181  0.1434  0.2922
 4127POPC   C1A50045  21.256  16.991   7.025  0.1864  0.0638 -0.2387
 4127POPC   D2A50046  21.366  16.661   6.731  0.1949  0.0939 -0.0937
 4127POPC   C3A50047  21.412  16.718   6.324 -0.1511 -0.3587  0.0872
 4127POPC   C4A50048  21.454  16.524   5.833  0.1639  0.0317  0.0043
 4127POPC   C1B50049  21.213  17.548   6.622  0.4216 -0.2938  0.0692
 4127POPC   C2B50050  21.444  17.870   6.321 -0.3819  0.3527  0.1342
 4127POPC   C3B50051  21.581  18.145   5.955  0.1478 -0.2942 -0.1203
 4127POPC   C4B50052  21.760  18.106   5.559 -0.0934  0.2881  0.0756
 4128POPC   NC350053  25.838  23.636   7.955 -0.3452  0.0192  0.0924
 4128POPC   PO450054  25.582  23.830   7.704  0.3059 -0.1646 -0.0312
 4128POPC   GL150055  25.445  23.996   7.317  0.1188  0.0522 -0.3746
 4128POPC   GL250056  25.288  24.242   7.328 -0.0083 -0.1105  0.3527
 4128POPC   C1A50057  25.512  23.877   6.893  0.1563  0.1558 -0.1704
 4128POPC   D2A50058  25.387  23.666   6.541  0.1315 -0.1095  0.1682
 4128POPC   C3A50059  25.517  23.902   6.164 -0.2377 -0.0084  0.0902
 4128POPC   C4A50060  25.411  23.873   5.731  0.0266 -0.0236  0.1830
 4128POPC   C1B50061  25.564  24.353   6.991  0.2931 -0.0197  0.1583
 4128POPC   C2B50062  25.662  24.329   6.558 -0.3204  0.0574 -0.3133
 4128POPC   C3B50063  25.665  24.386   6.077 -0.0545  0.0556 -0.1729
 4128POPC   C4B50064  25.638  24.309   5.694  0.0456 -0.1348 -0.0979
 4129POPC   NC350065  27.627  11.552   7.801  0.0187 -0.1310  0.1024
 4129POPC   PO450066  27.769  11.394   7.459  0.1079  0.1498  0.0294
 4129POPC   GL150067  27.729  11.217   7.156  0.3700  0.1634  0.3620
 4129POPC   GL250068  27.522  11.401   6.970  0.0271 -0.1761  0.2478
 4129POPC   C1A50069  28.016  11.324   6.796 -0.0845  0.1014 -0.2000
 4129POPC   D2A50070  28.016  11.427   6.327 -0.2659  0.2544  0.2141
 4129POPC   C3A50071  27.962  11.146   6.031  0.2369 -0.0352 -0.0915
 4129POPC   C4A50072  28.180  10.897   5.744  0.0635  0.0868 -0.0256
 4129POPC   C1B50073  27.574  11.161   6.595 -0.1451 -0.2784 -0.0055
 4129POPC   C2B50074  27.494  11.103   6.185 -0.2159  0.2159  0.0964
 4129POPC   C3B50075  27.562  11.342   5.808  0.2698  0.0803 -0.2148
 4129POPC   C4B50076  27.482  11.683   5.564  0.0296  0.0400 -0.1574
 4130POPC   NC350077  22.156  20.733   7.402 -0.0098 -0.1227  0.2816
 4130POPC   PO450078  22.222  20.412   7.633 -0.0684  0.3534  0.0894
 4130POPC   GL150079  22.377  20.209   7.333  0.0087  0.2665  0.0220
 4130POPC   GL250080  22.483  20.418   7.165 -0.1433 -0.0933  0.0584
 4130POPC   C1A50081  22.413  19.807   7.103 -0.0961  0.0523 -0.2786
 4130POPC   D2A50082  22.443  19.695   6.655  0.0142  0.0297  0.1501
 4130POPC   C3A50083  22.234  19.511   6.284  0.1654 -0.2689 -0.2166
 4130POPC   C4A50084  22.171  19.426   5.866  0.1299 -0.4330  0.3669
 4130POPC   C1B50085  22.396  20.357   6.631 -0.0650  0.2136  0.2235
 4130POPC   C2B50086  22.594  20.053   6.299  0.1085 -0.2850  0.2953
 4130POPC   C3B50087  22.644  19.640   6.069  0.1234  0.2921 -0.0191
 4130POPC   C4B50088  22.748  19.520   5.673  0.0001 -0.1187  0.2518
 4131POPC   NC350089   4.220  15.771   7.756  0.3055  0.1397 -0.1356
 4131POPC   PO450090   4.511  15.919   7.952 -0.1146  0.0964  0.4217
 4131POPC   GL150091   4.787  16.129   7.726 -0.0115  0.0779 -0.2272
 4131POPC   GL250092   4.742  16.362   7.597 -0.2905 -0.3619 -0.1234
 4131POPC   C1A50093   4.867  16.038   7.269  0.0699  0.1513 -0.0291
 4131POPC   D2A50094   5.069  16.232   6.923  0.2362 -0.0213 -0.1775
 4131POPC   C3A50095   4.910  16.215   6.476 -0.1788 -0.4082  0.0650
 4131POPC   C4A50096   4.698  16.271   6.065  0.0103 -0.1444  0.2904
 4131POPC   C1B50097   4.636  16.423   7.112  0.2222  0.0006  0.2536
 4131POPC   C2B50098   4.545  16.540   6.646  0.0528  0.1144  0.0482
 4131POPC   C3B50099   4.513  16.704   6.241  0.0785 -0.0952 -0.2884
 4131POPC   C4B50100   4.524  16.936   5.885  0.0720 -0.1380  0.3497
 4132POPC   NC350101   9.192   7.260   7.884  0.0830 -0.0092 -0.0851
 4132POPC   PO450102   8.889   7.136   7.671 -0.0388 -0.2861  0.2877
 4132POPC   GL150103   9.166   7.308   7.373 -0.3136  0.1039 -0.4229
 4132POPC   GL250104   8.922   7.302   7.201 -0.1017 -0.1312 -0.3622
 4132POPC   C1A50105   9.255   7.643   7.031 -0.0701 -0.1103  0.2161
 4132POPC   D2A50106   9.161   7.895   6.660 -0.2944  0.2828  0.2008
 4132POPC   C3A50107   9.237   7.668   6.263 -0.1876 -0.2636  0.1769
 4132POPC   C4A50108   9.215   7.366   5.939  0.1006 -0.0673  0.3590
 4132POPC   C1B50109   9.138   7.115   6.843  0.2073 -0.1784 -0.0062
 4132POPC   C2B50110   8.966   7.192   6.410 -0.1168 -0.0285  0.0980
 4132POPC   C3B50111   8.790   7.092   5.987  0.1680  0.3067 -0.1631
 4132POPC   C4B50112   8.827   7.117   5.573 -0.0479 -0.1567  0.1424
 4133POPC   NC350113   5.559  19.827   7.188  0.2078 -0.2149  0.0361
 4133POPC   PO450114   5.556  20.184   7.178 -0.0892  0.2424 -0.1653
 4133POPC   GL150115   5.604  20.120   6.764 -0.1832  0.0450 -0.0937
 4133POPC   GL250116   5.725  20.349   6.642 -0.0068  0.0327  0.0156
 4133POPC   C1A50117   5.361  20.130   6.366  0.0012 -0.0805  0.1317
 4133POPC   D2A50118   5.428  20.085   5.898  0.4378  0.1508 -0.1933
 4133POPC   C3A50119   5.720  19.903   5.536  0.2056 -0.0030 -0.1220
 4133POPC   C4A50120   6.024  19.812   5.240  0.1531 -0.3044 -0.1176
 4133POPC   C1B50121   5.783  20.618   6.307  0.0143 -0.0366  0.0529
 4133POPC   C2B50122   6.068  20.747   5.980 -0.1163 -0.0784  0.1714
 4133POPC   C3B50123   6.124  20.856   5.546  0.1077 -0.2130 -0.1520
 4133POPC   C4B50124   6.406  21.201   5.434 -0.3117 -0.0645 -0.3119
 4134POPC   NC350125   3.487   1.958   7.721  0.0213  0.2857 -0.0566
 4134POPC   PO450126   3.869   1.956   7.861  0.0603  0.0155 -0.0123
 4134POPC   GL150127   3.857   1.962   7.459  0.1341 -0.1213 -0.0717
 4134POPC   GL250128   4.020   1.660   7.439  0.1291 -0.2244 -0.2139
 4134POPC   C1A50129   3.485   2.075   7.241  0.0050  0.0214 -0.1543
 4134POPC   D2A50130   3.313   2.312   6.828  0.0410 -0.0729  0.3192
 4134POPC   C3A50131   3.533   2.313   6.415 -0.0515  0.1935 -0.0778
 4134POPC   C4A50132   3.855   2.228   6.078  0.3488 -0.0004  0.0790
 4134POPC   C1B50133   4.058   1.850   7.057 -0.0239  0.0527  0.1338
 4134POPC   C2B50134   4.186   1.588   6.658  0.1420  0.1303  0.0640
 4134POPC   C3B50135   4.324   1.148   6.616 -0.4370 -0.0301  0.1862
 4134POPC   C4B50136   4.376   0.803   6.307  0.0016 -0.1163  0.1667
 4135POPC   NC350137  16.715   0.175   7.701  0.0368 -0.0146 -0.3023
 4135POPC   PO450138  16.872  -0.060   7.454  0.3650 -0.1032  0.2914
 4135POPC   GL150139  16.931   0.059   7.015 -0.1615 -0.2816 -0.2925
 4135POPC   GL250140  16.823  -0.172   6.936 -0.1160  0.0572 -0.1558
 4135POPC   C1A50141  16.980   0.232   6.586 -0.0683 -0.1037 -0.3612
 4135POPC   D2A50142  17.042   0.365   6.172 -0.0667  0.0331  0.0857
 4135POPC   C3A50143  16.871   0.472   5.738 -0.1437 -0.0230  0.1828
 4135POPC   C4A50144  16.515   0.731   5.595 -0.4002 -0.0566  0.0364
 4135POPC   C1B50145  16.974  -0.334   6.551  0.0328  0.0815 -0.4160
 4135POPC   C2B50146  17.012  -0.290   6.078 -0.0801 -0.1197  0.2433
 4135POPC   C3B50147  17.265   0.018   5.880  0.0535  0.0700 -0.1595
 4135POPC   C4B50148  17.621  -0.051   5.547 -0.0629 -0.0549  0.1993
 4136POPC   NC350149  18.468   2.484   7.671 -0.0610 -0.0302  0.3712
 4136POPC   PO450150  18.771   2.419   7.926  0.0341 -0.7462  0.1730
 4136POPC   GL150151  18.847   2.137   7.550  0.1234  0.0468 -0.0233
 4136POPC   GL250152  18.611   2.072   7.390 -0.0723 -0.2652 -0.1164
 4136POPC   C1A50153  18.907   1.746   7.272 -0.2712  0.0569 -0.2007
 4136POPC   D2A50154  19.019   1.350   7.090  0.0677  0.0128 -0.0252
 4136POPC   C3A50155  18.910   1.409   6.672  0.0649 -0.1076  0.0458
 4136POPC   C4A50156  18.987   1.326   6.206  0.3028  0.0729 -0.0646
 4136POPC   C1B50157  18.769   2.161   6.951  0.0928  0.2362 -0.6122
 4136POPC   C2B50158  19.023   2.324   6.596  0.0496 -0.1024  0.2531
 4136POPC   C3B50159  19.352   2.210   6.318  0.0033  0.1156  0.2780
 4136POPC   C4B50160  19.811   2.175   6.398 -0.0203  0.1381  0.1641
 4137POPC   NC350161   7.558  12.497   7.448 -0.2246  0.4474 -0.3436
 4137POPC   PO450162   7.504  12.177   7.680 -0.0544 -0.0498 -0.2222
 4137POPC   GL150163   7.386  11.993   7.344 -0.0652  0.0464  0.1044
 4137POPC   GL250164   7.460  12.122   7.053  0.3547  0.1960 -0.0052
 4137POPC   C1A50165   7.428  11.633   7.044  0.0474 -0.1406  0.1213
 4137POPC   D2A50166   7.493  11.511   6.573  0.0535  0.0151  0.0106
 4137POPC   C3A50167   7.228  11.570   6.195 -0.3208  0.3560  0.1080
 4137POPC   C4A50168   7.117  11.401   5.761  0.1444  0.2744  0.1031
 4137POPC   C1B50169   7.546  12.032   6.643 -0.2044  0.0787 -0.1375
 4137POPC   C2B50170   7.527  11.918   6.181  0.1058  0.0312 -0.4590
 4137POPC   C3B50171   7.641  11.592   5.894  0.0658 -0.0245  0.3772
 4137POPC   C4B50172   7.558  11.468   5.439  0.0784 -0.1179  0.0119
 4138POPC   NC350173  11.000  25.031   7.471  0.1451  0.0477  0.1501
 4138POPC   PO450174  11.177  25.381   7.588  0.1203  0.2924  0.2624
 4138POPC   GL150175  10.937  25.523   7.358 -0.0378 -0.1758  0.0640
 4138POPC   GL250176  11.016  25.844   7.285 -0.1942 -0.0940  0.0871
 4138POPC   C1A50177  10.805  25.639   6.920  0.2416  0.0937 -0.0768
 4138POPC   D2A50178  10.716  25.373   6.523  0.0844  0.0069  0.3801
 4138POPC   C3A50179  10.995  25.081   6.399  0.1077  0.3034 -0.1363
 4138POPC   C4A50180  11.237  24.956   6.014 -0.3412 -0.0908  0.0717
 4138POPC   C1B50181  11.070  26.052   6.851 -0.0040 -0.0357  0.0611
 4138POPC   C2B50182  11.304  26.231   6.442  0.1770 -0.0297  0.0743
 4138POPC   C3B50183  11.511  26.423   6.065  0.0039 -0.1892  0.2207
 4138POPC   C4B50184  11.614  26.596   5.597 -0.0101 -0.1634 -0.1405
 4139POPC   NC350185   3.785  20.297   7.505  0.2901 -0.0032 -0.0290
 4139POPC   PO450186   4.189  20.279   7.590  0.1263 -0.0127  0.1581
 4139POPC   GL150187   4.362  20.329   7.237 -0.2305  0.1901  0.1817
 4139POPC   GL250188   4.470  20.563   7.190  0.0976  0.1305  0.0716
 4139POPC   C1A50189   4.541  20.082   6.887 -0.2356  0.0897  0.0542
 4139POPC   D2A50190   4.483  19.809   6.528  0.2965  0.1705 -0.0124
 4139POPC   C3A50191   4.431  19.918   6.072 -0.0702 -0.2675 -0.0787
 4139POPC   C4A50192   4.516  20.200   5.719  0.1571  0.1848 -0.1412
 4139POPC   C1B50193   4.691  20.522   6.831 -0.0392 -0.0020  0.2865
 4139POPC   C2B50194   4.858  20.369   6.425 -0.0224  0.0586 -0.4501
 4139POPC   C3B50195   4.898  20.064   6.076  0.1536  0.1791  0.0975
 4139POPC   C4B50196   4.823  19.679   5.788  0.1113  0.0251 -0.0929
 4140POPC   NC350197   0.918  21.580   7.345  0.0673  0.0969  0.1004
 4140POPC   PO450198   1.140  21.741   7.657  0.0979 -0.1250  0.0302
 4140POPC   GL150199   1.340  21.755   7.367 -0.0863 -0.1114 -0.0238
 4140POPC   GL250200   1.640  21.743   7.471  0.1554  0.0947 -0.1382
 4140POPC   C1A50201   1.200  22.016   7.017  0.0565  0.1820 -0.0761
 4140POPC   D2A50202   1.198  22.271   6.679  0.0726  0.0749 -0.0486
 4140POPC   C3A50203   1.272  22.093   6.268  0.3092 -0.1168  0.1431
 4140POPC   C4A50204   1.032  22.100   5.851 -0.1206 -0.0256  0.1850
 4140POPC   C1B50205   2.024  21.741   7.228 -0.0894 -0.0098  0.0903
 4140POPC   C2B50206   2.235  21.870   6.918 -0.0520 -0.1528 -0.3188
 4140POPC   C3B50207   2.240  22.091   6.513  0.1557 -0.1791 -0.2047
 4140POPC   C4B50208   2.366  22.090   6.057 -0.0557  0.1055 -0.0911
 4141POPC   NC350209  29.057  29.238   7.602 -0.0688 -0.1670  0.1620
 4141POPC   PO450210  28.684  29.298   7.558  0.2148 -0.0589 -0.1088
 4141POPC   GL150211  28.817  29.286   7.178 -0.1267 -0.0291 -0.0049
 4141POPC   GL250212  29.129  29.183   7.107 -0.3729  0.0557  0.1536
 4141POPC   C1A50213  28.840  29.283   6.695 -0.0026 -0.2831 -0.0011
 4141POPC   D2A50214  29.037  29.482   6.321 -0.2622 -0.0165  0.1224
 4141POPC   C3A50215  28.963  29.551   5.928  0.2057 -0.3735  0.0184
 4141POPC   C4A50216  28.776  29.674   5.521  0.0215 -0.0383 -0.0762
 4141POPC   C1B50217  29.276  29.073   6.696  0.2791  0.2375 -0.1002
 4141POPC   C2B50218  29.299  28.716   6.489  0.0161 -0.1447 -0.1384
 4141POPC   C3B50219  29.546  28.616   6.080  0.1188 -0.0969 -0.0343
 4141POPC   C4B50220  29.833  28.680   5.716 -0.3585 -0.0915  0.0426
 4142POPC   NC350221  25.932  10.053   7.391  0.0834  0.2190 -0.0403
 4142POPC   PO450222  25.722   9.832   7.670 -0.1975  0.3462  0.0552
 4142POPC   GL150223  25.827   9.530   7.428  0.2336  0.0056 -0.0597
 4142POPC   GL250224  25.577   9.608   7.253 -0.0099  0.1354  0.1943
 4142POPC   C1A50225  26.092   9.636   7.039 -0.1772  0.1935 -0.0322
 4142POPC   D2A50226  26.377   9.507   6.654 -0.2480  0.2036 -0.2096
 4142POPC   C3A50227  26.430   9.730   6.249  0.3534 -0.1679 -0.2210
 4142POPC   C4A50228  26.522   9.836   5.754 -0.0070  0.1671  0.1987
 4142POPC   C1B50229  25.752   9.270   6.984  0.1130 -0.0545 -0.0198
 4142POPC   C2B50230  25.894   9.373   6.574  0.1251 -0.0168  0.0982
 4142POPC   C3B50231  26.020   9.472   6.218 -0.0226  0.2217 -0.0884
 4142POPC   C4B50232  26.328   9.277   5.944 -0.0239 -0.1980  0.0648
 4143POPC   NC350233   2.858   2.724   7.785 -0.2919 -0.2423  0.2308
 4143POPC   PO450234   2.736   2.525   8.113 -0.1831  0.2930 -0.1245
 4143POPC   GL150235   2.444   2.681   7.964 -0.4685  0.1170 -0.3068
 4143POPC   GL250236   2.271   2.492   7.777 -0.0893  0.0658 -0.1792
 4143POPC   C1A50237   2.464   2.915   7.560  0.6870 -0.3441  0.2602
 4143POPC   D2A50238   2.322   3.199   7.232  0.0694 -0.0268  0.0360
 4143POPC   C3A50239   2.540   3.541   6.953 -0.0449  0.0259 -0.1272
 4143POPC   C4A50240   2.683   3.722   6.551  0.0469  0.2059 -0.0042
 4143POPC   C1B50241   2.065   2.632   7.424 -0.4388  0.1983  0.1615
 4143POPC   C2B50242   1.893   2.779   7.013 -0.2524  0.0838 -0.2133
 4143POPC   C3B50243   1.576   3.090   6.865 -0.1073 -0.1293 -0.1415
 4143POPC   C4B50244   1.488   3.428   6.582 -0.2851  0.0075 -0.0544
 4144POPC   NC350245  30.606  16.306   7.974  0.3818  0.0961 -0.3000
 4144POPC   PO450246  30.385  16.069   7.758  0.4510  0.0690  0.1412
 4144POPC   GL150247  30.567  15.994   7.399  0.3565  0.0698 -0.2733
 4144POPC   GL250248  30.547  16.217   7.258  0.4326  0.3957 -0.0230
 4144POPC   C1A50249  30.663  15.832   6.975 -0.3438 -0.1270  0.3873
 4144POPC   D2A50250  30.723  16.067   6.603  0.0726 -0.3417 -0.4543
 4144POPC   C3A50251  30.707  15.842   6.201  0.1330 -0.2880 -0.0802
 4144POPC   C4A50252  30.512  15.607   5.811  0.2310 -0.1658 -0.2308
 4144POPC   C1B50253  30.323  16.420   6.853  0.3741 -0.0358  0.1028
 4144POPC   C2B50254  30.378  16.730   6.455  0.2438 -0.1652 -0.0503
 4144POPC   C3B50255  29.995  16.920   6.189 -0.1668 -0.4072 -0.2439
 4144POPC   C4B50256  29.801  16.730   5.812 -0.2710  0.1173  0.0697
 4145POPC   NC350257   6.522  30.513   7.829  0.2925  0.1318 -0.3974
 4145POPC   PO450258   6.846  30.656   7.964  0.2333  0.0499 -0.2747
 4145POPC   GL150259   6.991  30.754   7.639 -0.0408  0.4601 -0.2413
 4145POPC   GL250260   6.745  30.748   7.421 -0.0073  0.0757  0.1132
 4145POPC   C1A50261   7.115  30.582   7.221 -0.3261 -0.2715 -0.1559
 4145POPC   D2A50262   7.317  30.696   6.773  0.1437  0.0497 -0.0052
 4145POPC   C3A50263   7.349  30.765   6.347  0.2590 -0.2345 -0.0741
 4145POPC   C4A50264   7.467  30.783   5.871  0.0269  0.0171 -0.0704
 4145POPC   C1B50265   6.712  30.832   6.952 -0.1948  0.0961  0.1567
 4145POPC   C2B50266   6.718  30.749   6.495 -0.1280 -0.1360 -0.0176
 4145POPC   C3B50267   6.630  30.733   6.044 -0.0037  0.2157 -0.0581
 4145POPC   C4B50268   6.524  30.815   5.574 -0.0526  0.2044  0.0548
 4146POPC   NC350269   6.484  29.346   7.652 -0.0385  0.1825 -0.3314
 4146POPC   PO450270   6.304  28.980   7.674  0.0261 -0.2355  0.1051
 4146POPC   GL150271   6.248  28.967   7.238  0.2627  0.2695  0.0459
 4146POPC   GL250272   6.538  29.149   7.227  0.1366 -0.1142 -0.1417
 4146POPC   C1A50273   6.207  28.977   6.767 -0.3171 -0.4537  0.2448
 4146POPC   D2A50274   6.293  28.953   6.366  0.1781  0.0503  0.1193
 4146POPC   C3A50275   5.997  29.072   5.981  0.2176  0.0756  0.0266
 4146POPC   C4A50276   5.568  28.959   5.948 -0.2707 -0.2224  0.3040
 4146POPC   C1B50277   6.713  29.326   6.865 -0.0251 -0.1907  0.1212
 4146POPC   C2B50278   6.820  29.103   6.459  0.3261  0.0080 -0.0629
 4146POPC   C3B50279   6.829  29.224   5.984  0.0532  0.1716 -0.2606
 4146POPC   C4B50280   7.198  29.283   5.705 -0.1126 -0.2009  0.0914
 4147POPC   NC350281   8.530  18.090   8.184  0.3660  0.3137  0.2438
 4147POPC   PO450282   8.278  17.985   7.903 -0.0192 -0.0174  0.2216
 4147POPC   GL150283   8.501  17.801   7.478 -0.2194  0.2371 -0.1399
 4147POPC   GL250284   8.252  17.678   7.477 -0.4063  0.1451  0.1336
 4147POPC   C1A50285   8.592  17.755   7.056 -0.0936 -0.0831  0.0572
 4147POPC   D2A50286   8.542  17.660   6.673  0.1689  0.0771  0.2302
 4147POPC   C3A50287   8.388  17.588   6.261  0.0325 -0.0927 -0.1405
 4147POPC   C4A50288   8.277  17.827   5.909 -0.1314  0.1821 -0.1702
 4147POPC   C1B50289   8.110  17.512   7.094  0.0932 -0.1339  0.2482
 4147POPC   C2B50290   7.981  17.644   6.620  0.1130  0.0082 -0.1110
 4147POPC   C3B50291   7.800  17.573   6.205 -0.0670  0.2806  0.3072
 4147POPC   C4B50292   7.352  17.670   6.067 -0.1095 -0.1436  0.1997
 4148POPC   NC350293  28.311  23.837   7.879  0.0048 -0.2200  0.0594
 4148POPC   PO450294  27.963  23.603   7.897  0.1402  0.0732 -0.1709
 4148POPC   GL150295  27.928  23.668   7.531 -0.4590  0.2226  0.1507
 4148POPC   GL250296  28.147  23.576   7.374 -0.0075 -0.1219  0.0947
 4148POPC   C1A50297  27.598  23.559   7.226  0.0263 -0.3301  0.0303
 4148POPC   D2A50298  27.126  23.326   7.158 -0.0936 -0.3115  0.1380
 4148POPC   C3A50299  27.090  23.102   6.763 -0.1351  0.1708  0.0701
 4148POPC   C4A50300  27.097  22.819   6.447  0.2709  0.1436 -0.0960
 4148POPC   C1B50301  28.050  23.407   6.970 -0.0298  0.0345 -0.1486
 4148POPC   C2B50302  27.988  23.310   6.529  0.0188  0.1757 -0.3562
 4148POPC   C3B50303  27.960  23.035   6.196  0.0851 -0.1249  0.2842
 4148POPC   C4B50304  28.058  22.834   5.825 -0.4264  0.0328  0.1002
 4149POPC   NC350305  28.559  28.938   7.067 -0.0815  0.0355 -0.1395
 4149POPC   PO450306  28.564  28.553   7.088  0.0636  0.1501  0.1861
 4149POPC   GL150307  28.515  28.516   6.717  0.1670  0.1016  0.0398
 4149POPC   GL250308  28.424  28.647   6.542  0.1744  0.4951  0.1899
 4149POPC   C1A50309  28.658  28.152   6.436  0.0084 -0.0104 -0.0491
 4149POPC   D2A50310  28.816  28.003   6.006  0.0113  0.0845  0.0911
 4149POPC   C3A50311  28.682  28.255   5.647 -0.0011  0.1919 -0.0998
 4149POPC   C4A50312  28.490  28.698   5.702  0.0667  0.0719 -0.1460
 4149POPC   C1B50313  28.308  28.927   6.160  0.1396 -0.0596  0.0532
 4149POPC   C2B50314  28.128  29.361   6.179  0.1395 -0.1439 -0.0837
 4149POPC   C3B50315  28.190  29.798   6.060  0.1762 -0.1846 -0.2663
 4149POPC   C4B50316  28.347  30.006   5.645  0.2488 -0.0609  0.2028
 4150POPC   NC350317  20.894   4.804   7.941  0.1033  0.0711 -0.1004
 4150POPC   PO450318  20.983   5.105   7.701  0.0478 -0.2468  0.2170
 4150POPC   GL150319  20.879   5.021   7.309 -0.2066 -0.2306  0.3933
 4150POPC   GL250320  20.845   5.333   7.188 -0.4174 -0.1172  0.1136
 4150POPC   C1A50321  20.616   4.706   7.068 -0.2382 -0.1401 -0.1322
 4150POPC   D2A50322  20.387   4.681   6.659  0.0946 -0.0379  0.0835
 4150POPC   C3A50323  20.222   4.822   6.232 -0.0289  0.0147 -0.1666
 4150POPC   C4A50324  19.796   4.687   6.200  0.1484 -0.0377 -0.1616
 4150POPC   C1B50325  20.718   5.115   6.797 -0.0595 -0.2653 -0.2433
 4150POPC   C2B50326  20.682   4.861   6.344 -0.1972 -0.2833  0.3323
 4150POPC   C3B50327  20.999   4.746   6.017  0.1760 -0.1680 -0.3076
 4150POPC   C4B50328  21.173   4.623   5.655  0.0390  0.0840  0.1195
 4151POPC   NC350329   5.502  11.517   7.528 -0.1953  0.1007 -0.3039
 4151POPC   PO450330   5.287  11.712   7.292  0.0263 -0.3257  0.2256
 4151POPC   GL150331   5.232  11.886   6.970  0.1397  0.2850 -0.4935
 4151POPC   GL250332   5.549  11.852   6.895  0.1822 -0.0241 -0.0529
 4151POPC   C1A50333   4.946  12.141   6.695  0.2203 -0.0493 -0.0947
 4151POPC   D2A50334   4.823  12.217   6.205  0.1996  0.0118  0.0915
 4151POPC   C3A50335   4.752  12.613   5.995 -0.3582  0.0874 -0.0702
 4151POPC   C4A50336   4.383  12.751   5.746 -0.0636 -0.0086  0.1028
 4151POPC   C1B50337   5.261  11.709   6.538 -0.2152  0.1538 -0.0311
 4151POPC   C2B50338   5.005  11.662   6.171  0.4296 -0.2378  0.1181
 4151POPC   C3B50339   4.878  11.841   5.772  0.1766 -0.1183  0.4128
 4151POPC   C4B50340   4.452  11.704   5.673  0.2051  0.0298 -0.0121
 4152POPC   NC350341   8.938   5.790   7.200  0.0549 -0.1728 -0.1166
 4152POPC   PO450342   8.897   6.101   7.441  0.4434 -0.0938 -0.1076
 4152POPC   GL150343   8.895   6.372   7.121  0.0947 -0.2541 -0.0921
 4152POPC   GL250344   8.676   6.468   7.048  0.1074 -0.5248 -0.1396
 4152POPC   C1A50345   9.112   6.593   6.778  0.0518  0.2868 -0.1472
 4152POPC   D2A50346   9.164   6.771   6.322  0.5057  0.2948 -0.1038
 4152POPC   C3A50347   8.904   6.645   5.943  0.0661  0.1086 -0.2409
 4152POPC   C4A50348   8.755   6.420   5.626 -0.1339 -0.0801 -0.1710
 4152POPC   C1B50349   8.853   6.116   6.723 -0.0469 -0.1073  0.1895
 4152POPC   C2B50350   8.778   5.831   6.371 -0.0302  0.1035 -0.2633
 4152POPC   C3B50351   8.532   5.912   5.978 -0.3851  0.0755  0.0144
 4152POPC   C4B50352   8.241   6.218   5.790 -0.2611  0.0338 -0.0998
 4153POPC   NC350353   7.552  18.652   7.912 -0.1327  0.0277 -0.1192
 4153POPC   PO450354   7.945  18.712   7.799  0.0378 -0.0970 -0.2836
 4153POPC   GL150355   7.773  18.526   7.474 -0.1116  0.1780  0.3248
 4153POPC   GL250356   8.057  18.323   7.446 -0.1219  0.3055 -0.2447
 4153POPC   C1A50357   7.513  18.251   7.199  0.2099  0.0343  0.3480
 4153POPC   D2A50358   7.184  18.099   6.850 -0.2607 -0.1649 -0.2266
 4153POPC   C3A50359   6.979  17.769   6.941  0.0488  0.3654  0.1699
 4153POPC   C4A50360   6.707  17.445   6.676  0.1502 -0.2550  0.1151
 4153POPC   C1B50361   7.799  17.865   7.329 -0.1343 -0.3349  0.1304
 4153POPC   C2B50362   7.691  17.434   7.541  0.4221 -0.0677 -0.1586
 4153POPC   C3B50363   7.373  17.402   7.928 -0.0224  0.1324  0.1701
 4153POPC   C4B50364   7.019  17.682   7.947  0.0989  0.0388  0.2402
 4154POPC   NC350365   2.434  28.503   7.816 -0.2543 -0.1873  0.0058
 4154POPC   PO450366   2.379  28.143   7.734  0.0253 -0.0510  0.1640
 4154POPC   GL150367   2.607  28.019   7.421 -0.0012  0.4103 -0.1834
 4154POPC   GL250368   2.490  27.798   7.321 -0.0170  0.0731  0.1065
 4154POPC   C1A50369   2.652  28.114   6.941 -0.0026 -0.2788  0.1290
 4154POPC   D2A50370   2.456  28.228   6.546 -0.3787 -0.1336 -0.0922
 4154POPC   C3A50371   2.482  27.952   6.201  0.1334  0.1236  0.1555
 4154POPC   C4A50372   2.683  27.590   6.105  0.0638 -0.2487  0.3790
 4154POPC   C1B50373   2.892  27.709   7.030 -0.0405  0.0383  0.1084
 4154POPC   C2B50374   3.219  27.555   6.752 -0.0221 -0.4220 -0.2838
 4154POPC   C3B50375   3.076  27.285   6.380 -0.3388  0.0787  0.3737
 4154POPC   C4B50376   3.175  27.475   5.949 -0.1351  0.2724 -0.1779
 4155POPC   NC350377  14.746  25.686   7.503 -0.2798 -0.1509  0.0494
 4155POPC   PO450378  15.107  25.567   7.658  0.0900 -0.2449 -0.4862
 4155POPC   GL150379  15.129  25.619   7.204  0.0681 -0.1544  0.1690
 4155POPC   GL250380  15.141  25.887   7.113  0.1558  0.2995  0.0354
 4155POPC   C1A50381  15.577  25.600   7.021 -0.0713 -0.0187  0.1787
 4155POPC   D2A50382  15.942  25.769   7.255 -0.0994  0.2294 -0.2388
 4155POPC   C3A50383  16.286  25.631   6.944 -0.1106  0.0704  0.3343
 4155POPC   C4A50384  16.694  25.767   6.730  0.0325 -0.1089  0.0016
 4155POPC   C1B50385  15.191  25.603   6.714 -0.0533  0.1232 -0.0225
 4155POPC   C2B50386  15.259  25.452   6.320  0.0033 -0.0786  0.0929
 4155POPC   C3B50387  15.130  25.340   5.899 -0.0439  0.0637  0.0808
 4155POPC   C4B50388  15.100  25.422   5.444  0.0566  0.0812  0.0682
 4156POPC   NC350389  20.245   9.114   8.030  0.1697 -0.3857  0.0835
 4156POPC   PO450390  20.603   9.267   8.059 -0.4284  0.4620 -0.4509
 4156POPC   GL150391  20.552   9.152   7.682 -0.1177 -0.0868  0.2349
 4156POPC   GL250392  20.361   9.364   7.530 -0.0142 -0.1185 -0.3999
 4156POPC   C1A50393  20.888   9.387   7.453  0.0360 -0.2439  0.1212
 4156POPC   D2A50394  20.934   9.608   7.050 -0.0394  0.2241 -0.1262
 4156POPC   C3A50395  20.867   9.529   6.644 -0.1836 -0.0103 -0.1383
 4156POPC   C4A50396  20.945   9.462   6.165 -0.0043 -0.1898  0.0741
 4156POPC   C1B50397  20.469   9.494   7.131 -0.0524 -0.0403  0.0587
 4156POPC   C2B50398  20.331   9.740   6.755 -0.0458 -0.1138 -0.0296
 4156POPC   C3B50399  20.502   9.630   6.337 -0.3944 -0.0642 -0.1437
 4156POPC   C4B50400  20.481   9.553   5.901  0.0031 -0.3209 -0.2927
 4157POPC   NC350401   6.359  28.543   7.470  0.1017  0.2597 -0.1346
 4157POPC   PO450402   6.605  28.560   7.790 -0.0032 -0.1142 -0.1764
 4157POPC   GL150403   6.755  28.728   7.410  0.0895  0.0540 -0.0625
 4157POPC   GL250404   7.015  28.608   7.423  0.1230  0.1975 -0.0643
 4157POPC   C1A50405   6.555  28.671   6.974 -0.1592 -0.1054 -0.0373
 4157POPC   D2A50406   6.333  28.540   6.562  0.0648 -0.1999  0.1465
 4157POPC   C3A50407   6.149  28.115   6.609 -0.2277 -0.0202 -0.0875
 4157POPC   C4A50408   6.057  27.742   6.302 -0.2553 -0.3115 -0.3315
 4157POPC   C1B50409   7.010  28.357   7.039  0.4182 -0.1539  0.0874
 4157POPC   C2B50410   7.223  28.385   6.628 -0.0065  0.0396 -0.0901
 4157POPC   C3B50411   7.050  28.419   6.212 -0.0050 -0.2167  0.1949
 4157POPC   C4B50412   7.049  28.397   5.744 -0.3544 -0.4733  0.1255
 4158POPC   NC350413  27.174   5.043   8.164 -0.1235  0.0149  0.1716
 4158POPC   PO450414  27.499   5.135   7.988 -0.0130 -0.4124  0.1386
 4158POPC   GL150415  27.451   5.187   7.645 -0.2588 -0.0876  0.0390
 4158POPC   GL250416  27.143   5.192   7.653  0.1791 -0.0154  0.0760
 4158POPC   C1A50417  27.581   5.036   7.189  0.4352 -0.3369  0.2836
 4158POPC   D2A50418  27.747   4.861   6.794 -0.4438 -0.4111 -0.3278
 4158POPC   C3A50419  27.518   4.505   6.613 -0.0416 -0.1946 -0.1049
 4158POPC   C4A50420  27.483   4.089   6.427  0.0704 -0.0601 -0.0071
 4158POPC   C1B50421  27.034   4.985   7.282  0.1096  0.1431  0.2149
 4158POPC   C2B50422  27.217   4.907   6.844 -0.0037 -0.0975 -0.1756
 4158POPC   C3B50423  27.191   4.957   6.426 -0.0115 -0.0092  0.1554
 4158POPC   C4B50424  27.095   5.242   6.097 -0.1821 -0.0543 -0.3562
 4159POPC   NC350425  20.881  10.166   7.992 -0.2665  0.0752  0.1520
 4159POPC   PO450426  21.222  10.036   7.884 -0.2689  0.2103 -0.2254
 4159POPC   GL150427  21.230   9.928   7.521 -0.4136  0.0138  0.3824
 4159POPC   GL250428  21.026  10.112   7.479 -0.1813 -0.1709 -0.0231
 4159POPC   C1A50429  21.455   9.659   7.177  0.0312  0.0175  0.0849
 4159POPC   D2A50430  21.583   9.534   6.771 -0.0731  0.1886  0.0224
 4159POPC   C3A50431  21.354   9.565   6.331  0.1024 -0.4962 -0.2838
 4159POPC   C4A50432  21.373   9.759   5.870  0.1423 -0.0226  0.1119
 4159POPC   C1B50433  21.266  10.137   7.059  0.0835 -0.0295 -0.4772
 4159POPC   C2B50434  21.250   9.949   6.614 -0.1203 -0.0935 -0.1165
 4159POPC   C3B50435  20.965  10.006   6.275 -0.0337  0.3314 -0.2771
 4159POPC   C4B50436  20.535  10.065   6.111 -0.0023 -0.0655  0.0356
 4160POPC   NC350437  20.838   6.438   8.219  0.0237  0.2693  0.0524
 4160POPC   PO450438  20.858   6.795   8.018  0.0385 -0.3900  0.0442
 4160POPC   GL150439  20.700   7.017   7.765  0.3661 -0.0833 -0.2613
 4160POPC   GL250440  20.638   7.210   7.575  0.1261 -0.0426  0.0424
 4160POPC   C1A50441  20.780   6.817   7.350  0.0150 -0.5021 -0.1833
 4160POPC   D2A50442  20.846   6.357   7.302  0.0841  0.1526  0.0287
 4160POPC   C3A50443  21.000   6.204   6.883 -0.0180  0.0095 -0.0073
 4160POPC   C4A50444  21.144   5.921   6.477  0.1480 -0.0945  0.0411
 4160POPC   C1B50445  20.601   7.253   7.107  0.0278  0.1547 -0.0487
 4160POPC   C2B50446  20.387   7.139   6.647  0.0929  0.1210  0.1442
 4160POPC   C3B50447  20.328   7.203   6.199  0.2327 -0.1507  0.2407
 4160POPC   C4B50448  20.476   7.069   5.804  0.0358 -0.0200  0.0515
 4161POPC   NC350449  18.968   6.359   7.578 -0.1133  0.3450 -0.2374
 4161POPC   PO450450  18.607   6.419   7.409 -0.0247  0.2106 -0.1141
 4161POPC   GL150451  18.681   6.147   7.187 -0.0597 -0.0351  0.1201
 4161POPC   GL250452  18.478   6.037   7.046  0.0227 -0.3226 -0.0410
 4161POPC   C1A50453  18.965   6.318   6.863  0.1615 -0.2012  0.2503
 4161POPC   D2A50454  18.896   6.519   6.440 -0.1147 -0.1239 -0.0401
 4161POPC   C3A50455  19.065   6.908   6.231 -0.0957  0.0142  0.1068
 4161POPC   C4A50456  19.456   7.092   5.986 -0.0498 -0.2123  0.0042
 4161POPC   C1B50457  18.460   6.241   6.649 -0.2726  0.4766  0.0468
 4161POPC   C2B50458  18.765   6.002   6.367 -0.0729  0.2872  0.0055
 4161POPC   C3B50459  19.172   6.243   6.171  0.1793 -0.3073  0.4272
 4161POPC   C4B50460  19.258   6.576   5.871 -0.0488 -0.1963 -0.3704
 4162POPC   NC350461  30.869   9.954   7.903  0.1163  0.0213 -0.0541
 4162POPC   PO450462  31.032  10.135   7.586 -0.0216 -0.1492  0.0654
 4162POPC   GL150463  30.995  10.226   7.208  0.3320 -0.1142 -0.3736
 4162POPC   GL250464  30.928  10.495   7.159 -0.1180  0.3463  0.3953
 4162POPC   C1A50465  31.296  10.073   6.874  0.0071 -0.0807  0.0151
 4162POPC   D2A50466  31.744  10.198   6.777  0.0479 -0.1590 -0.0547
 4162POPC   C3A50467  31.866  10.109   6.305 -0.2118  0.3100  0.1448
 4162POPC   C4A50468  32.253   9.798   6.173 -0.0692 -0.0529  0.0028
 4162POPC   C1B50469  30.836  10.162   6.834  0.3932  0.3529  0.1334
 4162POPC   C2B50470  30.520   9.860   6.653 -0.1153  0.1565  0.1145
 4162POPC   C3B50471  30.281   9.796   6.265 -0.0701 -0.0083 -0.2121
 4162POPC   C4B50472  30.035   9.792   5.899  0.2448  0.1688 -0.3247
 4163POPC   NC350473  28.575  22.430   8.422  0.2203 -0.1018  0.4210
 4163POPC   PO450474  28.923  22.482   8.211 -0.0949 -0.1131  0.1550
 4163POPC   GL150475  28.823  22.367   7.823  0.2287 -0.0170 -0.1501
 4163POPC   GL250476  29.024  22.543   7.695  0.1218 -0.2347 -0.3210
 4163POPC   C1A50477  28.523  22.244   7.491 -0.3578  0.1866  0.1777
 4163POPC   D2A50478  28.626  21.970   7.095  0.0364 -0.1345 -0.0220
 4163POPC   C3A50479  28.357  21.695   6.823 -0.2874  0.0852 -0.0713
 4163POPC   C4A50480  28.322  21.374   6.495  0.1673 -0.1058 -0.1164
 4163POPC   C1B50481  28.996  22.303   7.300  0.0498  0.3175 -0.3433
 4163POPC   C2B50482  28.806  22.400   6.920  0.0401 -0.1357 -0.1730
 4163POPC   C3B50483  28.705  22.661   6.623 -0.0694 -0.2620 -0.1763
 4163POPC   C4B50484  28.793  22.881   6.267 -0.4167 -0.1041 -0.0448
 4164POPC   NC350485  27.033   0.942   7.848  0.2588  0.0669  0.2640
 4164POPC   PO450486  27.049   0.571   7.792 -0.1733  0.0274  0.0516
 4164POPC   GL150487  27.051   0.445   7.409  0.2094  0.2112 -0.1086
 4164POPC   GL250488  26.799   0.307   7.288  0.2274  0.1923 -0.0760
 4164POPC   C1A50489  27.285   0.244   7.002  0.1116 -0.3622  0.2424
 4164POPC   D2A50490  27.243   0.161   6.568 -0.1746  0.2773  0.1345
 4164POPC   C3A50491  27.437   0.451   6.256  0.2179 -0.2000 -0.1663
 4164POPC   C4A50492  27.362   0.731   5.885 -0.0182  0.0279  0.1480
 4164POPC   C1B50493  26.798   0.449   6.824 -0.0374 -0.0990 -0.1384
 4164POPC   C2B50494  26.709   0.431   6.369 -0.0825 -0.0708  0.2000
 4164POPC   C3B50495  26.447   0.289   6.013 -0.0565  0.1235 -0.0302
 4164POPC   C4B50496  25.968   0.250   5.892  0.1543  0.0320 -0.0561
 4165POPC   NC350497   1.336  16.268   7.661  0.3632 -0.2163  0.0787
 4165POPC   PO450498   0.983  16.237   7.769  0.0525  0.0499  0.1289
 4165POPC   GL150499   0.805  15.929   7.445 -0.0329 -0.4518  0.1795
 4165POPC   GL250500   0.641  16.242   7.378 -0.0354 -0.1568  0.1591
 4165POPC   C1A50501   0.837  15.651   7.086 -0.1594 -0.1380 -0.2689
 4165POPC   D2A50502   0.865  15.741   6.613  0.0878 -0.2499 -0.0604
 4165POPC   C3A50503   1.146  15.789   6.222  0.1363 -0.0680 -0.0849
 4165POPC   C4A50504   1.328  15.422   5.937 -0.3927  0.1003 -0.0519
 4165POPC   C1B50505   0.703  16.144   6.975  0.2346 -0.2196 -0.2498
 4165POPC   C2B50506   0.730  16.229   6.522 -0.0967  0.3122  0.0905
 4165POPC   C3B50507   0.667  16.146   6.069 -0.3516 -0.0077  0.0711
 4165POPC   C4B50508   0.648  16.215   5.639 -0.0536 -0.1371  0.2797
 4166POPC   NC350509  11.507  24.590   7.794  0.1116 -0.1774 -0.2706
 4166POPC   PO450510  11.143  24.654   7.942 -0.0281 -0.0947 -0.0972
 4166POPC   GL150511  11.157  24.600   7.517  0.1783 -0.4600 -0.1056
 4166POPC   GL250512  10.924  24.568   7.356  0.2093 -0.1060 -0.0888
 4166POPC   C1A50513  11.273  24.848   7.145 -0.0301  0.3506  0.3550
 4166POPC   D2A50514  11.302  24.778   6.672 -0.1118 -0.1102  0.0423
 4166POPC   C3A50515  11.615  24.813   6.281  0.0249  0.0548 -0.4799
 4166POPC   C4A50516  11.749  25.021   5.912 -0.0436 -0.0849 -0.4608
 4166POPC   C1B50517  10.995  24.469   6.911  0.0425  0.1196 -0.0661
 4166POPC   C2B50518  11.210  24.294   6.628 -0.1090 -0.0001  0.0063
 4166POPC   C3B50519  11.683  24.333   6.548  0.1028 -0.2474  0.2437
 4166POPC   C4B50520  12.044  24.659   6.458  0.0196 -0.0687  0.3088
 4167POPC   NC350521   8.544   3.240   8.265 -0.0515 -0.0807 -0.1382
 4167POPC   PO450522   8.325   3.217   7.904 -0.1715 -0.0864 -0.0676
 4167POPC   GL150523   8.534   3.308   7.450 -0.0995  0.2921 -0.0022
 4167POPC   GL250524   8.295   3.460   7.362 -0.0405 -0.1455  0.4297
 4167POPC   C1A50525   8.499   3.204   6.973  0.0056 -0.0860 -0.0326
 4167POPC   D2A50526   8.561   2.933   6.626  0.1192  0.2036  0.0792
 4167POPC   C3A50527   8.318   2.636   6.425  0.1973 -0.1263  0.1720
 4167POPC   C4A50528   8.162   2.330   6.130 -0.0515 -0.1625  0.2565
 4167POPC   C1B50529   7.975   3.414   7.040 -0.1787  0.0410  0.1668
 4167POPC   C2B50530   8.058   3.240   6.671 -0.0785  0.0407  0.0629
 4167POPC   C3B50531   8.253   3.110   6.276  0.2765 -0.1772 -0.2959
 4167POPC   C4B50532   8.645   3.136   6.055 -0.3152 -0.0901  0.0721
 4168POPC   NC350533  29.539  15.031   8.196  0.0121  0.1300 -0.0261
 4168POPC   PO450534  29.165  15.015   8.042 -0.0143  0.1889 -0.0854
 4168POPC   GL150535  29.202  14.797   7.610  0.1354  0.1010 -0.0134
 4168POPC   GL250536  29.106  14.535   7.762  0.0263 -0.0740 -0.1272
 4168POPC   C1A50537  29.093  14.757   7.163 -0.0300 -0.0482 -0.1554
 4168POPC   D2A50538  28.862  14.919   6.859 -0.0398  0.0376 -0.2086
 4168POPC   C3A50539  29.114  15.018   6.494  0.2804 -0.0086 -0.0701
 4168POPC   C4A50540  29.192  14.864   6.038  0.3338 -0.0066  0.0842
 4168POPC   C1B50541  28.934  14.379   7.410 -0.2424 -0.1085 -0.0766
 4168POPC   C2B50542  28.875  14.229   6.991  0.0145 -0.1611 -0.2103
 4168POPC   C3B50543  28.892  14.152   6.556 -0.0007  0.0178  0.2675
 4168POPC   C4B50544  28.849  14.285   6.063  0.2520  0.0631  0.1037
 4169POPC   NC350545   1.330  22.218   7.493  0.0218  0.0207  0.0484
 4169POPC   PO450546   1.143  22.515   7.518  0.1868  0.2237  0.3476
 4169POPC   GL150547   1.270  22.536   7.120 -0.1186  0.1942  0.3607
 4169POPC   GL250548   1.021  22.600   7.043  0.1465 -0.1533  0.1847
 4169POPC   C1A50549   1.617  22.627   6.806 -0.1748 -0.0777 -0.1608
 4169POPC   D2A50550   1.759  22.391   6.475  0.1549 -0.0278 -0.0921
 4169POPC   C3A50551   1.924  22.213   6.070  0.1180 -0.0998  0.1184
 4169POPC   C4A50552   2.052  22.441   5.657  0.0368 -0.3266 -0.2026
 4169POPC   C1B50553   1.168  22.783   6.635 -0.0232  0.0489  0.2464
 4169POPC   C2B50554   1.390  22.613   6.249 -0.1588 -0.1661  0.1285
 4169POPC   C3B50555   1.556  22.433   5.768 -0.0545 -0.1586  0.4186
 4169POPC   C4B50556   1.318  22.418   5.341 -0.1523  0.0766 -0.1560
 4170POPC   NC350557  24.653  21.043   8.098 -0.2039  0.0353  0.0942
 4170POPC   PO450558  24.276  20.987   7.974 -0.1046  0.1723 -0.2755
 4170POPC   GL150559  24.479  21.176   7.642 -0.1817  0.1753  0.1958
 4170POPC   GL250560  24.412  21.189   7.408  0.1053 -0.1369 -0.3358
 4170POPC   C1A50561  24.531  21.626   7.481  0.0577  0.1961  0.3047
 4170POPC   D2A50562  24.333  21.861   7.125 -0.1618  0.1512 -0.0319
 4170POPC   C3A50563  24.637  22.039   6.818  0.2586 -0.1356 -0.1641
 4170POPC   C4A50564  24.970  22.166   6.510  0.1372 -0.1861  0.0421
 4170POPC   C1B50565  24.627  20.877   7.168 -0.0778 -0.0141  0.0845
 4170POPC   C2B50566  24.731  20.649   6.788 -0.0056  0.0606 -0.2595
 4170POPC   C3B50567  24.654  20.440   6.347 -0.2451 -0.1549 -0.2450
 4170POPC   C4B50568  24.775  20.305   5.909  0.2450 -0.1530  0.1622
 4171POPC   NC350569  15.987   9.920   7.701  0.2219  0.0483 -0.0859
 4171POPC   PO450570  16.114  10.280   7.811  0.0043 -0.1866 -0.0223
 4171POPC   GL150571  16.226  10.255   7.398  0.4138  0.1183  0.0914
 4171POPC   GL250572  16.123  10.058   7.195 -0.1056  0.2420  0.1870
 4171POPC   C1A50573  16.576  10.273   7.083  0.0584 -0.2418  0.1726
 4171POPC   D2A50574  16.817  10.009   6.734  0.1091 -0.2261  0.0263
 4171POPC   C3A50575  16.725  10.116   6.347  0.0112  0.1935  0.0522
 4171POPC   C4A50576  16.549  10.341   5.994 -0.2877  0.0541 -0.1158
 4171POPC   C1B50577  16.137  10.162   6.799  0.1412 -0.0205 -0.0252
 4171POPC   C2B50578  16.206  10.296   6.346  0.0820 -0.1116  0.1821
 4171POPC   C3B50579  16.031  10.558   5.961  0.0433  0.0031 -0.0493
 4171POPC   C4B50580  15.618  10.673   5.787 -0.0428 -0.5955  0.6027
 4172POPC   NC350581  19.702   0.212   7.207 -0.0486  0.0651  0.0102
 4172POPC   PO450582  19.338   0.233   7.312 -0.0588  0.0413 -0.2114
 4172POPC   GL150583  19.074   0.332   7.112  0.2289 -0.0575 -0.2552
 4172POPC   GL250584  19.025   0.160   6.886  0.0179  0.1144  0.3366
 4172POPC   C1A50585  19.068   0.624   6.759  0.1555 -0.1117 -0.0869
 4172POPC   D2A50586  19.011   0.821   6.353  0.1416  0.0388  0.2066
 4172POPC   C3A50587  19.294   0.870   5.985 -0.2319  0.1367 -0.4026
 4172POPC   C4A50588  19.733   0.672   5.906  0.0080  0.1377  0.2298
 4172POPC   C1B50589  19.070   0.208   6.441 -0.1179  0.0639  0.1355
 4172POPC   C2B50590  18.926   0.398   6.048 -0.3275 -0.2821  0.1554
 4172POPC   C3B50591  18.770   0.778   5.836 -0.4718  0.1064 -0.0296
 4172POPC   C4B50592  18.596   1.190   5.866 -0.2090  0.1177  0.0241
 4173POPC   NC350593   9.363  23.417   7.660 -0.1904 -0.0178  0.2415
 4173POPC   PO450594   9.264  23.178   7.962 -0.0152 -0.0807  0.1746
 4173POPC   GL150595   9.369  22.963   7.585  0.3160 -0.2039  0.1067
 4173POPC   GL250596   9.111  22.833   7.565  0.0557 -0.1523 -0.3980
 4173POPC   C1A50597   9.566  22.887   7.183  0.1690  0.1682 -0.0655
 4173POPC   D2A50598   9.795  23.081   6.788 -0.1145  0.2938  0.0161
 4173POPC   C3A50599   9.666  23.181   6.400 -0.1114  0.2108 -0.1565
 4173POPC   C4A50600   9.347  23.161   6.053 -0.1127 -0.1728 -0.1426
 4173POPC   C1B50601   9.068  22.682   7.117 -0.0714  0.3170 -0.0060
 4173POPC   C2B50602   9.428  22.599   6.805 -0.0188 -0.0757 -0.2148
 4173POPC   C3B50603   9.390  22.687   6.381  0.1444 -0.0170 -0.0638
 4173POPC   C4B50604   9.594  22.533   6.015 -0.2671 -0.1442  0.1083
 4174POPC   NC350605   1.245  29.659   8.284  0.0271 -0.2922  0.3944
 4174POPC   PO450606   1.274  29.885   7.969  0.1283  0.2309  0.0565
 4174POPC   GL150607   1.256  30.004   7.618 -0.0994 -0.0640 -0.4259
 4174POPC   GL250608   0.918  30.124   7.539  0.1521  0.1672 -0.0777
 4174POPC   C1A50609   1.349  29.855   7.181 -0.0271  0.2759 -0.0576
 4174POPC   D2A50610   1.241  29.756   6.768  0.0655 -0.2639 -0.1669
 4174POPC   C3A50611   0.957  29.987   6.491  0.4053 -0.0703 -0.3032
 4174POPC   C4A50612   1.042  30.235   6.082 -0.0845 -0.2568  0.0207
 4174POPC   C1B50613   0.927  30.195   7.101 -0.2046 -0.1574  0.1857
 4174POPC   C2B50614   1.076  30.503   6.736  0.2715 -0.1333 -0.0461
 4174POPC   C3B50615   1.050  30.931   6.829 -0.3257 -0.1859 -0.0669
 4174POPC   C4B50616   1.050  31.256   7.184  0.2526 -0.3333  0.0643
 4175POPC   NC350617  16.712  31.222   7.269 -0.2047  0.1861 -0.1103
 4175POPC   PO450618  16.407  31.442   7.431  0.0447  0.2816  0.2926
 4175POPC   GL150619  16.386  31.519   7.096  0.3158 -0.1990 -0.1957
 4175POPC   GL250620  16.370  31.856   7.114 -0.1043 -0.1830 -0.1193
 4175POPC   C1A50621  16.524  31.267   6.724 -0.0928 -0.0163  0.0943
 4175POPC   D2A50622  16.594  31.181   6.259 -0.2412 -0.1492 -0.0097
 4175POPC   C3A50623  16.395  31.321   5.895 -0.0404 -0.1820 -0.0084
 4175POPC   C4A50624  16.221  31.610   5.563  0.2443 -0.2391 -0.2120
 4175POPC   C1B50625  16.454  31.939   6.632 -0.1270  0.1528 -0.0207
 4175POPC   C2B50626  16.643  31.707   6.225  0.2167 -0.2107 -0.1672
 4175POPC   C3B50627  16.740  31.709   5.756 -0.3572 -0.0792  0.1479
 4175POPC   C4B50628  16.593  31.957   5.392  0.0191  0.1616  0.2408
 4176POPC   NC350629   9.969  11.345   8.096 -0.0572 -0.3213  0.0380
 4176POPC   PO450630   9.604  11.395   8.264 -0.1600  0.0731  0.0226
 4176POPC   GL150631   9.586  11.314   7.858 -0.2976 -0.1913  0.0457
 4176POPC   GL250632   9.462  11.111   7.819  0.1736 -0.2386 -0.2654
 4176POPC   C1A50633   9.471  11.559   7.498  0.0856  0.1967  0.0830
 4176POPC   D2A50634   9.432  11.897   7.143 -0.2161  0.0732 -0.3478
 4176POPC   C3A50635   9.469  11.780   6.730 -0.2664 -0.0050 -0.0078
 4176POPC   C4A50636   9.502  11.759   6.268 -0.1154  0.1888 -0.1800
 4176POPC   C1B50637   9.234  11.170   7.407 -0.0597 -0.4021  0.0679
 4176POPC   C2B50638   9.369  11.386   7.044 -0.0799 -0.0485  0.1967
 4176POPC   C3B50639   9.839  11.536   6.903  0.0207  0.0564 -0.1510
 4176POPC   C4B50640  10.008  11.786   6.571  0.2145 -0.0655  0.1866
 4177POPC   NC350641  18.498  22.908   7.762  0.0136  0.0029 -0.1838
 4177POPC   PO450642  18.168  22.732   7.663  0.0993  0.1546  0.2175
 4177POPC   GL150643  18.325  22.608   7.350  0.0094  0.3360 -0.0824
 4177POPC   GL250644  18.596  22.606   7.301  0.1570 -0.2134  0.2733
 4177POPC   C1A50645  18.031  22.446   7.041  0.0957 -0.0212  0.1568
 4177POPC   D2A50646  18.124  22.196   6.645  0.2728  0.0748  0.2589
 4177POPC   C3A50647  17.960  21.840   6.377  0.1560  0.1943 -0.0258
 4177POPC   C4A50648  17.768  21.591   6.073  0.1405 -0.0607 -0.1528
 4177POPC   C1B50649  18.465  22.433   6.878  0.0768 -0.4229  0.0915
 4177POPC   C2B50650  18.794  22.348   6.551 -0.2860 -0.0123  0.0938
 4177POPC   C3B50651  19.243  22.283   6.415  0.0352 -0.1668 -0.0901
 4177POPC   C4B50652  19.580  21.957   6.493 -0.1220 -0.2069 -0.1273
 4178POPC   NC350653  18.622  30.734   8.175 -0.0273 -0.3871 -0.0266
 4178POPC   PO450654  18.630  30.650   7.800 -0.0345 -0.0439 -0.1956
 4178POPC   GL150655  18.477  30.704   7.496  0.3780 -0.4796  0.3685
 4178POPC   GL250656  18.283  30.449   7.441 -0.0112  0.1500  0.1233
 4178POPC   C1A50657  18.556  30.575   7.051 -0.0694 -0.0356 -0.1888
 4178POPC   D2A50658  18.777  30.348   6.726 -0.0259  0.1152  0.0776
 4178POPC   C3A50659  18.926  30.542   6.323 -0.3412  0.2014  0.3341
 4178POPC   C4A50660  18.903  30.518   5.864  0.3024 -0.2179 -0.0539
 4178POPC   C1B50661  18.623  30.120   7.387  0.1052  0.0307  0.0233
 4178POPC   C2B50662  18.726  29.892   7.036  0.0284  0.1649 -0.3075
 4178POPC   C3B50663  18.426  29.827   6.692 -0.1008  0.2573  0.3328
 4178POPC   C4B50664  18.348  29.541   6.368  0.0397 -0.0495  0.1692
 4179POPC   NC350665   5.821  21.334   7.848 -0.0436  0.2043 -0.0807
 4179POPC   PO450666   5.510  21.573   7.958  0.0693  0.2668 -0.2822
 4179POPC   GL150667   5.429  21.984   7.904  0.0512  0.0471  0.0670
 4179POPC   GL250668   5.348  22.137   7.688  0.1523 -0.3129  0.1156
 4179POPC   C1A50669   5.588  22.389   8.072 -0.1303 -0.1152 -0.1663
 4179POPC   D2A50670   5.696  22.783   8.157  0.0047  0.1114 -0.0255
 4179POPC   C3A50671   5.350  23.030   8.083 -0.0989 -0.1611  0.0521
 4179POPC   C4A50672   4.986  22.975   8.291 -0.0467  0.1838  0.1065
 4179POPC   C1B50673   5.219  22.318   7.245  0.0346 -0.1563  0.0782
 4179POPC   C2B50674   5.149  22.382   6.789 -0.2096  0.1310  0.2994
 4179POPC   C3B50675   5.192  22.559   6.345  0.1642  0.0259  0.0985
 4179POPC   C4B50676   5.221  23.059   6.264  0.3206  0.0318 -0.2895
 4180POPC   NC350677  14.537   0.400   7.740  0.2176 -0.2304 -0.0948
 4180POPC   PO450678  14.492   0.031   7.627  0.0011  0.3557  0.0717
 4180POPC   GL150679  14.685   0.048   7.323  0.2030 -0.0913 -0.0240
 4180POPC   GL250680  14.913  -0.059   7.175  0.2569  0.2593  0.2185
 4180POPC   C1A50681  14.519  -0.025   6.898  0.3276 -0.0684  0.0810
 4180POPC   D2A50682  14.353   0.000   6.464  0.2032 -0.1505 -0.2618
 4180POPC   C3A50683  13.993   0.228   6.304 -0.0191 -0.1939  0.2842
 4180POPC   C4A50684  13.611   0.132   6.063 -0.2394 -0.1301  0.1408
 4180POPC   C1B50685  15.074  -0.145   6.784 -0.0536  0.1043 -0.1191
 4180POPC   C2B50686  15.145  -0.013   6.386  0.1796  0.0629  0.1731
 4180POPC   C3B50687  15.290   0.053   5.901  0.0972 -0.1025 -0.0996
 4180POPC   C4B50688  15.152  -0.100   5.412 -0.3539  0.2432 -0.1678
 4181POPC   NC350689  10.182   2.285   7.971 -0.1508 -0.0046  0.0545
 4181POPC   PO450690  10.537   2.488   8.026  0.4017 -0.3155 -0.2085
 4181POPC   GL150691  10.463   2.685   7.698  0.0412  0.2265 -0.2981
 4181POPC   GL250692  10.378   2.531   7.543  0.2335  0.1249 -0.0066
 4181POPC   C1A50693  10.263   2.995   7.421  0.1841  0.2469  0.0955
 4181POPC   D2A50694  10.388   3.312   7.167  0.1744  0.0192 -0.0574
 4181POPC   C3A50695  10.215   3.438   6.814  0.3350 -0.1185  0.2564
 4181POPC   C4A50696  10.124   3.431   6.363 -0.0302  0.1955 -0.1581
 4181POPC   C1B50697  10.349   2.452   7.135  0.0638  0.1527  0.1942
 4181POPC   C2B50698  10.096   2.576   6.692  0.3304 -0.2963 -0.0245
 4181POPC   C3B50699   9.905   2.471   6.265 -0.2119 -0.1309  0.2551
 4181POPC   C4B50700   9.686   2.669   5.904 -0.0241  0.1926  0.0434
 4182POPC   NC350701  29.654  22.807   8.205  0.1031  0.3522 -0.0564
 4182POPC   PO450702  29.492  22.478   8.036  0.2452 -0.2280  0.0999
 4182POPC   GL150703  29.487  22.460   7.552  0.2573  0.4095 -0.1071
 4182POPC   GL250704  29.480  22.710   7.416 -0.1983 -0.1589 -0.0283
 4182POPC   C1A50705  29.451  22.251   7.172  0.0999 -0.3910  0.0755
 4182POPC   D2A50706  29.308  22.276   6.762  0.3131  0.1003  0.2349
 4182POPC   C3A50707  28.964  22.075   6.541  0.0737  0.1756  0.2307
 4182POPC   C4A50708  28.595  21.887   6.278  0.0783 -0.0264  0.3213
 4182POPC   C1B50709  29.077  22.787   7.191  0.1726 -0.0275 -0.1323
 4182POPC   C2B50710  28.827  23.072   6.930 -0.2241 -0.2478  0.0335
 4182POPC   C3B50711  28.493  23.231   6.624  0.0491  0.2505  0.2596
 4182POPC   C4B50712  28.311  23.700   6.702  0.0286 -0.1461 -0.1370
 4183POPC   NC350713   2.902  20.793   7.910 -0.0940 -0.0366 -0.0096
 4183POPC   PO450714   3.120  20.865   7.620  0.2275 -0.0753 -0.0769
 4183POPC   GL150715   3.066  20.868   7.213 -0.1325 -0.1151 -0.2883
 4183POPC   GL250716   2.781  21.003   7.140  0.1294  0.1060 -0.0820
 4183POPC   C1A50717   3.405  20.953   6.941  0.4217 -0.1236 -0.1347
 4183POPC   D2A50718   3.521  20.895   6.508 -0.2949 -0.4124  0.0256
 4183POPC   C3A50719   3.625  21.064   6.149 -0.1080  0.1736 -0.2146
 4183POPC   C4A50720   3.901  21.417   5.951 -0.0294 -0.0199  0.3432
 4183POPC   C1B50721   2.967  20.853   6.785 -0.1548 -0.0160 -0.1453
 4183POPC   C2B50722   3.226  20.491   6.524  0.0903 -0.0952  0.0136
 4183POPC   C3B50723   3.392  20.111   6.257 -0.3844 -0.3494 -0.0177
 4183POPC   C4B50724   3.346  19.982   5.793  0.2807 -0.0094  0.2044
 4184POPC   NC350725   6.944  29.931   8.005 -0.2873  0.1124  0.2923
 4184POPC   PO450726   6.796  29.577   7.910 -0.4171  0.2320  0.2344
 4184POPC   GL150727   6.861  29.575   7.582 -0.1420 -0.2452 -0.1825
 4184POPC   GL250728   6.974  29.828   7.476 -0.0964 -0.3235  0.0246
 4184POPC   C1A50729   6.548  29.737   7.247 -0.1467 -0.1568 -0.1528
 4184POPC   D2A50730   6.208  29.532   7.026  0.2154  0.0402  0.1879
 4184POPC   C3A50731   6.275  29.443   6.581 -0.1124 -0.0537  0.1600
 4184POPC   C4A50732   6.361  29.371   6.150 -0.3768  0.0078  0.1333
 4184POPC   C1B50733   6.801  30.197   7.185 -0.1344 -0.2039 -0.3801
 4184POPC   C2B50734   6.695  30.262   6.768 -0.2777  0.1793  0.2220
 4184POPC   C3B50735   6.646  30.263   6.308  0.4916 -0.1822  0.2194
 4184POPC   C4B50736   6.594  30.165   5.861 -0.0114 -0.0413 -0.1807
 4185POPC   NC350737  19.397  12.578   8.202 -0.2237  0.0374  0.2211
 4185POPC   PO450738  19.148  12.381   7.945  0.0143  0.1684 -0.1211
 4185POPC   GL150739  19.052  12.191   7.597 -0.0618  0.2072  0.0786
 4185POPC   GL250740  19.054  12.395   7.342 -0.0681  0.2106  0.2731
 4185POPC   C1A50741  19.186  11.921   7.229  0.2359  0.0773 -0.0247
 4185POPC   D2A50742  19.469  11.548   7.030  0.0016 -0.1035  0.1283
 4185POPC   C3A50743  19.466  11.570   6.594  0.0816 -0.2171  0.1773
 4185POPC   C4A50744  19.552  11.322   6.183  0.4727 -0.1188  0.0347
 4185POPC   C1B50745  19.011  12.290   6.877 -0.1037  0.0804  0.0805
 4185POPC   C2B50746  18.824  12.109   6.454 -0.0177  0.2082  0.1938
 4185POPC   C3B50747  18.972  12.159   6.009 -0.0446  0.1871 -0.4395
 4185POPC   C4B50748  18.854  12.274   5.568 -0.0872 -0.1141 -0.0368
 4186POPC   NC350749  12.453  24.204   7.980 -0.2406 -0.0498  0.0159
 4186POPC   PO450750  12.534  23.816   7.999 -0.1633  0.0447 -0.0190
 4186POPC   GL150751  12.503  23.784   7.533  0.0924  0.4356 -0.0517
 4186POPC   GL250752  12.765  23.874   7.557 -0.0059 -0.1247  0.2063
 4186POPC   C1A50753  12.403  23.739   7.087  0.3500  0.0587 -0.0902
 4186POPC   D2A50754  12.308  23.554   6.670  0.1216  0.4294 -0.2061
 4186POPC   C3A50755  12.329  23.729   6.244  0.3741  0.0743 -0.0034
 4186POPC   C4A50756  12.402  24.135   6.000  0.2005 -0.1095 -0.1181
 4186POPC   C1B50757  12.993  24.032   7.180  0.0957 -0.0023 -0.1216
 4186POPC   C2B50758  13.181  23.830   6.783  0.2268  0.1347  0.1527
 4186POPC   C3B50759  13.367  23.609   6.460  0.0317 -0.1510  0.1757
 4186POPC   C4B50760  13.661  23.374   6.181 -0.1647 -0.0783  0.0211
 4187POPC   NC350761  22.437  21.049   7.799  0.0553 -0.0600  0.0478
 4187POPC   PO450762  22.139  21.200   7.600  0.0522 -0.3628 -0.0868
 4187POPC   GL150763  22.057  21.155   7.258  0.1136  0.1128  0.1032
 4187POPC   GL250764  22.262  21.323   7.104  0.2563  0.1015  0.0504
 4187POPC   C1A50765  22.024  20.837   6.929  0.0337 -0.1100  0.3346
 4187POPC   D2A50766  21.936  20.871   6.475  0.0661  0.0398 -0.1094
 4187POPC   C3A50767  21.523  20.730   6.277 -0.2598  0.0501 -0.2414
 4187POPC   C4A50768  21.382  20.487   5.924 -0.0935 -0.0271  0.1759
 4187POPC   C1B50769  22.096  21.738   6.947 -0.0813 -0.3276 -0.0658
 4187POPC   C2B50770  22.131  21.899   6.485 -0.0029  0.2754  0.1220
 4187POPC   C3B50771  21.894  22.162   6.213  0.0741  0.1367 -0.3969
 4187POPC   C4B50772  21.570  22.332   5.959  0.3316 -0.0273  0.0844
 4188POPC   NC350773  23.294   6.469   7.798  0.0415  0.0008 -0.2259
 4188POPC   PO450774  23.676   6.361   7.640  0.0901 -0.3742  0.1222
 4188POPC   GL150775  23.508   6.328   7.195 -0.0026  0.2571 -0.2795
 4188POPC   GL250776  23.434   6.599   7.264 -0.0079 -0.0595  0.3137
 4188POPC   C1A50777  23.199   6.263   6.841  0.4600  0.2109  0.0682
 4188POPC   D2A50778  23.169   5.983   6.453  0.0534 -0.0285  0.0913
 4188POPC   C3A50779  22.859   5.952   6.078  0.1711  0.1693 -0.0394
 4188POPC   C4A50780  22.396   5.905   5.939 -0.2732 -0.2593 -0.0106
 4188POPC   C1B50781  23.461   6.680   6.839 -0.4264 -0.0453  0.1403
 4188POPC   C2B50782  23.421   6.479   6.414  0.4691 -0.0027 -0.2034
 4188POPC   C3B50783  23.543   6.116   6.130  0.1334  0.0248 -0.1280
 4188POPC   C4B50784  23.378   5.936   5.808 -0.1653 -0.1452  0.2395
 4189POPC   NC350785  15.703  25.466   7.679 -0.1570  0.1285 -0.1025
 4189POPC   PO450786  15.480  25.129   7.640 -0.1501  0.2881 -0.0706
 4189POPC   GL150787  15.486  25.227   7.253  0.3500 -0.1806  0.0961
 4189POPC   GL250788  15.229  24.975   7.175 -0.3337 -0.0754 -0.2910
 4189POPC   C1A50789  15.522  25.100   6.787 -0.3400 -0.0417  0.2022
 4189POPC   D2A50790  15.604  25.131   6.313 -0.0659  0.2014 -0.3545
 4189POPC   C3A50791  15.698  24.741   6.035  0.1790  0.1513  0.2118
 4189POPC   C4A50792  15.402  24.380   5.990 -0.1560 -0.1384 -0.2588
 4189POPC   C1B50793  14.888  24.866   6.893 -0.2455  0.1120  0.2103
 4189POPC   C2B50794  14.562  24.887   6.560  0.1097  0.1576 -0.1009
 4189POPC   C3B50795  14.562  24.579   6.230 -0.4881 -0.1853  0.2744
 4189POPC   C4B50796  14.364  24.234   5.985  0.0185  0.0100 -0.2236
 4190POPC   NC350797   2.267  17.789   7.959  0.2271 -0.1211 -0.1375
 4190POPC   PO450798   2.558  17.814   7.697  0.0676  0.1573 -0.2114
 4190POPC   GL150799   2.623  17.669   7.326  0.4876  0.0491  0.1167
 4190POPC   GL250800   2.849  17.664   7.152 -0.1899  0.2916 -0.0283
 4190POPC   C1A50801   2.225  17.770   7.041  0.3216 -0.0093 -0.0357
 4190POPC   D2A50802   2.116  17.825   6.606  0.2351 -0.3343 -0.0540
 4190POPC   C3A50803   2.166  17.913   6.129 -0.1743  0.5037 -0.0264
 4190POPC   C4A50804   1.945  18.019   5.737 -0.4708  0.0671  0.2028
 4190POPC   C1B50805   3.038  17.601   6.748  0.4720 -0.3810  0.3796
 4190POPC   C2B50806   3.249  17.789   6.452  0.1283 -0.1830  0.4818
 4190POPC   C3B50807   3.575  17.756   6.099 -0.2333 -0.2158  0.0682
 4190POPC   C4B50808   4.020  17.830   6.000 -0.3161  0.1812 -0.0516
 4191POPC   NC350809   8.953  11.149   7.877  0.4063  0.1612  0.0245
 4191POPC   PO450810   8.753  11.442   8.049 -0.0783 -0.3336 -0.1716
 4191POPC   GL150811   8.612  11.486   7.640 -0.2257 -0.1604 -0.1666
 4191POPC   GL250812   8.614  11.296   7.379  0.2449 -0.2136 -0.3922
 4191POPC   C1A50813   8.515  11.782   7.332 -0.1057 -0.1705 -0.3803
 4191POPC   D2A50814   8.491  11.891   6.914  0.0225 -0.0686 -0.0625
 4191POPC   C3A50815   8.541  11.594   6.563  0.1982 -0.2773 -0.0369
 4191POPC   C4A50816   8.556  11.489   6.122 -0.6511 -0.2072  0.3716
 4191POPC   C1B50817   8.818  11.438   7.005 -0.2727 -0.2486  0.2185
 4191POPC   C2B50818   9.042  11.459   6.582  0.2719  0.0136  0.1958
 4191POPC   C3B50819   9.038  11.700   6.167 -0.0032  0.2741 -0.2380
 4191POPC   C4B50820   9.121  11.655   5.727 -0.1526 -0.0305  0.1919
 4192POPC   NC350821  27.151  10.863   7.747  0.1482  0.1634 -0.1541
 4192POPC   PO450822  27.314  10.534   7.580  0.0081 -0.1004  0.5279
 4192POPC   GL150823  27.154  10.557   7.303 -0.3208 -0.2202 -0.3221
 4192POPC   GL250824  27.251  10.493   7.031  0.0222 -0.0460  0.1297
 4192POPC   C1A50825  26.757  10.507   7.081 -0.1955  0.0114  0.0453
 4192POPC   D2A50826  26.332  10.728   7.022 -0.0203 -0.1193 -0.1693
 4192POPC   C3A50827  26.189  10.868   6.579  0.0283  0.1280 -0.1698
 4192POPC   C4A50828  26.182  10.994   6.142 -0.0167 -0.0603  0.2575
 4192POPC   C1B50829  27.033  10.625   6.623 -0.1748 -0.0294 -0.1388
 4192POPC   C2B50830  26.675  10.696   6.286 -0.1260  0.2651 -0.0971
 4192POPC   C3B50831  26.432  10.649   5.897 -0.0850  0.0134  0.1198
 4192POPC   C4B50832  26.222  10.254   5.738  0.2914 -0.5355  0.0800
 4193POPC   NC350833   9.385   6.574   8.240 -0.1329  0.1279 -0.2010
 4193POPC   PO450834   9.221   6.735   7.920  0.4286  0.4407  0.2650
 4193POPC   GL150835   9.226   6.850   7.572  0.1185  0.2357 -0.2243
 4193POPC   GL250836   9.169   6.797   7.239  0.0698 -0.0182 -0.0868
 4193POPC   C1A50837   9.595   7.038   7.380 -0.3701  0.2149 -0.3730
 4193POPC   D2A50838   9.852   7.129   7.025 -0.0700 -0.0510 -0.1562
 4193POPC   C3A50839   9.995   7.201   6.611  0.0392 -0.0352  0.0934
 4193POPC   C4A50840  10.079   7.063   6.193 -0.0986  0.1647 -0.1660
 4193POPC   C1B50841   9.518   6.793   6.875 -0.0764  0.0986  0.1093
 4193POPC   C2B50842   9.633   6.659   6.437  0.3108  0.1133 -0.1940
 4193POPC   C3B50843  10.141   6.598   6.279 -0.0325  0.1971  0.2561
 4193POPC   C4B50844  10.409   6.640   5.916 -0.0380  0.2561 -0.0387
 4194POPC   NC350845  29.804  27.406   8.248 -0.0678 -0.2078  0.1283
 4194POPC   PO450846  30.166  27.485   8.447  0.1477  0.2123  0.2709
 4194POPC   GL150847  30.470  27.632   8.237  0.5896 -0.1490  0.1750
 4194POPC   GL250848  30.595  27.495   7.991  0.1876 -0.3163 -0.0903
 4194POPC   C1A50849  30.501  28.030   8.098  0.2546 -0.4306 -0.0905
 4194POPC   D2A50850  30.863  28.384   8.036  0.2754  0.0757  0.1540
 4194POPC   C3A50851  30.774  28.779   8.261 -0.1585  0.5659 -0.2183
 4194POPC   C4A50852  30.637  29.192   8.060  0.1243 -0.2500  0.1609
 4194POPC   C1B50853  30.507  27.765   7.583  0.0235  0.1980  0.1810
 4194POPC   C2B50854  30.723  27.990   7.222  0.3742  0.2037  0.1904
 4194POPC   C3B50855  31.014  28.174   6.933 -0.1718 -0.0118 -0.0642
 4194POPC   C4B50856  31.243  28.295   6.525  0.0163  0.1563 -0.3102
 4195POPC   NC350857   8.919  26.862   7.959  0.2108 -0.1481 -0.1137
 4195POPC   PO450858   9.090  27.216   7.857  0.2976  0.0042  0.0153
 4195POPC   GL150859   9.264  27.515   7.612  0.0384  0.1863 -0.2268
 4195POPC   GL250860   8.979  27.659   7.582  0.1618 -0.0274 -0.0090
 4195POPC   C1A50861   9.438  27.581   7.182  0.0186  0.0554  0.0388
 4195POPC   D2A50862   9.423  27.564   6.718 -0.3106 -0.0871 -0.0157
 4195POPC   C3A50863   9.168  27.512   6.413 -0.1432 -0.2396  0.0249
 4195POPC   C4A50864   8.970  27.314   6.077  0.1086 -0.0361  0.0838
 4195POPC   C1B50865   8.872  27.720   7.174  0.3441 -0.3280 -0.1682
 4195POPC   C2B50866   8.845  27.639   6.749  0.2362 -0.0686  0.4539
 4195POPC   C3B50867   8.538  27.413   6.442 -0.1225 -0.0085 -0.1818
 4195POPC   C4B50868   8.312  27.484   6.069 -0.0383  0.3123 -0.2681
 4196POPC   NC350869  27.699   8.721   8.108  0.3358 -0.1823  0.2217
 4196POPC   PO450870  27.412   8.655   7.857  0.2071 -0.0754 -0.0678
 4196POPC   GL150871  27.330   8.643   7.493  0.1451 -0.1518  0.1168
 4196POPC   GL250872  27.492   8.384   7.379  0.0039 -0.1168  0.2705
 4196POPC   C1A50873  27.424   8.863   7.126  0.0253  0.0916  0.1275
 4196POPC   D2A50874  27.343   8.880   6.684 -0.2638  0.0582 -0.3064
 4196POPC   C3A50875  27.447   9.091   6.286  0.0803  0.1959 -0.0366
 4196POPC   C4A50876  27.578   9.003   5.871  0.0264  0.2870 -0.2661
 4196POPC   C1B50877  27.290   8.371   6.904 -0.1904 -0.1284 -0.1980
 4196POPC   C2B50878  27.002   8.153   6.630  0.0958  0.1205  0.1137
 4196POPC   C3B50879  26.877   7.774   6.329 -0.0268  0.0743 -0.0242
 4196POPC   C4B50880  27.102   7.425   6.068  0.1066 -0.1242 -0.0151
 4197POPC   NC350881  29.720  16.866   7.756  0.2359  0.0774  0.2940
 4197POPC   PO450882  29.713  16.737   7.412  0.2562 -0.0746 -0.0094
 4197POPC   GL150883  29.689  16.600   7.070 -0.1128  0.1232  0.0906
 4197POPC   GL250884  29.478  16.633   6.961 -0.0896 -0.1325 -0.1905
 4197POPC   C1A50885  29.807  16.238   6.812  0.0804  0.0353 -0.4760
 4197POPC   D2A50886  29.742  15.972   6.434 -0.2098 -0.3948  0.0947
 4197POPC   C3A50887  29.536  15.517   6.364  0.4962 -0.0219 -0.1985
 4197POPC   C4A50888  29.172  15.409   6.190  0.0044  0.0956  0.1687
 4197POPC   C1B50889  29.421  16.353   6.570  0.2486 -0.1628  0.1337
 4197POPC   C2B50890  29.584  16.367   6.104  0.1088  0.3527  0.0772
 4197POPC   C3B50891  29.667  16.256   5.658  0.0394 -0.0177  0.0850
 4197POPC   C4B50892  29.841  16.277   5.236  0.1102 -0.0950 -0.1213
 4198POPC   NC350893   6.300  19.620   7.152  0.1741  0.1978  0.2272
 4198POPC   PO450894   6.260  19.321   7.409  0.2368 -0.4238  0.3561
 4198POPC   GL150895   6.352  19.116   7.117 -0.0944  0.1150 -0.0386
 4198POPC   GL250896   6.082  19.063   6.957 -0.0120  0.1795 -0.0126
 4198POPC   C1A50897   6.452  18.943   6.703 -0.2172 -0.2075 -0.2192
 4198POPC   D2A50898   6.485  18.755   6.283 -0.0773  0.0729  0.1459
 4198POPC   C3A50899   6.769  18.832   5.967  0.0821 -0.1207 -0.2440
 4198POPC   C4A50900   7.076  19.184   5.806  0.0416 -0.1837 -0.1411
 4198POPC   C1B50901   6.006  18.830   6.597  0.1450  0.0439 -0.1320
 4198POPC   C2B50902   5.883  18.459   6.303 -0.0286  0.0912  0.2181
 4198POPC   C3B50903   5.929  18.293   5.878 -0.2741 -0.1481 -0.1538
 4198POPC   C4B50904   5.715  18.149   5.499 -0.0175  0.1938 -0.0377
 4199POPC   NC350905  24.689   7.068   7.636  0.1089 -0.0941  0.2883
 4199POPC   PO450906  24.415   6.794   7.590  0.0008 -0.1280  0.0182
 4199POPC   GL150907  24.200   6.867   7.365  0.0920 -0.3578  0.6835
 4199POPC   GL250908  24.016   6.626   7.337 -0.2120 -0.0506  0.2874
 4199POPC   C1A50909  24.043   6.959   6.922 -0.1659  0.0619 -0.0041
 4199POPC   D2A50910  24.238   6.750   6.568  0.1124  0.1410 -0.1794
 4199POPC   C3A50911  24.615   6.930   6.438  0.1359 -0.0752 -0.1110
 4199POPC   C4A50912  24.783   7.180   6.098  0.3393  0.1127  0.2205
 4199POPC   C1B50913  23.911   6.515   6.915  0.1218 -0.0338  0.0923
 4199POPC   C2B50914  23.928   6.323   6.436 -0.3197 -0.0637  0.0278
 4199POPC   C3B50915  24.079   6.326   5.996 -0.0102  0.2000 -0.1697
 4199POPC   C4B50916  24.110   6.645   5.692  0.0126 -0.0356 -0.1642
 4200POPC   NC350917  17.267  23.580   7.557 -0.1098 -0.3116 -0.0163
 4200POPC   PO450918  17.485  23.249   7.603  0.1449  0.0238  0.0440
 4200POPC   GL150919  17.313  22.934   7.442  0.6143  0.0485 -0.0282
 4200POPC   GL250920  17.042  22.888   7.401 -0.3334  0.0720  0.2982
 4200POPC   C1A50921  17.332  22.756   7.016  0.0914 -0.0694 -0.1878
 4200POPC   D2A50922  17.586  22.420   6.749  0.0569 -0.2093 -0.0145
 4200POPC   C3A50923  17.409  22.505   6.276  0.0665  0.1278 -0.0755
 4200POPC   C4A50924  17.492  22.543   5.812  0.2754  0.3603 -0.0509
 4200POPC   C1B50925  16.899  23.016   6.991  0.3842 -0.1270  0.0850
 4200POPC   C2B50926  16.762  23.043   6.531 -0.2519  0.0892  0.0334
 4200POPC   C3B50927  16.939  23.212   6.220  0.0820 -0.2121 -0.2048
 4200POPC   C4B50928  17.323  23.486   6.280  0.0182  0.1629 -0.0511
 4201POPC   NC350929  26.858   9.812   7.711 -0.2619  0.3213  0.0343
 4201POPC   PO450930  27.072  10.125   7.721 -0.2089 -0.1010 -0.2222
 4201POPC   GL150931  27.197  10.122   7.334 -0.3758 -0.0383 -0.0999
 4201POPC   GL250932  26.935  10.057   7.225  0.0864  0.0915  0.2517
 4201POPC   C1A50933  27.377   9.908   6.968  0.0777 -0.2307 -0.0066
 4201POPC   D2A50934  27.372  10.172   6.652 -0.1153 -0.3039 -0.0757
 4201POPC   C3A50935  27.419  10.179   6.141  0.0625  0.1972 -0.2448
 4201POPC   C4A50936  27.571  10.206   5.698  0.0472  0.1008 -0.0217
 4201POPC   C1B50937  26.864  10.094   6.793  0.0102  0.2326 -0.1480
 4201POPC   C2B50938  26.943  10.187   6.334  0.1047 -0.0703 -0.0623
 4201POPC   C3B50939  26.824  10.373   5.925 -0.0682 -0.0588 -0.0271
 4201POPC   C4B50940  26.599  10.396   5.483  0.1459  0.1913  0.0391
 4202POPC   NC350941  10.590   4.887   7.658 -0.4432  0.1771 -0.1663
 4202POPC   PO450942  10.680   5.176   7.866  0.0626 -0.1429  0.2694
 4202POPC   GL150943  10.729   5.344   7.517 -0.2778  0.1592 -0.0744
 4202POPC   GL250944  10.698   5.181   7.279  0.2684 -0.1515 -0.1874
 4202POPC   C1A50945  11.065   5.602   7.220 -0.0227 -0.1601  0.0362
 4202POPC   D2A50946  11.385   5.697   6.897  0.2855 -0.1635  0.1424
 4202POPC   C3A50947  11.539   5.958   6.583 -0.1259 -0.1778  0.3906
 4202POPC   C4A50948  11.544   6.407   6.352  0.0105  0.0550  0.0730
 4202POPC   C1B50949  10.680   5.391   6.839 -0.0332 -0.0737 -0.0325
 4202POPC   C2B50950  10.646   5.702   6.498 -0.1620  0.3502  0.0799
 4202POPC   C3B50951  10.903   5.913   6.173  0.0776  0.1794  0.1155
 4202POPC   C4B50952  11.166   6.224   5.916  0.2543  0.0097 -0.0405
 4203POPC   NC350953  16.767  21.310   7.525 -0.1026 -0.0827 -0.0208
 4203POPC   PO450954  17.019  21.190   7.735  0.2144  0.1206 -0.1797
 4203POPC   GL150955  17.164  21.069   7.384  0.2987 -0.2321  0.1213
 4203POPC   GL250956  17.443  21.137   7.374  0.2784 -0.1651  0.1768
 4203POPC   C1A50957  16.949  20.916   7.028 -0.2696 -0.0287  0.1351
 4203POPC   D2A50958  16.686  20.942   6.672  0.2886 -0.1439  0.2072
 4203POPC   C3A50959  16.751  20.849   6.212  0.3413 -0.1773 -0.1612
 4203POPC   C4A50960  17.040  20.787   5.910  0.2680 -0.0016  0.0092
 4203POPC   C1B50961  17.629  21.505   7.177 -0.2949  0.2928  0.2220
 4203POPC   C2B50962  17.985  21.585   6.883 -0.1025 -0.2780  0.2509
 4203POPC   C3B50963  18.298  21.612   6.535 -0.1245  0.0731  0.0171
 4203POPC   C4B50964  18.307  21.543   6.068 -0.1645  0.0004 -0.2503
 4204POPC   NC350965  21.568   1.382   7.682 -0.1447 -0.1785 -0.0371
 4204POPC   PO450966  21.219   1.283   7.620  0.3359 -0.0122  0.1624
 4204POPC   GL150967  21.236   1.252   7.178 -0.1822 -0.1850 -0.2341
 4204POPC   GL250968  20.953   1.155   7.084  0.2567  0.1096 -0.4079
 4204POPC   C1A50969  21.350   1.219   6.719  0.2120 -0.1053  0.0332
 4204POPC   D2A50970  21.392   1.265   6.235  0.0143 -0.0552  0.0135
 4204POPC   C3A50971  21.173   1.608   5.997 -0.0085 -0.3054  0.1476
 4204POPC   C4A50972  20.827   1.865   5.756 -0.2462 -0.1936  0.0600
 4204POPC   C1B50973  20.927   0.941   6.687 -0.1197 -0.0370  0.2157
 4204POPC   C2B50974  20.946   1.144   6.262 -0.0402 -0.0303  0.0551
 4204POPC   C3B50975  20.968   1.187   5.807  0.0989 -0.2146 -0.0670
 4204POPC   C4B50976  21.001   1.395   5.381  0.1384 -0.3390  0.3003
 4205POPC   NC350977  14.504  24.864   7.807  0.0193 -0.1772 -0.1120
 4205POPC   PO450978  14.174  24.693   7.678 -0.0564  0.1770 -0.2464
 4205POPC   GL150979  14.160  24.967   7.405  0.0720  0.0510  0.0633
 4205POPC   GL250980  14.474  24.873   7.323  0.0909  0.0723  0.0254
 4205POPC   C1A50981  14.285  25.081   6.926  0.0957  0.2135  0.1208
 4205POPC   D2A50982  14.292  25.279   6.468  0.0550 -0.0923  0.0343
 4205POPC   C3A50983  14.047  25.588   6.293 -0.0125 -0.0241 -0.2025
 4205POPC   C4A50984  13.903  26.014   6.141  0.2758  0.1780  0.1754
 4205POPC   C1B50985  14.372  24.585   6.935  0.1514 -0.1514 -0.0062
 4205POPC   C2B50986  14.254  24.318   6.686  0.0527 -0.1887 -0.0342
 4205POPC   C3B50987  14.142  23.953   6.367  0.0304  0.0153  0.1119
 4205POPC   C4B50988  14.076  23.658   6.046  0.1526  0.3070  0.0382
 4206POPC   NC350989  10.085   5.795   7.363  0.0660 -0.0882 -0.0385
 4206POPC   PO450990   9.811   5.510   7.471 -0.4489 -0.2168 -0.0382
 4206POPC   GL150991   9.844   5.357   7.041 -0.0448 -0.2156  0.0613
 4206POPC   GL250992  10.201   5.280   7.029  0.0011 -0.0405  0.1761
 4206POPC   C1A50993   9.647   5.559   6.610  0.0878 -0.3826 -0.0647
 4206POPC   D2A50994   9.550   5.814   6.254  0.5704  0.1534  0.1007
 4206POPC   C3A50995   9.363   5.565   5.909 -0.1840  0.1838 -0.1064
 4206POPC   C4A50996   9.304   5.296   5.537  0.1697 -0.2549  0.1823
 4206POPC   C1B50997  10.120   5.697   6.844 -0.1628 -0.2318  0.0859
 4206POPC   C2B50998  10.085   5.829   6.382 -0.1800  0.3259 -0.2336
 4206POPC   C3B50999   9.929   5.675   5.930 -0.1918 -0.3519  0.0357
 4206POPC   C4B51000   9.784   5.575   5.481  0.0371 -0.1510 -0.5044
 4207POPC   NC351001  21.020  31.679   7.437  0.2524 -0.1507 -0.1452
 4207POPC   PO451002  21.202  31.328   7.515 -0.0168 -0.1841  0.0231
 4207POPC   GL151003  21.174  31.444   7.037  0.2935  0.0429  0.2363
 4207POPC   GL251004  21.229  31.194   7.033 -0.0466 -0.5082  0.1258
 4207POPC   C1A51005  21.592  31.465   6.816 -0.0567 -0.0566 -0.2454
 4207POPC   D2A51006  21.768  31.450   6.368 -0.1103  0.2034 -0.3740
 4207POPC   C3A51007  21.563  31.458   5.954 -0.0567 -0.0062 -0.0790
 4207POPC   C4A51008  21.654  31.416   5.490  0.0868  0.2189 -0.2309
 4207POPC   C1B51009  21.146  30.852   6.742 -0.0235 -0.1275 -0.0328
 4207POPC   C2B51010  21.188  30.664   6.315  0.1357  0.2183 -0.0781
 4207POPC   C3B51011  21.283  30.557   5.833  0.2038 -0.0167 -0.5400
 4207POPC   C4B51012  21.532  30.330   5.576 -0.1754  0.1073  0.0762
 4208POPC   NC351013  20.650  18.110   7.479 -0.0986 -0.2741  0.1359
 4208POPC   PO451014  20.410  18.466   7.522 -0.1443 -0.1158 -0.0471
 4208POPC   GL151015  20.616  18.327   7.057 -0.2039 -0.1353  0.0896
 4208POPC   GL251016  20.372  18.416   7.008  0.1032 -0.1651 -0.2339
 4208POPC   C1A51017  20.777  18.361   6.612 -0.0096  0.0232 -0.0513
 4208POPC   D2A51018  20.619  18.315   6.205 -0.0080 -0.0892  0.1252
 4208POPC   C3A51019  20.608  18.095   5.793 -0.0054 -0.1282 -0.1093
 4208POPC   C4A51020  20.730  18.287   5.394  0.1064 -0.1876 -0.0997
 4208POPC   C1B51021  20.250  18.454   6.581 -0.1014  0.1913  0.0821
 4208POPC   C2B51022  20.121  18.604   6.125 -0.0938 -0.1524 -0.0318
 4208POPC   C3B51023  19.832  18.771   5.815 -0.0113  0.0898 -0.1211
 4208POPC   C4B51024  19.612  19.127   5.643 -0.1527  0.1464 -0.2730
 4209POPC   NC351025  12.932   2.923   7.709 -0.0502 -0.1180  0.1955
 4209POPC   PO451026  12.861   3.283   7.787  0.1390  0.2104  0.2304
 4209POPC   GL151027  12.872   3.264   7.350 -0.0083  0.0323  0.2086
 4209POPC   GL251028  12.802   3.435   7.227 -0.1219  0.1238  0.3115
 4209POPC   C1A51029  13.018   3.148   6.884  0.3555 -0.0098  0.0261
 4209POPC   D2A51030  12.877   2.778   6.686 -0.2919 -0.0268  0.2207
 4209POPC   C3A51031  12.773   2.601   6.259  0.0882  0.1795  0.2350
 4209POPC   C4A51032  12.955   2.402   5.912 -0.0507  0.1621 -0.0600
 4209POPC   C1B51033  12.855   3.639   6.803  0.2278  0.0058 -0.3630
 4209POPC   C2B51034  13.004   3.566   6.421  0.0912 -0.1990 -0.0921
 4209POPC   C3B51035  13.052   3.681   5.973  0.1836 -0.1567 -0.2386
 4209POPC   C4B51036  13.027   3.744   5.470  0.0702  0.0215  0.2728
 4210POPC   NC351037  23.504  19.662   7.457  0.2121  0.3082  0.0805
 4210POPC   PO451038  23.291  19.993   7.563  0.0395  0.2500  0.0694
 4210POPC   GL151039  23.356  20.141   7.120  0.0609  0.2933  0.0912
 4210POPC   GL251040  23.385  19.914   6.985 -0.4467 -0.0941  0.0313
 4210POPC   C1A51041  23.454  20.495   6.789  0.1383 -0.0868 -0.1819
 4210POPC   D2A51042  23.840  20.680   6.606 -0.2311 -0.0263  0.0531
 4210POPC   C3A51043  24.115  20.657   6.231  0.1184 -0.1784 -0.1177
 4210POPC   C4A51044  24.458  20.827   6.018 -0.0138  0.1362 -0.0407
 4210POPC   C1B51045  23.388  19.878   6.521  0.5306 -0.1441 -0.0372
 4210POPC   C2B51046  23.186  20.009   6.110 -0.2046  0.2749 -0.0174
 4210POPC   C3B51047  23.263  20.328   5.793 -0.3043  0.2946  0.0566
 4210POPC   C4B51048  23.581  20.608   5.551 -0.1817 -0.0463  0.1989
 4211POPC   NC351049   0.586   5.187   7.691 -0.1852  0.1044  0.2841
 4211POPC   PO451050   0.553   4.996   8.020  0.1135 -0.2153 -0.2231
 4211POPC   GL151051   0.574   4.713   7.682 -0.1240 -0.1552 -0.0056
 4211POPC   GL251052   0.885   4.556   7.737  0.1619  0.1228 -0.1502
 4211POPC   C1A51053   0.589   4.646   7.203  0.0908  0.0521 -0.4313
 4211POPC   D2A51054   0.206   4.681   6.887 -0.0289  0.0056  0.3316
 4211POPC   C3A51055   0.164   4.637   6.435  0.1089  0.2640  0.1797
 4211POPC   C4A51056  -0.127   4.347   6.224 -0.0678 -0.1875  0.0500
 4211POPC   C1B51057   1.041   4.522   7.384  0.1044  0.2822 -0.0885
 4211POPC   C2B51058   1.000   4.433   6.934 -0.2238 -0.3174  0.3124
 4211POPC   C3B51059   1.006   4.420   6.501 -0.0507 -0.3364  0.0117
 4211POPC   C4B51060   1.303   4.209   6.241 -0.1678  0.0594 -0.3042
 4212POPC   NC351061  17.384  15.142   7.724 -0.3880 -0.0014  0.0421
 4212POPC   PO451062  17.202  14.787   7.702  0.0220 -0.0619 -0.0243
 4212POPC   GL151063  17.242  14.738   7.358  0.0679 -0.1263  0.1967
 4212POPC   GL251064  17.213  15.025   7.257 -0.3878  0.1472  0.0792
 4212POPC   C1A51065  17.369  14.468   7.013 -0.0963 -0.2253  0.1925
 4212POPC   D2A51066  17.315  14.517   6.517  0.1814 -0.1535 -0.0516
 4212POPC   C3A51067  17.569  14.409   6.204  0.1348  0.1100 -0.2699
 4212POPC   C4A51068  17.406  14.190   5.808 -0.1070  0.0063  0.0965
 4212POPC   C1B51069  17.349  14.961   6.876  0.1530  0.0327 -0.2141
 4212POPC   C2B51070  17.214  14.988   6.403  0.3993 -0.1201  0.2263
 4212POPC   C3B51071  17.068  15.135   6.005  0.0702 -0.3888 -0.0121
 4212POPC   C4B51072  16.929  15.468   5.729  0.1927 -0.3822 -0.0422
 4213POPC   NC351073   8.212   4.449   7.489 -0.0325  0.4058 -0.0925
 4213POPC   PO451074   8.318   4.780   7.685 -0.0444  0.1685 -0.0165
 4213POPC   GL151075   8.229   4.799   7.192  0.3468  0.0511  0.0635
 4213POPC   GL251076   8.431   4.610   7.028  0.2537 -0.3159  0.1389
 4213POPC   C1A51077   8.142   4.965   6.750  0.2335 -0.1616  0.0054
 4213POPC   D2A51078   7.963   5.261   6.457  0.0483  0.0239 -0.0283
 4213POPC   C3A51079   8.109   5.209   6.022 -0.1363 -0.0082  0.1989
 4213POPC   C4A51080   8.129   5.199   5.551 -0.0074  0.0277 -0.2186
 4213POPC   C1B51081   8.401   4.557   6.584 -0.0340  0.1610  0.2068
 4213POPC   C2B51082   8.276   4.804   6.228 -0.0232  0.2376  0.0850
 4213POPC   C3B51083   8.037   4.747   5.875 -0.1117  0.0453  0.0773
 4213POPC   C4B51084   7.959   4.718   5.414  0.2328 -0.2290 -0.1193
 4214POPC   NC351085  19.062  14.776   7.913 -0.1639  0.7263 -0.0776
 4214POPC   PO451086  19.239  14.648   7.542 -0.1816  0.2069  0.0790
 4214POPC   GL151087  19.364  14.787   7.190  0.2017  0.0140 -0.1239
 4214POPC   GL251088  19.171  14.603   7.045 -0.0153  0.2119  0.0979
 4214POPC   C1A51089  19.738  14.675   6.882  0.0786 -0.0190  0.0539
 4214POPC   D2A51090  20.063  14.496   6.610  0.1395  0.1324  0.1262
 4214POPC   C3A51091  20.023  14.600   6.133  0.1677  0.2857  0.3379
 4214POPC   C4A51092  20.029  14.527   5.629  0.0087  0.0443  0.0981
 4214POPC   C1B51093  18.982  14.671   6.638 -0.0630  0.0632 -0.1560
 4214POPC   C2B51094  19.019  14.665   6.180  0.0240  0.2109 -0.3182
 4214POPC   C3B51095  19.226  14.842   5.848  0.0219 -0.0472  0.2178
 4214POPC   C4B51096  19.709  14.880   5.753 -0.0954  0.1098  0.1877
 4215POPC   NC351097   3.875  26.649   7.861  0.0044  0.1495  0.1399
 4215POPC   PO451098   4.116  26.919   7.748 -0.1105 -0.0767 -0.2868
 4215POPC   GL151099   4.187  26.828   7.419 -0.1111  0.1826  0.0545
 4215POPC   GL251100   4.062  27.053   7.235  0.1869 -0.3779  0.0129
 4215POPC   C1A51101   4.249  26.681   7.006  0.0742 -0.0992 -0.0537
 4215POPC   D2A51102   4.345  26.590   6.538  0.0869 -0.1232 -0.1013
 4215POPC   C3A51103   4.688  26.701   6.273 -0.0849  0.1514  0.0259
 4215POPC   C4A51104   4.812  27.025   5.999  0.4393  0.1846  0.0292
 4215POPC   C1B51105   4.529  27.122   7.189  0.1016 -0.0960  0.2576
 4215POPC   C2B51106   4.978  27.086   7.305 -0.0906 -0.0476  0.0150
 4215POPC   C3B51107   5.419  27.083   7.331  0.2541  0.1097 -0.2490
 4215POPC   C4B51108   5.656  27.034   6.939  0.1523  0.1573  0.0478
 4216POPC   NC351109  17.250  27.368   7.908 -0.0486  0.0816  0.1749
 4216POPC   PO451110  16.996  27.161   7.708  0.0380 -0.6118  0.2238
 4216POPC   GL151111  16.986  27.158   7.291 -0.2739 -0.1949 -0.0953
 4216POPC   GL251112  17.271  27.195   7.169  0.1474 -0.1481  0.0145
 4216POPC   C1A51113  16.827  27.125   6.869 -0.0178  0.1096  0.0016
 4216POPC   D2A51114  16.682  27.173   6.470  0.2028  0.0407  0.1529
 4216POPC   C3A51115  17.022  26.882   6.256 -0.1625 -0.2674 -0.1057
 4216POPC   C4A51116  17.345  26.946   5.930 -0.2632 -0.0478  0.0565
 4216POPC   C1B51117  17.315  27.197   6.732 -0.0768 -0.2063 -0.0299
 4216POPC   C2B51118  17.482  26.917   6.472 -0.0443 -0.1286  0.3745
 4216POPC   C3B51119  17.809  26.797   6.145  0.1259 -0.2007 -0.0956
 4216POPC   C4B51120  18.059  27.015   5.845  0.4953 -0.1218  0.2999
 4217POPC   NC351121  28.833   7.573   7.561 -0.2441  0.1134  0.3330
 4217POPC   PO451122  29.181   7.723   7.619  0.0863 -0.1480  0.1404
 4217POPC   GL151123  29.311   7.734   7.313 -0.2574 -0.0423 -0.4533
 4217POPC   GL251124  29.187   7.580   7.119 -0.2383  0.2049 -0.0534
 4217POPC   C1A51125  29.299   8.112   7.066 -0.2709  0.1525  0.2696
 4217POPC   D2A51126  29.136   8.295   6.694 -0.1325  0.0689  0.3093
 4217POPC   C3A51127  29.403   8.561   6.345 -0.0149  0.0021  0.1854
 4217POPC   C4A51128  29.375   8.871   6.018  0.2551 -0.1223  0.1507
 4217POPC   C1B51129  29.297   7.794   6.714 -0.3584 -0.0315  0.0578
 4217POPC   C2B51130  29.162   7.772   6.304 -0.0294 -0.0531  0.1738
 4217POPC   C3B51131  29.182   7.774   5.817  0.0273 -0.1213 -0.0829
 4217POPC   C4B51132  29.104   7.581   5.423 -0.2394 -0.0481 -0.1615
 4218POPC   NC351133  26.760   6.253   7.534  0.1010 -0.1418  0.2062
 4218POPC   PO451134  26.622   6.008   7.767 -0.1035  0.1451  0.0274
 4218POPC   GL151135  26.781   5.817   7.427  0.0457 -0.1955 -0.3716
 4218POPC   GL251136  26.818   5.598   7.522  0.1290  0.2806  0.0236
 4218POPC   C1A51137  26.846   5.799   6.974 -0.0230  0.0940  0.1498
 4218POPC   D2A51138  27.020   5.543   6.628 -0.0891 -0.1096  0.0785
 4218POPC   C3A51139  26.849   5.696   6.208 -0.0248 -0.0332 -0.3219
 4218POPC   C4A51140  27.081   5.733   5.840 -0.1854 -0.1320 -0.1383
 4218POPC   C1B51141  26.747   5.356   7.147 -0.0973 -0.0886  0.0603
 4218POPC   C2B51142  26.779   5.107   6.761  0.2435 -0.3197  0.3303
 4218POPC   C3B51143  26.747   4.838   6.385  0.2487 -0.3348 -0.2352
 4218POPC   C4B51144  26.669   4.406   6.184 -0.2847 -0.0515 -0.0674
 4219POPC   NC351145  11.289  13.212   9.128  0.0416 -0.1477  0.0070
 4219POPC   PO451146  11.119  13.106   8.812 -0.0217  0.3081  0.1019
 4219POPC   GL151147  11.219  12.767   8.515  0.0313  0.1047  0.0700
 4219POPC   GL251148  10.938  12.660   8.527  0.3558 -0.2935 -0.2024
 4219POPC   C1A51149  11.151  12.589   8.083 -0.0344 -0.2648 -0.2079
 4219POPC   D2A51150  11.011  12.268   7.811 -0.2295  0.1847 -0.0928
 4219POPC   C3A51151  10.865  12.295   7.370 -0.0607 -0.1952  0.0610
 4219POPC   C4A51152  10.525  12.391   7.123 -0.0301  0.0997  0.0269
 4219POPC   C1B51153  10.690  12.438   8.220  0.0492 -0.0989  0.2650
 4219POPC   C2B51154  10.637  12.581   7.751  0.1329 -0.2102  0.4626
 4219POPC   C3B51155  10.428  12.804   7.393  0.1402  0.0601  0.2214
 4219POPC   C4B51156  10.420  12.839   6.932  0.1570 -0.2961 -0.1282
 4220POPC   NC351157  20.208  15.568   7.390  0.1085 -0.1413  0.2818
 4220POPC   PO451158  20.338  15.220   7.434  0.0022 -0.0707  0.1256
 4220POPC   GL151159  20.367  15.304   7.079  0.2720 -0.0197  0.0542
 4220POPC   GL251160  20.669  15.368   7.062  0.0910 -0.0227  0.0989
 4220POPC   C1A51161  20.411  15.775   6.902  0.2179 -0.0179  0.1047
 4220POPC   D2A51162  20.503  15.908   6.464  0.1786 -0.3921  0.0611
 4220POPC   C3A51163  20.736  15.662   6.150  0.0971 -0.1464 -0.0654
 4220POPC   C4A51164  21.012  15.698   5.784  0.2205  0.3192 -0.1214
 4220POPC   C1B51165  20.904  15.486   6.639 -0.1978 -0.1822 -0.1004
 4220POPC   C2B51166  21.205  15.632   6.279 -0.0603  0.0550  0.1436
 4220POPC   C3B51167  21.481  15.799   5.965 -0.1789 -0.0546  0.0727
 4220POPC   C4B51168  21.705  16.090   5.649 -0.1327  0.0244  0.0346
 4221POPC   NC351169  15.860  28.477   7.439 -0.0207 -0.1239  0.1570
 4221POPC   PO451170  16.208  28.311   7.335 -0.1513  0.0623 -0.0673
 4221POPC   GL151171  16.121  28.448   7.056  0.1608 -0.2448 -0.1120
 4221POPC   GL251172  15.985  28.312   6.833 -0.1312 -0.2780  0.1386
 4221POPC   C1A51173  16.450  28.496   6.730 -0.3826 -0.2869 -0.2193
 4221POPC   D2A51174  16.785  28.513   6.386 -0.0361 -0.1783  0.2025
 4221POPC   C3A51175  16.868  28.762   6.066  0.0810 -0.2828 -0.0483
 4221POPC   C4A51176  16.853  28.823   5.648 -0.0249  0.0938 -0.0103
 4221POPC   C1B51177  16.105  27.961   6.435 -0.1529 -0.4894 -0.2402
 4221POPC   C2B51178  16.084  27.932   5.973 -0.4392  0.2705 -0.1291
 4221POPC   C3B51179  16.321  28.144   5.645  0.1553 -0.3473  0.2096
 4221POPC   C4B51180  16.163  28.311   5.228 -0.3299  0.1272 -0.0916
 4222POPC   NC351181   5.369  12.864   7.791  0.1840 -0.0026 -0.0175
 4222POPC   PO451182   5.383  12.895   7.414  0.1215 -0.0362  0.3381
 4222POPC   GL151183   5.518  13.030   7.068 -0.0209  0.3362 -0.2446
 4222POPC   GL251184   5.800  13.126   7.097 -0.0906 -0.0881  0.3187
 4222POPC   C1A51185   5.576  13.008   6.631  0.0051 -0.0550  0.1132
 4222POPC   D2A51186   5.473  12.956   6.154 -0.1158  0.2981 -0.1242
 4222POPC   C3A51187   5.311  13.344   6.030 -0.0066 -0.1485  0.1378
 4222POPC   C4A51188   5.500  13.652   5.706  0.1203  0.2401 -0.3446
 4222POPC   C1B51189   5.540  13.490   7.218 -0.2427  0.1116  0.0272
 4222POPC   C2B51190   5.391  13.839   6.922 -0.0676  0.2052 -0.4408
 4222POPC   C3B51191   5.183  14.133   6.651  0.1556 -0.2444  0.0554
 4222POPC   C4B51192   5.169  14.368   6.237  0.0302  0.3119  0.2073
 4223POPC   NC351193  28.884   3.606   7.976  0.0204  0.2957 -0.1955
 4223POPC   PO451194  28.892   3.439   7.623 -0.1220  0.0387  0.1521
 4223POPC   GL151195  28.920   3.564   7.263  0.0038  0.1022 -0.1550
 4223POPC   GL251196  28.569   3.571   7.274 -0.4132 -0.3049  0.2015
 4223POPC   C1A51197  28.890   3.766   6.865 -0.1742 -0.0015  0.1293
 4223POPC   D2A51198  28.906   4.056   6.461  0.2563  0.2948  0.0453
 4223POPC   C3A51199  28.903   3.832   6.056 -0.0092  0.1568 -0.1331
 4223POPC   C4A51200  29.224   3.528   5.824  0.1450  0.1359 -0.1148
 4223POPC   C1B51201  28.296   3.305   7.057 -0.1171  0.0206  0.0840
 4223POPC   C2B51202  27.972   3.296   6.720  0.1193  0.4137 -0.0879
 4223POPC   C3B51203  27.552   3.244   6.523 -0.1395 -0.2601  0.0400
 4223POPC   C4B51204  27.051   3.189   6.501  0.3662  0.1416  0.1756
 4224POPC   NC351205  15.759  11.207   7.563  0.2024  0.1281 -0.1260
 4224POPC   PO451206  16.102  11.373   7.637  0.0334 -0.4888  0.0173
 4224POPC   GL151207  16.290  11.432   7.291 -0.3109 -0.1014  0.0918
 4224POPC   GL251208  16.046  11.530   7.131 -0.0780  0.3763 -0.0063
 4224POPC   C1A51209  16.420  11.128   6.904  0.3041 -0.3655 -0.0305
 4224POPC   D2A51210  16.517  11.150   6.516 -0.1056  0.0842  0.5501
 4224POPC   C3A51211  16.619  11.527   6.298 -0.2241 -0.0086  0.2836
 4224POPC   C4A51212  16.452  11.766   5.942  0.1674  0.0713 -0.0180
 4224POPC   C1B51213  16.068  11.495   6.649 -0.1856 -0.1531  0.2186
 4224POPC   C2B51214  16.073  11.502   6.202  0.0511  0.0030  0.1437
 4224POPC   C3B51215  15.973  11.684   5.816  0.3200 -0.2025  0.0285
 4224POPC   C4B51216  15.867  11.560   5.352  0.1619  0.0379 -0.2242
 4225POPC   NC351217  22.722  30.301   7.579 -0.1347  0.0895 -0.0764
 4225POPC   PO451218  22.443  30.545   7.657  0.0462 -0.3806  0.1162
 4225POPC   GL151219  22.232  30.399   7.286 -0.0356 -0.2730 -0.1182
 4225POPC   GL251220  22.451  30.279   7.074  0.2288  0.2255 -0.2925
 4225POPC   C1A51221  22.098  30.735   6.946  0.1694 -0.0954 -0.3821
 4225POPC   D2A51222  22.097  31.002   6.578 -0.0195  0.2104  0.2643
 4225POPC   C3A51223  21.975  30.646   6.348  0.1307 -0.1344 -0.4723
 4225POPC   C4A51224  21.711  30.290   6.322 -0.2446 -0.2752 -0.0469
 4225POPC   C1B51225  22.698  30.039   6.769  0.0980 -0.2361 -0.0136
 4225POPC   C2B51226  22.990  29.750   6.473 -0.0915 -0.4101 -0.2911
 4225POPC   C3B51227  23.234  29.775   6.048 -0.0072 -0.2327  0.1708
 4225POPC   C4B51228  23.342  29.699   5.609 -0.0703  0.3081  0.0802
 4226POPC   NC351229  18.680  31.111   7.416 -0.2699  0.0192 -0.3202
 4226POPC   PO451230  18.815  31.363   7.695  0.1604 -0.1693  0.2093
 4226POPC   GL151231  18.678  31.684   7.318 -0.2831  0.1322  0.2289
 4226POPC   GL251232  18.688  31.977   7.364 -0.1965  0.4074  0.1048
 4226POPC   C1A51233  18.711  31.492   6.906 -0.2748 -0.0393  0.5202
 4226POPC   D2A51234  19.109  31.447   6.597  0.1203 -0.4509 -0.0523
 4226POPC   C3A51235  19.470  31.229   6.387  0.0928 -0.0442  0.0280
 4226POPC   C4A51236  19.671  31.071   5.986 -0.1631  0.1370 -0.2240
 4226POPC   C1B51237  18.591  32.150   6.978 -0.1169  0.1447 -0.0586
 4226POPC   C2B51238  18.660  32.193   6.551 -0.0231 -0.2657  0.3971
 4226POPC   C3B51239  18.411  32.421   6.171  0.1282  0.2609  0.1724
 4226POPC   C4B51240  18.153  32.567   5.788  0.0722 -0.3558  0.0529
 4227POPC   NC351241  29.596  21.270   7.614 -0.2521  0.0847 -0.1774
 4227POPC   PO451242  29.601  21.064   7.954 -0.2539  0.0344 -0.2439
 4227POPC   GL151243  29.427  20.868   7.648  0.5046  0.0003  0.0603
 4227POPC   GL251244  29.203  20.718   7.733  0.5414 -0.4467 -0.1313
 4227POPC   C1A51245  29.523  20.910   7.202 -0.0447 -0.2954 -0.1775
 4227POPC   D2A51246  29.815  20.879   6.853  0.1377 -0.0580 -0.3114
 4227POPC   C3A51247  29.590  20.962   6.490  0.1308 -0.0397 -0.1262
 4227POPC   C4A51248  29.325  21.266   6.285 -0.0610  0.2494  0.0138
 4227POPC   C1B51249  29.266  20.494   7.325 -0.0797 -0.3225 -0.1218
 4227POPC   C2B51250  29.314  20.582   6.889  0.3079  0.3292  0.2716
 4227POPC   C3B51251  29.311  20.271   6.584  0.1321  0.1220 -0.0344
 4227POPC   C4B51252  29.198  20.215   6.138  0.1806 -0.0438  0.1641
 4228POPC   NC351253  29.138  26.927   8.207 -0.2392  0.1607  0.0900
 4228POPC   PO451254  29.100  26.559   8.001  0.2896 -0.0081  0.0838
 4228POPC   GL151255  29.072  26.847   7.745 -0.1010  0.0731 -0.1209
 4228POPC   GL251256  28.891  26.823   7.588 -0.0420 -0.1529 -0.3507
 4228POPC   C1A51257  29.230  27.054   7.343  0.1197 -0.1149  0.1659
 4228POPC   D2A51258  29.192  27.460   7.101  0.1395  0.1194 -0.0495
 4228POPC   C3A51259  29.241  27.554   6.658 -0.2579 -0.0130  0.0181
 4228POPC   C4A51260  29.305  27.629   6.239  0.2010  0.0177 -0.0031
 4228POPC   C1B51261  29.121  26.550   7.314  0.1408  0.0889 -0.0142
 4228POPC   C2B51262  29.286  26.418   6.918 -0.2274  0.4172 -0.2638
 4228POPC   C3B51263  29.612  26.575   6.665  0.1197  0.0629 -0.2843
 4228POPC   C4B51264  29.970  26.545   6.467 -0.1572 -0.0645  0.0058
 4229POPC   NC351265  26.982  13.436   7.869  0.0351 -0.2429  0.0116
 4229POPC   PO451266  26.844  13.241   7.605  0.1220 -0.0873  0.0301
 4229POPC   GL151267  26.684  13.418   7.248  0.1333 -0.0614 -0.1438
 4229POPC   GL251268  26.809  13.164   7.110 -0.0971 -0.0050 -0.1435
 4229POPC   C1A51269  26.713  13.513   6.811  0.1490 -0.0226  0.0880
 4229POPC   D2A51270  26.953  13.639   6.441  0.3186 -0.1223  0.1814
 4229POPC   C3A51271  27.366  13.451   6.221 -0.2521  0.0432 -0.0483
 4229POPC   C4A51272  27.740  13.304   5.976  0.2836  0.1727  0.0343
 4229POPC   C1B51273  27.105  13.172   6.702 -0.0320 -0.2150 -0.0159
 4229POPC   C2B51274  27.518  13.085   6.516  0.0289  0.1028  0.0752
 4229POPC   C3B51275  27.507  12.925   6.104  0.1253 -0.0275 -0.0644
 4229POPC   C4B51276  27.515  12.841   5.629 -0.4405 -0.2960 -0.0257
 4230POPC   NC351277  18.389   7.935   8.262  0.1030 -0.3264 -0.2910
 4230POPC   PO451278  18.097   7.753   8.158  0.0164  0.4088 -0.0734
 4230POPC   GL151279  18.252   7.813   7.766  0.2241  0.2180 -0.0453
 4230POPC   GL251280  18.280   8.044   7.731  0.1389 -0.3130 -0.0436
 4230POPC   C1A51281  18.486   7.676   7.402  0.0621  0.2321 -0.2797
 4230POPC   D2A51282  18.524   7.892   7.015 -0.0302  0.0417  0.1362
 4230POPC   C3A51283  18.261   8.133   6.762  0.0350  0.0031 -0.0916
 4230POPC   C4A51284  18.415   8.408   6.461 -0.1271 -0.1093  0.1949
 4230POPC   C1B51285  18.368   8.265   7.318  0.1070 -0.2051 -0.0588
 4230POPC   C2B51286  18.322   8.596   6.936  0.0658  0.2439 -0.2657
 4230POPC   C3B51287  18.390   8.938   6.662 -0.1706 -0.1469  0.1466
 4230POPC   C4B51288  18.114   9.183   6.416 -0.1873 -0.5678  0.0688
 4231POPC   NC351289  22.106  30.451   8.050  0.2675 -0.1816 -0.1113
 4231POPC   PO451290  21.989  30.156   7.794 -0.0491 -0.1276  0.1568
 4231POPC   GL151291  21.758  29.988   7.468  0.0547 -0.2366 -0.3067
 4231POPC   GL251292  21.838  30.089   7.132 -0.1613 -0.1643 -0.1341
 4231POPC   C1A51293  21.724  29.632   7.159 -0.2855  0.1234 -0.1001
 4231POPC   D2A51294  21.853  29.340   6.889 -0.0438  0.1441 -0.1207
 4231POPC   C3A51295  21.639  28.953   6.733 -0.1453 -0.2418 -0.2490
 4231POPC   C4A51296  21.723  28.503   6.814  0.1000  0.0823 -0.1035
 4231POPC   C1B51297  22.058  30.275   6.730 -0.0934 -0.0788  0.0061
 4231POPC   C2B51298  22.199  30.108   6.279  0.1678  0.1108 -0.1691
 4231POPC   C3B51299  22.107  29.797   5.965 -0.1071  0.0241  0.2812
 4231POPC   C4B51300  21.838  29.426   5.941 -0.0511  0.0516  0.0955
 4232POPC   NC351301   5.003  14.348   7.907 -0.1977  0.0989 -0.0118
 4232POPC   PO451302   5.313  14.476   8.118  0.0137 -0.3793 -0.1634
 4232POPC   GL151303   5.594  14.563   7.727 -0.2653  0.0420  0.1505
 4232POPC   GL251304   5.673  14.298   7.753 -0.1829 -0.1604  0.1610
 4232POPC   C1A51305   5.529  14.815   7.349  0.0396 -0.2736 -0.0175
 4232POPC   D2A51306   5.627  15.128   6.997  0.0955  0.0264  0.0198
 4232POPC   C3A51307   5.239  15.321   6.976 -0.0041 -0.1694  0.1753
 4232POPC   C4A51308   4.929  15.616   6.930  0.1244  0.0704  0.2125
 4232POPC   C1B51309   5.908  14.453   7.367  0.0122  0.0707 -0.2241
 4232POPC   C2B51310   5.840  14.673   6.943 -0.2805 -0.1589  0.3038
 4232POPC   C3B51311   5.760  14.512   6.500  0.1857 -0.0951  0.0369
 4232POPC   C4B51312   5.709  14.799   6.151 -0.0281  0.2283 -0.0431
 4233POPC   NC351313   6.912  20.673   7.447  0.0081  0.0372  0.1465
 4233POPC   PO451314   6.499  20.616   7.495  0.2592  0.2048 -0.0592
 4233POPC   GL151315   6.371  20.711   7.142 -0.1411 -0.1085  0.3099
 4233POPC   GL251316   6.191  20.581   7.013  0.0287  0.0324  0.2391
 4233POPC   C1A51317   6.209  21.067   6.868 -0.1006  0.0811 -0.1789
 4233POPC   D2A51318   6.343  21.422   6.486  0.0667  0.2948  0.3259
 4233POPC   C3A51319   6.677  21.549   6.214  0.0728  0.2361  0.0570
 4233POPC   C4A51320   6.611  21.891   5.965 -0.0714 -0.0122  0.0575
 4233POPC   C1B51321   6.223  20.576   6.576 -0.1381 -0.3737  0.0367
 4233POPC   C2B51322   6.275  20.951   6.325 -0.2567  0.0701 -0.0480
 4233POPC   C3B51323   6.285  21.262   5.985  0.0833 -0.1315  0.1121
 4233POPC   C4B51324   6.147  21.749   5.828  0.2377 -0.0134  0.1692
 4234POPC   NC351325  13.827   3.588   8.079 -0.0849 -0.0400  0.2637
 4234POPC   PO451326  13.614   3.738   7.763 -0.1471  0.1917  0.4540
 4234POPC   GL151327  13.611   3.868   7.442  0.1588 -0.2020 -0.0110
 4234POPC   GL251328  13.284   4.054   7.437 -0.1951 -0.0841  0.0123
 4234POPC   C1A51329  13.560   4.116   7.019 -0.0968  0.0121  0.1030
 4234POPC   D2A51330  13.735   4.354   6.658 -0.0891  0.0281 -0.0329
 4234POPC   C3A51331  13.836   4.185   6.235  0.0571 -0.4324 -0.3443
 4234POPC   C4A51332  14.170   3.847   6.218 -0.0263 -0.1607 -0.0551
 4234POPC   C1B51333  13.265   3.735   7.071  0.0803  0.3387  0.0173
 4234POPC   C2B51334  13.393   3.469   6.680  0.2455  0.0875  0.0481
 4234POPC   C3B51335  13.494   3.364   6.263  0.0760 -0.0782 -0.0612
 4234POPC   C4B51336  13.433   3.315   5.829 -0.6189 -0.1168  0.0561
 4235POPC   NC351337  19.635   6.871   7.633  0.0116 -0.0936 -0.1952
 4235POPC   PO451338  19.415   6.536   7.617  0.0407 -0.0301  0.0351
 4235POPC   GL151339  19.625   6.408   7.397 -0.1849 -0.0898 -0.1478
 4235POPC   GL251340  19.592   6.209   7.131 -0.0057  0.0564 -0.0144
 4235POPC   C1A51341  20.084   6.289   7.302  0.0526 -0.1458  0.1215
 4235POPC   D2A51342  20.454   6.192   6.964  0.1202  0.1829 -0.2296
 4235POPC   C3A51343  20.256   6.382   6.569  0.1530  0.2276 -0.1264
 4235POPC   C4A51344  20.203   6.747   6.316 -0.1289  0.0467 -0.3949
 4235POPC   C1B51345  19.779   6.441   6.810 -0.1512 -0.3363 -0.2018
 4235POPC   C2B51346  19.937   6.851   6.679 -0.3506 -0.5526  0.0174
 4235POPC   C3B51347  19.807   7.074   6.296 -0.2335  0.2209 -0.0754
 4235POPC   C4B51348  19.959   7.109   5.858 -0.0144 -0.1026 -0.1691
 4236POPC   NC351349  12.939   3.712   8.039  0.1344  0.1144 -0.1939
 4236POPC   PO451350  12.838   3.864   7.638 -0.1960  0.0393 -0.3440
 4236POPC   GL151351  12.832   3.963   7.284  0.0940  0.2668  0.0978
 4236POPC   GL251352  12.556   4.002   7.114  0.2100  0.0618  0.0178
 4236POPC   C1A51353  13.044   4.159   6.915 -0.1720 -0.3515 -0.2376
 4236POPC   D2A51354  13.277   4.518   6.734  0.0466  0.3504 -0.2246
 4236POPC   C3A51355  13.428   4.423   6.260 -0.0407 -0.1840  0.3150
 4236POPC   C4A51356  13.264   4.637   5.869 -0.2879 -0.1521 -0.3038
 4236POPC   C1B51357  12.537   4.070   6.641 -0.2196  0.1290  0.1441
 4236POPC   C2B51358  12.503   4.012   6.165  0.1282  0.0373 -0.1213
 4236POPC   C3B51359  12.613   3.959   5.755  0.1649  0.0546 -0.1933
 4236POPC   C4B51360  12.566   3.951   5.308  0.0189  0.2292  0.1860
 4237POPC   NC351361  10.554   8.752   7.866  0.1622 -0.1576  0.0239
 4237POPC   PO451362  10.111   8.752   7.898 -0.1226 -0.1004  0.0069
 4237POPC   GL151363  10.149   8.747   7.515  0.3186  0.0553 -0.2014
 4237POPC   GL251364  10.343   8.532   7.438  0.0206  0.0636  0.2592
 4237POPC   C1A51365   9.742   8.938   7.318  0.1226 -0.1404  0.1925
 4237POPC   D2A51366   9.325   9.152   7.289  0.1603  0.2024 -0.3460
 4237POPC   C3A51367   9.118   9.038   6.882  0.6004 -0.0371 -0.0864
 4237POPC   C4A51368   8.877   8.690   6.725 -0.1457 -0.1875 -0.0617
 4237POPC   C1B51369  10.345   8.186   7.087 -0.1933 -0.1113 -0.1292
 4237POPC   C2B51370  10.427   8.064   6.669 -0.1248 -0.0050  0.2765
 4237POPC   C3B51371  10.564   8.100   6.217  0.0058 -0.0209  0.0408
 4237POPC   C4B51372  10.693   8.104   5.798  0.0436  0.0776  0.2152
 4238POPC   NC351373  11.261  27.810   7.531 -0.0235  0.1714  0.0756
 4238POPC   PO451374  11.117  28.158   7.540  0.0861 -0.1830 -0.0239
 4238POPC   GL151375  11.471  28.280   7.374 -0.1532 -0.0859  0.0446
 4238POPC   GL251376  11.565  28.094   7.193 -0.1703  0.1302  0.0511
 4238POPC   C1A51377  11.704  28.500   7.046  0.2012 -0.0113 -0.0107
 4238POPC   D2A51378  11.812  28.743   6.631 -0.0493 -0.0212 -0.1048
 4238POPC   C3A51379  12.257  28.724   6.392  0.0083 -0.1142 -0.2525
 4238POPC   C4A51380  12.418  28.400   6.060  0.0034  0.3304  0.1785
 4238POPC   C1B51381  11.530  28.047   6.716  0.0959  0.0981 -0.1776
 4238POPC   C2B51382  11.607  27.803   6.363 -0.0755  0.1575  0.1283
 4238POPC   C3B51383  11.980  27.843   6.111  0.1336  0.0013  0.1766
 4238POPC   C4B51384  12.072  27.901   5.635  0.0415  0.2518 -0.0602
 4239POPC   NC351385  15.831  23.934   7.924 -0.1008 -0.1631  0.0432
 4239POPC   PO451386  15.696  24.260   7.692  0.0268 -0.0043 -0.0413
 4239POPC   GL151387  15.955  24.333   7.376  0.1483  0.0002 -0.1654
 4239POPC   GL251388  15.674  24.320   7.142  0.4737 -0.2233  0.2176
 4239POPC   C1A51389  16.096  24.112   6.988  0.0754  0.2520  0.3316
 4239POPC   D2A51390  16.095  24.008   6.498 -0.2656 -0.2861  0.2536
 4239POPC   C3A51391  16.269  23.901   6.062  0.0971 -0.3260 -0.0320
 4239POPC   C4A51392  16.499  24.017   5.723  0.0702 -0.2387  0.1885
 4239POPC   C1B51393  15.298  24.367   6.881  0.0876 -0.3743  0.2272
 4239POPC   C2B51394  15.107  24.389   6.411 -0.0186 -0.1048 -0.1514
 4239POPC   C3B51395  14.990  24.103   6.013 -0.0436  0.1141  0.0421
 4239POPC   C4B51396  14.874  23.969   5.614  0.2641 -0.0856  0.0514
 4240POPC   NC351397  18.498  23.855   8.564 -0.2858 -0.1283 -0.0285
 4240POPC   PO451398  18.597  23.550   8.350  0.0386  0.0507 -0.0286
 4240POPC   GL151399  18.933  23.721   8.108  0.1342  0.2094  0.3311
 4240POPC   GL251400  18.744  23.888   7.923 -0.0339 -0.1840 -0.1297
 4240POPC   C1A51401  19.181  23.662   7.691  0.1107 -0.3619  0.0222
 4240POPC   D2A51402  19.069  23.529   7.282 -0.2816  0.0183  0.1090
 4240POPC   C3A51403  19.360  23.217   7.070  0.1423  0.1805  0.2067
 4240POPC   C4A51404  19.539  22.805   6.975  0.2594  0.0801  0.2069
 4240POPC   C1B51405  18.863  24.003   7.500 -0.0815  0.1403 -0.1736
 4240POPC   C2B51406  19.210  23.962   7.201 -0.2021  0.0763 -0.0771
 4240POPC   C3B51407  19.222  23.702   6.803 -0.0282  0.3412 -0.0272
 4240POPC   C4B51408  19.206  23.816   6.350  0.1407 -0.1652 -0.2852
 4241POPC   NC351409  14.011  11.354   7.474  0.0619 -0.1109  0.3791
 4241POPC   PO451410  13.718  11.126   7.313  0.0922  0.1380 -0.4635
 4241POPC   GL151411  13.882  11.065   6.938 -0.1622  0.1818  0.0004
 4241POPC   GL251412  14.062  11.375   6.928 -0.1368  0.2708 -0.2248
 4241POPC   C1A51413  13.802  11.000   6.528  0.0815  0.6430  0.1616
 4241POPC   D2A51414  13.742  10.927   6.102 -0.0728 -0.0207 -0.1663
 4241POPC   C3A51415  13.750  10.876   5.615  0.1424  0.0417 -0.0352
 4241POPC   C4A51416  13.780  10.819   5.157  0.2767  0.4697 -0.0925
 4241POPC   C1B51417  14.221  11.461   6.507  0.1176 -0.1422  0.1173
 4241POPC   C2B51418  14.111  11.466   6.044 -0.1216 -0.1834  0.0085
 4241POPC   C3B51419  13.801  11.349   5.754  0.2082 -0.0475  0.0384
 4241POPC   C4B51420  13.654  11.378   5.364  0.1513  0.1257  0.2275
 4242POPC   NC351421   6.682  14.626   8.283 -0.2034 -0.1820 -0.1511
 4242POPC   PO451422   6.885  14.658   7.962 -0.2148  0.1030  0.0524
 4242POPC   GL151423   6.924  14.837   7.640 -0.0334  0.3714 -0.2776
 4242POPC   GL251424   6.751  15.025   7.579  0.0550  0.0164  0.0387
 4242POPC   C1A51425   7.198  14.863   7.290 -0.0692  0.2299 -0.0834
 4242POPC   D2A51426   7.445  15.182   7.192 -0.0481  0.1358  0.0157
 4242POPC   C3A51427   7.270  15.498   6.822  0.1168  0.2174 -0.3255
 4242POPC   C4A51428   6.955  15.587   6.528  0.1838  0.0643 -0.1575
 4242POPC   C1B51429   6.562  15.031   7.120  0.2964  0.0442  0.4730
 4242POPC   C2B51430   6.389  14.856   6.698  0.0935  0.1723 -0.1942
 4242POPC   C3B51431   6.008  14.941   6.461 -0.0079 -0.0393 -0.0413
 4242POPC   C4B51432   5.637  15.222   6.535 -0.1366  0.0011 -0.3326
 4243POPC   NC351433  28.535   2.579   7.415 -0.0250  0.0405 -0.1552
 4243POPC   PO451434  28.186   2.399   7.281 -0.2651  0.5702 -0.0768
 4243POPC   GL151435  28.284   2.540   6.965 -0.1785 -0.1275  0.1490
 4243POPC   GL251436  28.422   2.850   7.025  0.0029 -0.0084  0.0025
 4243POPC   C1A51437  28.350   2.364   6.535  0.0177 -0.1218 -0.0903
 4243POPC   D2A51438  28.380   2.554   6.134  0.1459  0.0098  0.1673
 4243POPC   C3A51439  28.806   2.510   5.975 -0.1026 -0.0555 -0.1019
 4243POPC   C4A51440  29.305   2.412   5.888  0.0969  0.1739 -0.4291
 4243POPC   C1B51441  28.205   2.881   6.614 -0.0040 -0.0555 -0.1768
 4243POPC   C2B51442  27.944   2.940   6.229  0.1448 -0.0760 -0.1311
 4243POPC   C3B51443  27.499   2.991   6.129  0.1238 -0.0449 -0.0028
 4243POPC   C4B51444  27.150   2.845   5.828 -0.1595  0.0101  0.1736
 4244POPC   NC351445  23.441   3.252   7.811  0.0023  0.1647  0.2359
 4244POPC   PO451446  23.676   2.961   7.731  0.0671 -0.1329  0.3231
 4244POPC   GL151447  23.748   2.913   7.372 -0.2193 -0.1790  0.3060
 4244POPC   GL251448  23.549   2.656   7.376 -0.2176  0.0573  0.1735
 4244POPC   C1A51449  24.063   2.681   7.092  0.0349 -0.2913 -0.1340
 4244POPC   D2A51450  24.081   2.702   6.618 -0.0185 -0.4813  0.1395
 4244POPC   C3A51451  24.361   2.412   6.367  0.0170  0.1813 -0.0370
 4244POPC   C4A51452  24.606   2.516   5.975 -0.1365 -0.1221 -0.0846
 4244POPC   C1B51453  23.398   2.341   7.070 -0.0343  0.0120  0.2428
 4244POPC   C2B51454  23.276   2.396   6.605  0.0735 -0.1293 -0.0727
 4244POPC   C3B51455  23.241   2.245   6.151  0.1542 -0.1371  0.3804
 4244POPC   C4B51456  23.312   2.282   5.669 -0.3616  0.1223 -0.2048
 4245POPC   NC351457  25.655  11.616   8.060  0.1115 -0.0187 -0.2416
 4245POPC   PO451458  25.487  11.900   7.868  0.0626 -0.1897 -0.0851
 4245POPC   GL151459  25.310  11.974   7.552 -0.3619 -0.1172 -0.1903
 4245POPC   GL251460  25.557  12.012   7.392  0.0896  0.2446  0.0446
 4245POPC   C1A51461  25.147  12.411   7.353 -0.0736  0.1346  0.0355
 4245POPC   D2A51462  24.928  12.347   6.943 -0.3101 -0.3738  0.2269
 4245POPC   C3A51463  24.871  12.361   6.416 -0.0457  0.1111  0.0764
 4245POPC   C4A51464  24.640  12.087   6.153 -0.1225  0.1143 -0.0249
 4245POPC   C1B51465  25.365  11.989   7.010 -0.0742  0.1268  0.2543
 4245POPC   C2B51466  25.502  11.928   6.592 -0.0832 -0.0217 -0.2357
 4245POPC   C3B51467  25.635  12.204   6.209 -0.0897  0.2571  0.0064
 4245POPC   C4B51468  25.555  12.230   5.741 -0.1019  0.2723  0.3046
 4246POPC   NC351469  19.093  21.319   8.403  0.0734 -0.1668  0.2766
 4246POPC   PO451470  19.232  21.329   8.003 -0.0370 -0.0486  0.4123
 4246POPC   GL151471  19.361  21.301   7.661 -0.0453  0.0583  0.3489
 4246POPC   GL251472  19.093  21.251   7.464  0.3414 -0.0626 -0.1349
 4246POPC   C1A51473  19.514  21.662   7.375  0.1002 -0.1180 -0.0229
 4246POPC   D2A51474  19.627  22.078   7.484  0.2443 -0.2370 -0.2383
 4246POPC   C3A51475  19.717  22.347   7.106  0.0974 -0.0137 -0.0802
 4246POPC   C4A51476  19.733  22.426   6.633  0.0293 -0.1737  0.1713
 4246POPC   C1B51477  19.028  21.304   7.022 -0.1092 -0.0651  0.2046
 4246POPC   C2B51478  19.229  21.232   6.568  0.2090 -0.1044  0.2603
 4246POPC   C3B51479  19.165  21.546   6.229 -0.0967 -0.1465 -0.0196
 4246POPC   C4B51480  19.283  21.934   5.966  0.0460  0.2060 -0.0126
 4247POPC   NC351481  18.345  24.569   8.064 -0.3744 -0.0094 -0.1660
 4247POPC   PO451482  18.601  24.430   8.315 -0.0840  0.4145  0.0739
 4247POPC   GL151483  18.770  24.379   7.983 -0.3111 -0.5001  0.2144
 4247POPC   GL251484  18.756  24.578   7.743  0.0147 -0.1448  0.0179
 4247POPC   C1A51485  19.148  24.219   7.834 -0.0443  0.0942 -0.4429
 4247POPC   D2A51486  19.499  24.090   7.637  0.0435  0.2955 -0.0551
 4247POPC   C3A51487  19.884  24.276   7.626 -0.1452  0.1613 -0.1081
 4247POPC   C4A51488  20.313  24.403   7.758 -0.1322  0.1117 -0.2068
 4247POPC   C1B51489  19.186  24.561   7.497  0.4331 -0.1380 -0.0890
 4247POPC   C2B51490  19.417  24.398   7.180  0.1960 -0.2407 -0.4207
 4247POPC   C3B51491  19.437  24.190   6.774 -0.3986  0.2172  0.1977
 4247POPC   C4B51492  19.660  23.863   6.543 -0.1741  0.1822 -0.3102
 4248POPC   NC351493   8.942  12.383   8.390 -0.0253  0.1011 -0.0986
 4248POPC   PO451494   9.230  12.466   8.569  0.0429 -0.0863 -0.0422
 4248POPC   GL151495   9.368  12.475   8.227  0.0296 -0.1574 -0.2546
 4248POPC   GL251496   9.212  12.438   7.936 -0.0808 -0.1793 -0.3919
 4248POPC   C1A51497   9.714  12.273   7.973 -0.0488 -0.2082 -0.1587
 4248POPC   D2A51498   9.741  11.812   7.943  0.2723  0.0954 -0.2720
 4248POPC   C3A51499   9.918  11.525   7.631  0.0211 -0.0694 -0.6160
 4248POPC   C4A51500  10.266  11.449   7.322 -0.0659  0.1783  0.2389
 4248POPC   C1B51501   9.110  12.331   7.493  0.0113 -0.0376  0.0164
 4248POPC   C2B51502   9.256  12.347   7.067 -0.1240 -0.0321  0.0207
 4248POPC   C3B51503   9.623  12.226   6.867 -0.4367  0.1653 -0.1669
 4248POPC   C4B51504   9.759  12.271   6.425 -0.1164 -0.5388 -0.1502
 4249POPC   NC351505  15.906  31.233   7.409 -0.1660  0.1892 -0.0590
 4249POPC   PO451506  15.772  30.908   7.309  0.1571 -0.0097 -0.0985
 4249POPC   GL151507  15.815  30.731   7.013  0.1472  0.0521  0.0987
 4249POPC   GL251508  15.982  30.523   6.887  0.2137  0.1933  0.0065
 4249POPC   C1A51509  15.839  30.975   6.637  0.1805  0.0175 -0.2410
 4249POPC   D2A51510  15.541  30.863   6.279  0.0583  0.3268 -0.0755
 4249POPC   C3A51511  15.622  30.896   5.813  0.0354  0.0648  0.1287
 4249POPC   C4A51512  15.808  30.656   5.478  0.2946  0.3315 -0.0227
 4249POPC   C1B51513  15.920  30.503   6.440 -0.2310 -0.0060  0.1478
 4249POPC   C2B51514  15.725  30.469   6.005 -0.1832 -0.1977  0.1397
 4249POPC   C3B51515  15.291  30.527   5.922 -0.0757 -0.3236 -0.0332
 4249POPC   C4B51516  14.979  30.719   6.189  0.0094  0.0793 -0.0843
 4250POPC   NC351517   2.165  21.285   7.570 -0.3398  0.0931  0.1497
 4250POPC   PO451518   1.902  21.030   7.646  0.0208  0.1129 -0.1337
 4250POPC   GL151519   2.025  20.942   7.281  0.0554  0.0124  0.1922
 4250POPC   GL251520   2.266  20.965   7.117  0.0807 -0.0799  0.1078
 4250POPC   C1A51521   1.925  21.275   6.974  0.1636 -0.2164  0.2498
 4250POPC   D2A51522   1.694  21.351   6.594 -0.1451  0.1696 -0.2865
 4250POPC   C3A51523   2.066  21.308   6.250  0.2395  0.0542 -0.2305
 4250POPC   C4A51524   2.332  21.264   5.909 -0.2352  0.1372  0.0478
 4250POPC   C1B51525   2.040  20.853   6.780  0.0890 -0.1512  0.1540
 4250POPC   C2B51526   1.980  20.805   6.284 -0.2142  0.0143 -0.1738
 4250POPC   C3B51527   1.863  21.019   5.899  0.0328  0.0007  0.1024
 4250POPC   C4B51528   2.035  21.058   5.523 -0.2816  0.1349  0.0022
 4251POPC   NC351529  17.669  27.516   7.299 -0.2392  0.2252 -0.0743
 4251POPC   PO451530  17.586  27.750   7.550  0.3013  0.0546  0.0994
 4251POPC   GL151531  17.354  27.906   7.265 -0.1613  0.0548 -0.2317
 4251POPC   GL251532  17.336  28.137   7.108 -0.1640 -0.0882  0.1152
 4251POPC   C1A51533  17.389  27.689   6.898  0.0037  0.0009 -0.0497
 4251POPC   D2A51534  17.517  27.570   6.486  0.1326  0.0369 -0.1385
 4251POPC   C3A51535  17.215  27.345   6.212  0.1457  0.1516 -0.0552
 4251POPC   C4A51536  16.824  27.414   6.032 -0.0058  0.0773  0.2301
 4251POPC   C1B51537  17.449  28.141   6.673 -0.3244 -0.2477 -0.1985
 4251POPC   C2B51538  17.607  27.997   6.292 -0.2532  0.0787  0.0006
 4251POPC   C3B51539  17.602  27.992   5.860  0.2313 -0.1082 -0.0726
 4251POPC   C4B51540  17.780  28.075   5.436  0.2323  0.0930 -0.1454
 4252POPC   NC351541  31.249  28.081   8.318  0.1134  0.0181  0.3127
 4252POPC   PO451542  31.032  27.763   8.227  0.0767 -0.2495  0.0429
 4252POPC   GL151543  30.979  27.969   7.816 -0.0806  0.2755 -0.2110
 4252POPC   GL251544  30.990  27.731   7.667 -0.0043 -0.1129 -0.2847
 4252POPC   C1A51545  31.109  28.296   7.505 -0.2957  0.1631  0.0098
 4252POPC   D2A51546  31.045  28.598   7.123 -0.1828 -0.0991 -0.1125
 4252POPC   C3A51547  30.804  28.564   6.777  0.0621 -0.1820 -0.0368
 4252POPC   C4A51548  30.810  28.445   6.324 -0.1624 -0.0106  0.2335
 4252POPC   C1B51549  31.259  27.864   7.304 -0.0432 -0.2028 -0.1516
 4252POPC   C2B51550  31.479  27.946   6.914 -0.2700  0.2318 -0.2168
 4252POPC   C3B51551  31.787  28.096   6.620 -0.1442 -0.2503 -0.0765
 4252POPC   C4B51552  31.681  28.266   6.185 -0.1902  0.3061  0.0334
 4253POPC   NC351553  15.043   7.177   8.629  0.2112 -0.2119  0.2713
 4253POPC   PO451554  15.189   7.325   8.273 -0.0135 -0.1492  0.0556
 4253POPC   GL151555  15.016   7.505   7.894  0.0600 -0.1844  0.1732
 4253POPC   GL251556  14.910   7.770   7.836 -0.2776  0.0253  0.1390
 4253POPC   C1A51557  15.051   7.378   7.439  0.4007 -0.0369  0.0556
 4253POPC   D2A51558  15.203   7.389   6.967  0.1339 -0.0080  0.0625
 4253POPC   C3A51559  14.910   7.121   6.722  0.2228 -0.1531 -0.4033
 4253POPC   C4A51560  14.927   6.664   6.635 -0.0822 -0.3491 -0.3187
 4253POPC   C1B51561  15.058   8.110   7.546  0.1322  0.1308  0.3749
 4253POPC   C2B51562  15.072   8.264   7.122  0.0636 -0.1532 -0.0014
 4253POPC   C3B51563  15.064   8.440   6.722  0.0688  0.2816  0.0915
 4253POPC   C4B51564  14.976   8.566   6.280  0.0223  0.1269 -0.2489
 4254POPC   NC351565  19.853  30.147   7.739 -0.2212  0.0163 -0.0320
 4254POPC   PO451566  19.551  30.421   7.800  0.1283  0.1770 -0.1393
 4254POPC   GL151567  19.473  30.397   7.472 -0.1346  0.1273 -0.1273
 4254POPC   GL251568  19.664  30.476   7.304 -0.2877 -0.4178 -0.2257
 4254POPC   C1A51569  19.419  30.165   7.058  0.0437 -0.2809 -0.2667
 4254POPC   D2A51570  19.123  29.955   6.739  0.0340  0.3112  0.0626
 4254POPC   C3A51571  18.841  29.926   6.400  0.1615 -0.0052 -0.0144
 4254POPC   C4A51572  18.529  30.217   6.189  0.1548  0.0141  0.0095
 4254POPC   C1B51573  19.730  30.464   6.844  0.1787 -0.1645  0.3493
 4254POPC   C2B51574  19.447  30.265   6.466 -0.0349 -0.1935  0.1587
 4254POPC   C3B51575  19.155  30.143   6.129 -0.1961 -0.0349  0.0254
 4254POPC   C4B51576  18.850  30.009   5.830 -0.1366  0.0092 -0.4390
 4255POPC   NC351577  29.592  19.303   8.155 -0.2062  0.0229  0.1540
 4255POPC   PO451578  29.292  19.388   7.929 -0.0721 -0.0772  0.0485
 4255POPC   GL151579  29.535  19.411   7.615  0.2834  0.0071  0.2803
 4255POPC   GL251580  29.308  19.363   7.423  0.2526 -0.1105 -0.0888
 4255POPC   C1A51581  29.782  19.266   7.252  0.3646  0.1336 -0.0550
 4255POPC   D2A51582  29.710  19.317   6.812  0.3390 -0.1009  0.1163
 4255POPC   C3A51583  29.760  19.266   6.346  0.0368 -0.1044 -0.3935
 4255POPC   C4A51584  30.138  19.396   6.182  0.0727  0.1661 -0.1974
 4255POPC   C1B51585  29.236  19.849   7.331 -0.0536  0.0446 -0.1825
 4255POPC   C2B51586  29.118  20.140   7.035  0.0383  0.0809 -0.1233
 4255POPC   C3B51587  28.845  20.223   6.675 -0.0221 -0.3667 -0.1657
 4255POPC   C4B51588  28.658  20.279   6.268  0.1503  0.0078 -0.2113
 4256POPC   NC351589  18.667   3.898   7.326 -0.1010  0.0725  0.1495
 4256POPC   PO451590  18.323   4.061   7.272 -0.1172  0.1954  0.0221
 4256POPC   GL151591  18.197   3.750   7.073 -0.0221 -0.0298  0.1135
 4256POPC   GL251592  18.220   3.501   7.179  0.1516  0.4534  0.2010
 4256POPC   C1A51593  18.333   3.668   6.604  0.0687 -0.0336  0.0470
 4256POPC   D2A51594  18.493   3.462   6.200  0.0564 -0.0349  0.1115
 4256POPC   C3A51595  18.185   3.470   5.847 -0.0322  0.0175 -0.0773
 4256POPC   C4A51596  17.877   3.226   5.545 -0.1541  0.3628  0.2224
 4256POPC   C1B51597  18.085   3.210   6.825 -0.0382 -0.2773  0.4387
 4256POPC   C2B51598  18.172   3.102   6.417 -0.0345  0.1524 -0.1155
 4256POPC   C3B51599  17.999   2.925   6.017 -0.0067 -0.0896 -0.0781
 4256POPC   C4B51600  17.614   2.925   5.830  0.1480  0.1005 -0.2616
 4257POPC   NC351601   3.738  31.403   7.916 -0.1834 -0.1112  0.2105
 4257POPC   PO451602   3.955  31.101   7.694 -0.1276 -0.2115  0.0380
 4257POPC   GL151603   4.152  31.264   7.395  0.1658 -0.5154 -0.0052
 4257POPC   GL251604   4.377  31.390   7.587  0.1786  0.1660 -0.0591
 4257POPC   C1A51605   4.300  31.403   7.023  0.2986  0.0835  0.2124
 4257POPC   D2A51606   4.378  31.491   6.566 -0.3184 -0.0135 -0.2995
 4257POPC   C3A51607   4.772  31.532   6.271  0.0684  0.3564 -0.2269
 4257POPC   C4A51608   4.789  31.499   5.834 -0.1105  0.1468  0.3775
 4257POPC   C1B51609   4.710  31.308   7.270  0.0487  0.1056 -0.0252
 4257POPC   C2B51610   4.787  31.227   6.805 -0.0636  0.0838 -0.4426
 4257POPC   C3B51611   5.076  31.151   6.426  0.1418 -0.1229  0.0889
 4257POPC   C4B51612   5.229  31.158   6.047 -0.0800 -0.0100 -0.2922
 4258POPC   NC351613  19.165  23.336   8.808 -0.2737 -0.0569  0.1575
 4258POPC   PO451614  19.247  23.339   8.390  0.2408  0.5174  0.3661
 4258POPC   GL151615  19.491  23.377   8.040 -0.5783  0.0513  0.0767
 4258POPC   GL251616  19.368  23.098   7.970  0.1196 -0.0360  0.3273
 4258POPC   C1A51617  19.803  23.689   7.810 -0.3871  0.1555 -0.0290
 4258POPC   D2A51618  20.171  23.827   7.523 -0.0159  0.1994  0.0047
 4258POPC   C3A51619  20.566  24.007   7.718  0.2438  0.3677  0.2131
 4258POPC   C4A51620  20.784  23.835   8.056  0.1012  0.1608 -0.0559
 4258POPC   C1B51621  19.449  23.284   7.571  0.0209 -0.0854 -0.1524
 4258POPC   C2B51622  19.557  23.648   7.308  0.1538 -0.0225  0.0727
 4258POPC   C3B51623  19.812  23.964   7.131 -0.1163 -0.2083  0.2875
 4258POPC   C4B51624  20.162  24.244   7.229 -0.2148 -0.0211 -0.0898
 4259POPC   NC351625   0.581  20.820   7.778  0.1493 -0.1832 -0.0489
 4259POPC   PO451626   0.687  20.456   7.872 -0.1929 -0.2248  0.0396
 4259POPC   GL151627   0.934  20.431   7.601  0.0056 -0.0667  0.1534
 4259POPC   GL251628   0.953  20.133   7.540 -0.1478  0.1907  0.0259
 4259POPC   C1A51629   0.619  20.226   7.225  0.1200 -0.4612 -0.1836
 4259POPC   D2A51630   0.468  19.881   6.921  0.1000  0.2511 -0.0001
 4259POPC   C3A51631   0.310  20.079   6.574 -0.3145 -0.5326  0.4121
 4259POPC   C4A51632   0.239  19.981   6.109  0.0249 -0.0614 -0.3771
 4259POPC   C1B51633   1.025  19.927   7.103 -0.0701  0.0765  0.0480
 4259POPC   C2B51634   0.991  19.851   6.652 -0.0283 -0.1644  0.0159
 4259POPC   C3B51635   1.053  19.755   6.184  0.2982  0.3013 -0.1390
 4259POPC   C4B51636   0.895  19.739   5.729 -0.2299  0.2113 -0.0875
 4260POPC   NC351637  27.518   1.400   7.649 -0.0063  0.0719 -0.2132
 4260POPC   PO451638  27.549   1.029   7.801  0.1152  0.4046  0.1046
 4260POPC   GL151639  27.385   0.995   7.413  0.0101 -0.0743  0.3383
 4260POPC   GL251640  27.654   1.006   7.255  0.2117  0.0413 -0.1311
 4260POPC   C1A51641  27.256   1.275   7.097  0.4559 -0.1219  0.0592
 4260POPC   D2A51642  27.026   1.609   6.841  0.3887  0.0050  0.0329
 4260POPC   C3A51643  27.164   1.813   6.439 -0.1938  0.1803  0.0763
 4260POPC   C4A51644  26.782   1.984   6.207  0.1049  0.0800 -0.3103
 4260POPC   C1B51645  27.617   0.949   6.815 -0.0366 -0.0496 -0.1295
 4260POPC   C2B51646  27.610   0.955   6.318  0.0056  0.3287  0.1134
 4260POPC   C3B51647  27.850   0.994   5.918 -0.0530  0.2532 -0.1793
 4260POPC   C4B51648  27.985   0.865   5.527  0.0579 -0.0322  0.1143
 4261POPC   NC351649  30.391  18.575   8.262 -0.0350  0.1737  0.0588
 4261POPC   PO451650  30.508  18.461   7.927 -0.0954  0.2083  0.0572
 4261POPC   GL151651  30.629  18.383   7.565 -0.1142  0.1609  0.0104
 4261POPC   GL251652  30.611  18.657   7.449  0.1915  0.3069 -0.0211
 4261POPC   C1A51653  30.397  18.125   7.181 -0.4372  0.1701  0.2241
 4261POPC   D2A51654  30.303  17.835   6.942 -0.1601  0.0566 -0.4660
 4261POPC   C3A51655  30.262  17.818   6.520  0.0377  0.0231 -0.2486
 4261POPC   C4A51656  30.515  17.878   6.116  0.0840  0.0114  0.0383
 4261POPC   C1B51657  30.398  18.715   7.055 -0.0157  0.1681 -0.0421
 4261POPC   C2B51658  30.634  18.935   6.784 -0.1511  0.0350 -0.0609
 4261POPC   C3B51659  30.555  19.114   6.368 -0.1808 -0.3291 -0.2290
 4261POPC   C4B51660  30.460  19.068   5.907 -0.4163 -0.2257 -0.0592
 4262POPC   NC351661   8.034  24.916   7.390 -0.1653 -0.0588 -0.1400
 4262POPC   PO451662   8.257  25.046   7.688 -0.2021  0.0010 -0.1020
 4262POPC   GL151663   8.480  25.032   7.249 -0.1064 -0.3613  0.0075
 4262POPC   GL251664   8.622  25.361   7.148 -0.0625  0.2434 -0.1004
 4262POPC   C1A51665   8.603  24.974   6.835 -0.1268 -0.0985  0.1733
 4262POPC   D2A51666   8.689  24.626   6.484 -0.0890 -0.0710  0.2107
 4262POPC   C3A51667   8.422  24.695   6.122 -0.1272 -0.0792  0.0833
 4262POPC   C4A51668   8.469  24.828   5.716 -0.0002 -0.0014 -0.1078
 4262POPC   C1B51669   8.263  25.335   6.849 -0.0811  0.2317  0.2021
 4262POPC   C2B51670   8.198  25.611   6.477  0.0271  0.0605 -0.4906
 4262POPC   C3B51671   8.366  25.637   6.089 -0.1095 -0.1625 -0.0067
 4262POPC   C4B51672   8.684  25.403   5.780 -0.1638 -0.3395 -0.0429
 4263POPC   NC351673  29.364  12.434   7.613  0.2010 -0.0124  0.2446
 4263POPC   PO451674  29.613  12.736   7.779  0.2391 -0.4864  0.1252
 4263POPC   GL151675  29.773  12.670   7.396  0.1710  0.0356 -0.0569
 4263POPC   GL251676  30.045  12.548   7.364  0.1315 -0.0322 -0.0471
 4263POPC   C1A51677  29.728  12.796   6.934 -0.0783 -0.3619 -0.1534
 4263POPC   D2A51678  29.420  12.924   6.702  0.0265 -0.1032 -0.1623
 4263POPC   C3A51679  29.232  12.853   6.320  0.2060  0.1535 -0.2354
 4263POPC   C4A51680  29.257  12.980   5.910  0.1699  0.1265  0.1599
 4263POPC   C1B51681  30.165  12.521   6.902 -0.1526  0.3248  0.1294
 4263POPC   C2B51682  30.195  12.945   6.587 -0.1921  0.0916  0.0624
 4263POPC   C3B51683  30.369  13.056   6.142 -0.1247 -0.2888  0.1499
 4263POPC   C4B51684  30.356  13.303   5.732 -0.2449 -0.2704 -0.1222
 4264POPC   NC351685  23.714  20.185   7.526  0.2026  0.0619  0.2260
 4264POPC   PO451686  23.949  19.921   7.409  0.1545  0.0692 -0.1579
 4264POPC   GL151687  23.819  19.753   7.047  0.2177 -0.2092  0.2441
 4264POPC   GL251688  24.117  19.792   6.986  0.0866 -0.0799  0.2183
 4264POPC   C1A51689  23.914  19.558   6.626 -0.0899 -0.0179 -0.2173
 4264POPC   D2A51690  24.132  19.407   6.228  0.3170  0.3340 -0.4046
 4264POPC   C3A51691  24.528  19.364   6.041 -0.0351  0.1450 -0.1973
 4264POPC   C4A51692  24.957  19.496   5.940  0.2110  0.1404  0.1641
 4264POPC   C1B51693  24.365  19.836   6.616 -0.0819  0.0488  0.0779
 4264POPC   C2B51694  24.633  19.921   6.177  0.1031  0.1569  0.4504
 4264POPC   C3B51695  24.583  19.904   5.713  0.0220 -0.1992 -0.0047
 4264POPC   C4B51696  24.676  19.855   5.262 -0.1353 -0.1026  0.0245
 4265POPC   NC351697  21.197  14.929   6.961  0.2055 -0.0770  0.1491
 4265POPC   PO451698  20.802  14.825   7.137 -0.4455 -0.0387 -0.1665
 4265POPC   GL151699  20.617  14.917   6.769 -0.2807  0.0727  0.3781
 4265POPC   GL251700  20.812  15.025   6.549  0.0015 -0.1899 -0.2811
 4265POPC   C1A51701  20.394  14.824   6.380  0.1237  0.1089 -0.0142
 4265POPC   D2A51702  20.410  14.936   5.907 -0.2740  0.0080  0.0876
 4265POPC   C3A51703  20.202  15.037   5.493 -0.1265 -0.4184 -0.0163
 4265POPC   C4A51704  19.861  15.212   5.232 -0.1237 -0.2357 -0.0920
 4265POPC   C1B51705  20.857  15.213   6.143 -0.0722  0.0950 -0.3425
 4265POPC   C2B51706  20.763  15.200   5.683 -0.0323 -0.0953 -0.0898
 4265POPC   C3B51707  20.740  15.032   5.228  0.1777  0.0349  0.0009
 4265POPC   C4B51708  21.088  15.072   4.990  0.1421  0.0056 -0.1635
 4266POPC   NC351709   6.483   5.823   8.132 -0.0025 -0.0921 -0.0028
 4266POPC   PO451710   6.299   5.759   7.797 -0.0285 -0.0464  0.4170
 4266POPC   GL151711   6.037   5.732   7.536  0.2553 -0.2978  0.1079
 4266POPC   GL251712   6.173   5.574   7.304 -0.0253  0.0515 -0.1441
 4266POPC   C1A51713   5.943   5.994   7.135 -0.2877  0.2369  0.0595
 4266POPC   D2A51714   6.019   6.105   6.681  0.4091 -0.2624  0.0762
 4266POPC   C3A51715   5.834   6.209   6.264 -0.1736  0.3106  0.0372
 4266POPC   C4A51716   5.937   5.998   5.870 -0.3413  0.2437 -0.0100
 4266POPC   C1B51717   6.176   5.673   6.813 -0.0184 -0.1241 -0.1964
 4266POPC   C2B51718   6.350   5.837   6.442 -0.1686  0.2257 -0.1721
 4266POPC   C3B51719   6.298   6.181   6.184 -0.3102 -0.0258 -0.2475
 4266POPC   C4B51720   6.356   6.501   5.904  0.0630 -0.1087  0.0602
 4267POPC   NC351721   6.477  12.006   7.239  0.1277 -0.3233  0.4270
 4267POPC   PO451722   6.306  12.274   6.998 -0.1308  0.0435 -0.1834
 4267POPC   GL151723   6.446  12.437   6.723 -0.0824 -0.2303  0.1302
 4267POPC   GL251724   6.622  12.158   6.627 -0.0133 -0.0392 -0.0760
 4267POPC   C1A51725   6.375  12.481   6.274 -0.0716  0.1488  0.1015
 4267POPC   D2A51726   6.605  12.415   5.895 -0.0148  0.1391 -0.0419
 4267POPC   C3A51727   6.360  12.415   5.494  0.3948 -0.1046 -0.0193
 4267POPC   C4A51728   6.186  12.078   5.228 -0.0130  0.0579  0.2018
 4267POPC   C1B51729   6.572  11.953   6.231 -0.1359 -0.0278  0.1031
 4267POPC   C2B51730   6.287  11.769   5.936 -0.1650  0.1897 -0.3990
 4267POPC   C3B51731   6.159  11.617   5.501  0.1545  0.0767  0.0388
 4267POPC   C4B51732   6.136  11.555   5.057 -0.2974 -0.3389 -0.1200
 4268POPC   NC351733  28.122  12.397   8.072 -0.0020 -0.0527  0.1167
 4268POPC   PO451734  27.817  12.416   7.818  0.1255  0.2989  0.1812
 4268POPC   GL151735  27.882  12.400   7.369  0.2274  0.3203  0.2157
 4268POPC   GL251736  27.620  12.353   7.135  0.3618 -0.0017  0.0209
 4268POPC   C1A51737  28.290  12.260   7.147 -0.3489  0.0493  0.1679
 4268POPC   D2A51738  28.623  12.136   6.913 -0.0975  0.0978  0.1325
 4268POPC   C3A51739  28.488  11.902   6.514  0.0002 -0.0089  0.4844
 4268POPC   C4A51740  28.397  11.586   6.149  0.4273  0.0145  0.1047
 4268POPC   C1B51741  27.943  12.323   6.857 -0.0538  0.0423  0.0714
 4268POPC   C2B51742  28.287  12.351   6.511 -0.1861  0.0025  0.1416
 4268POPC   C3B51743  28.286  12.388   6.063 -0.0720  0.2735  0.1008
 4268POPC   C4B51744  28.361  12.625   5.651  0.0617  0.0817  0.0964
 4269POPC   NC351745  22.456  25.824   7.365  0.0640 -0.1290  0.1064
 4269POPC   PO451746  22.111  25.844   7.560 -0.1156  0.1440 -0.1150
 4269POPC   GL151747  22.047  25.632   7.160 -0.0196 -0.1159 -0.1934
 4269POPC   GL251748  22.205  25.381   7.107  0.3191 -0.1666  0.2632
 4269POPC   C1A51749  21.759  25.889   6.835 -0.2863  0.1741 -0.3184
 4269POPC   D2A51750  21.549  25.953   6.492  0.1858 -0.4180  0.0495
 4269POPC   C3A51751  21.783  26.121   6.087  0.2871 -0.2757  0.1774
 4269POPC   C4A51752  22.093  26.080   5.760  0.1842 -0.0750  0.1849
 4269POPC   C1B51753  22.088  25.175   6.677 -0.1288 -0.0255 -0.2808
 4269POPC   C2B51754  21.826  25.050   6.326 -0.2015  0.0760 -0.1497
 4269POPC   C3B51755  21.814  25.080   5.865 -0.1948  0.3051  0.1698
 4269POPC   C4B51756  21.650  24.849   5.494 -0.0549 -0.3552 -0.2155
 4270POPC   NC351757  22.549  27.531   7.741 -0.0529 -0.0205  0.0664
 4270POPC   PO451758  22.534  27.207   7.852 -0.0677 -0.4455  0.0962
 4270POPC   GL151759  22.602  26.997   7.526 -0.2982  0.0821  0.0621
 4270POPC   GL251760  22.329  26.912   7.411 -0.1855 -0.1181  0.2317
 4270POPC   C1A51761  22.746  27.052   7.109 -0.1209 -0.0701 -0.1701
 4270POPC   D2A51762  22.874  27.197   6.707 -0.1433 -0.0366  0.0769
 4270POPC   C3A51763  22.604  27.503   6.469 -0.0651 -0.1936  0.0401
 4270POPC   C4A51764  22.120  27.616   6.447 -0.0960  0.0401 -0.0959
 4270POPC   C1B51765  22.241  26.633   7.060  0.0053  0.1821  0.0912
 4270POPC   C2B51766  22.344  26.640   6.587 -0.1968 -0.3035 -0.2700
 4270POPC   C3B51767  22.537  26.920   6.262 -0.3074 -0.0239 -0.0838
 4270POPC   C4B51768  22.919  27.158   6.142 -0.1941 -0.2506  0.1630
 4271POPC   NC351769  12.978  21.790   7.667 -0.1400  0.1824 -0.0469
 4271POPC   PO451770  13.288  21.572   7.527  0.2384  0.2563 -0.2767
 4271POPC   GL151771  13.196  21.363   7.293 -0.3794 -0.0432  0.0375
 4271POPC   GL251772  12.961  21.160   7.232 -0.2173  0.0481 -0.2551
 4271POPC   C1A51773  13.395  21.069   6.973 -0.0460  0.0069 -0.3255
 4271POPC   D2A51774  13.351  21.032   6.530  0.2402 -0.1106 -0.2111
 4271POPC   C3A51775  13.527  21.354   6.183 -0.1548 -0.1718 -0.1476
 4271POPC   C4A51776  13.507  21.481   5.741  0.1350 -0.0609 -0.4632
 4271POPC   C1B51777  13.071  21.424   6.778  0.0028  0.0876  0.3046
 4271POPC   C2B51778  12.994  21.514   6.331  0.1386  0.3388  0.0712
 4271POPC   C3B51779  13.011  21.270   5.953 -0.0453 -0.0140  0.0095
 4271POPC   C4B51780  13.052  20.916   5.633  0.0850  0.0283 -0.0346
 4272POPC   NC351781   1.100  28.636   8.307  0.0143  0.1884  0.1217
 4272POPC   PO451782   0.751  28.790   8.301 -0.0093 -0.0905  0.0422
 4272POPC   GL151783   0.943  28.824   7.906  0.2716  0.4387  0.0794
 4272POPC   GL251784   1.060  28.605   7.809  0.4055 -0.0350  0.1298
 4272POPC   C1A51785   0.630  28.752   7.591 -0.0420  0.2363 -0.0135
 4272POPC   D2A51786   0.380  28.692   7.143 -0.1340  0.0638 -0.0522
 4272POPC   C3A51787   0.247  28.218   7.113 -0.1923 -0.0544 -0.0519
 4272POPC   C4A51788   0.047  27.910   7.406  0.1388 -0.0590  0.0367
 4272POPC   C1B51789   0.885  28.396   7.399  0.3008 -0.2478  0.0731
 4272POPC   C2B51790   0.720  28.207   7.008  0.0253 -0.1233 -0.1206
 4272POPC   C3B51791   0.466  28.495   6.726  0.0184  0.4066  0.3350
 4272POPC   C4B51792   0.375  28.647   6.251 -0.3219  0.0153 -0.2647
 4273POPC   NC351793  23.403  24.250   7.735 -0.2194  0.0983  0.1623
 4273POPC   PO451794  23.476  24.587   7.543  0.2968  0.0570 -0.4071
 4273POPC   GL151795  23.575  24.641   7.147  0.0832  0.0372 -0.4826
 4273POPC   GL251796  23.842  24.718   7.158  0.0434  0.3156 -0.5565
 4273POPC   C1A51797  23.310  24.686   6.742 -0.0405  0.1507  0.0089
 4273POPC   D2A51798  22.962  24.957   6.670  0.3074  0.2517 -0.1534
 4273POPC   C3A51799  23.054  25.369   6.475 -0.2275  0.0329  0.2844
 4273POPC   C4A51800  22.989  25.650   6.120  0.1927 -0.2572  0.0229
 4273POPC   C1B51801  24.220  24.735   6.835  0.2487  0.1108 -0.1693
 4273POPC   C2B51802  24.356  24.746   6.427  0.2061  0.1015  0.2176
 4273POPC   C3B51803  24.376  24.562   5.998 -0.3610  0.0047  0.4194
 4273POPC   C4B51804  24.688  24.406   5.697 -0.0283 -0.0476  0.2900
 4274POPC   NC351805   1.890   7.854   7.886 -0.2299  0.0422  0.2202
 4274POPC   PO451806   2.020   8.210   7.876 -0.1217  0.1193 -0.2245
 4274POPC   GL151807   2.075   8.237   7.495  0.1743 -0.1193  0.3554
 4274POPC   GL251808   2.062   7.921   7.377 -0.2522 -0.2204 -0.0249
 4274POPC   C1A51809   2.465   8.173   7.257 -0.1831 -0.1298  0.1809
 4274POPC   D2A51810   2.834   8.319   7.048 -0.2911 -0.1871  0.1100
 4274POPC   C3A51811   2.802   8.160   6.571 -0.2517  0.1442 -0.1232
 4274POPC   C4A51812   2.621   8.065   6.129 -0.1218 -0.3435  0.3033
 4274POPC   C1B51813   1.986   7.747   7.013  0.0464 -0.1398  0.0681
 4274POPC   C2B51814   2.086   7.702   6.536 -0.4791  0.0975 -0.1141
 4274POPC   C3B51815   2.174   7.725   6.054 -0.1503 -0.1060  0.1259
 4274POPC   C4B51816   2.359   7.893   5.716 -0.2207 -0.0292 -0.2413
 4275POPC   NC351817  14.552   1.275   7.935  0.2575  0.3330  0.3033
 4275POPC   PO451818  14.578   0.873   8.006 -0.0819  0.0274 -0.1163
 4275POPC   GL151819  14.449   0.839   7.624  0.2108 -0.2105 -0.1947
 4275POPC   GL251820  14.374   1.026   7.480  0.1425 -0.1869  0.0113
 4275POPC   C1A51821  14.727   0.736   7.261  0.2985  0.3222 -0.0595
 4275POPC   D2A51822  14.669   0.410   7.005 -0.0820  0.1121  0.0450
 4275POPC   C3A51823  14.784   0.377   6.563  0.0045 -0.2538  0.0899
 4275POPC   C4A51824  14.697   0.220   6.143 -0.1024 -0.3983  0.2477
 4275POPC   C1B51825  14.363   1.183   7.037 -0.2012 -0.1802  0.0909
 4275POPC   C2B51826  14.437   1.307   6.599 -0.1541  0.0371  0.1398
 4275POPC   C3B51827  14.164   1.500   6.252 -0.0799  0.0091  0.2931
 4275POPC   C4B51828  14.235   1.740   5.876 -0.3333 -0.1122 -0.2735
 4276POPC   NC351829  23.017  22.843   7.938 -0.3192 -0.2224  0.1607
 4276POPC   PO451830  22.776  22.882   7.656 -0.1757  0.1163  0.0039
 4276POPC   GL151831  22.644  22.914   7.233  0.1820  0.0565  0.1256
 4276POPC   GL251832  22.436  22.785   6.967  0.1298 -0.0792  0.3946
 4276POPC   C1A51833  22.870  22.985   6.840  0.1039 -0.1869  0.3706
 4276POPC   D2A51834  22.890  22.898   6.404 -0.2229  0.0424 -0.3099
 4276POPC   C3A51835  22.495  23.067   6.147  0.0468  0.0153 -0.2322
 4276POPC   C4A51836  22.208  23.268   5.838  0.2261  0.0225 -0.2638
 4276POPC   C1B51837  22.325  22.922   6.553  0.1623 -0.0906  0.1378
 4276POPC   C2B51838  21.962  22.902   6.248 -0.0844 -0.0738  0.2693
 4276POPC   C3B51839  21.592  22.940   5.960 -0.0112  0.0055 -0.1203
 4276POPC   C4B51840  21.292  22.718   5.707  0.1133  0.2611 -0.3157
 4277POPC   NC351841  28.059  17.486   8.044 -0.2009 -0.0220  0.3244
 4277POPC   PO451842  27.844  17.622   7.708  0.0438  0.2663  0.3679
 4277POPC   GL151843  27.780  17.532   7.304  0.3336 -0.5533  0.1194
 4277POPC   GL251844  27.627  17.784   7.130 -0.2082  0.0555  0.1008
 4277POPC   C1A51845  27.907  17.446   6.871 -0.0594  0.4646  0.5370
 4277POPC   D2A51846  27.833  17.378   6.461 -0.0889  0.0715  0.0135
 4277POPC   C3A51847  27.702  17.698   6.138 -0.0985 -0.1841  0.3786
 4277POPC   C4A51848  27.271  17.852   6.027 -0.2790 -0.0312 -0.0899
 4277POPC   C1B51849  27.581  17.782   6.682 -0.2830 -0.0841 -0.0116
 4277POPC   C2B51850  27.489  18.122   6.335 -0.1111  0.5579  0.3270
 4277POPC   C3B51851  27.725  18.262   5.991 -0.2894  0.0364  0.2491
 4277POPC   C4B51852  27.883  18.413   5.609 -0.1374 -0.1493  0.0838
 4278POPC   NC351853  12.122  21.425   7.504 -0.1162 -0.1876  0.0978
 4278POPC   PO451854  11.836  21.179   7.595 -0.2267 -0.3029 -0.3755
 4278POPC   GL151855  11.951  21.103   7.215  0.1628  0.0397 -0.0659
 4278POPC   GL251856  11.864  20.877   7.189 -0.0258  0.0953  0.2246
 4278POPC   C1A51857  11.954  21.256   6.836  0.1183  0.1208  0.0742
 4278POPC   D2A51858  12.058  21.482   6.438  0.3225  0.1842  0.2486
 4278POPC   C3A51859  11.742  21.720   6.208  0.1650  0.2069 -0.2575
 4278POPC   C4A51860  11.774  22.037   5.870 -0.1391 -0.0429 -0.0328
 4278POPC   C1B51861  11.876  20.747   6.730 -0.1793 -0.3714  0.0047
 4278POPC   C2B51862  12.019  20.650   6.284 -0.0074  0.1660 -0.1587
 4278POPC   C3B51863  12.017  20.344   5.896  0.1765 -0.0208  0.0029
 4278POPC   C4B51864  12.076  20.294   5.483  0.1236  0.2217  0.1907
 4279POPC   NC351865  24.394  19.683   7.380  0.0952  0.1167  0.1982
 4279POPC   PO451866  24.421  19.337   7.555  0.0211  0.0308  0.1048
 4279POPC   GL151867  24.373  19.268   7.177  0.4571 -0.0808  0.1537
 4279POPC   GL251868  24.324  18.950   7.232  0.2073 -0.1080 -0.2606
 4279POPC   C1A51869  24.718  19.047   6.927 -0.1441 -0.2726  0.3966
 4279POPC   D2A51870  25.043  19.190   6.622 -0.2445  0.1719  0.3694
 4279POPC   C3A51871  25.028  19.053   6.178  0.4148  0.0380  0.1318
 4279POPC   C4A51872  25.050  19.084   5.689  0.2680  0.1688  0.0087
 4279POPC   C1B51873  24.385  18.704   6.876 -0.0778  0.1448 -0.3768
 4279POPC   C2B51874  24.504  18.431   6.536  0.0595  0.0250 -0.1244
 4279POPC   C3B51875  24.720  18.387   6.110 -0.0977  0.1602 -0.1612
 4279POPC   C4B51876  24.942  18.560   5.756 -0.0657 -0.0251  0.0471
 4280POPC   NC351877  26.619  31.052   7.844 -0.0038 -0.1111 -0.0039
 4280POPC   PO451878  26.898  31.222   7.581 -0.1288  0.0321  0.0372
 4280POPC   GL151879  27.252  31.127   7.394 -0.1125  0.1744  0.1477
 4280POPC   GL251880  27.078  31.074   7.137  0.0835 -0.3766  0.2336
 4280POPC   C1A51881  27.655  31.037   7.100  0.3797  0.3999  0.1390
 4280POPC   D2A51882  27.866  31.039   6.694  0.2555  0.1758 -0.2041
 4280POPC   C3A51883  27.865  31.339   6.369  0.4178  0.2443 -0.1366
 4280POPC   C4A51884  27.851  31.338   5.954  0.0494 -0.2943  0.0399
 4280POPC   C1B51885  26.914  31.185   6.696 -0.1590 -0.0096  0.0529
 4280POPC   C2B51886  26.843  31.195   6.224 -0.0497  0.0131  0.0061
 4280POPC   C3B51887  26.686  30.977   5.892 -0.1033 -0.0237 -0.0153
 4280POPC   C4B51888  26.728  30.665   5.552  0.1143  0.1589 -0.1164
 4281POPC   NC351889  19.829  17.698   7.588  0.1821  0.0152 -0.3046
 4281POPC   PO451890  19.769  18.076   7.548 -0.0298  0.0471  0.1935
 4281POPC   GL151891  19.731  18.040   7.231  0.1288  0.1609 -0.4522
 4281POPC   GL251892  19.749  17.741   7.090  0.2331  0.0159  0.0882
 4281POPC   C1A51893  19.998  18.108   6.868 -0.1942 -0.1098 -0.3763
 4281POPC   D2A51894  20.182  17.957   6.457  0.0021  0.1473 -0.2332
 4281POPC   C3A51895  20.126  18.103   6.030 -0.0625 -0.1999  0.0683
 4281POPC   C4A51896  20.242  18.403   5.707  0.0530 -0.1094 -0.0659
 4281POPC   C1B51897  19.661  17.760   6.663  0.0493  0.1093  0.1004
 4281POPC   C2B51898  19.742  17.879   6.228 -0.0706  0.2002  0.0172
 4281POPC   C3B51899  19.702  17.789   5.758 -0.1571 -0.0649  0.1056
 4281POPC   C4B51900  19.376  17.622   5.439  0.0955 -0.1941 -0.2003
 4282POPC   NC351901  20.868  21.605   8.198 -0.2457  0.2170 -0.0592
 4282POPC   PO451902  20.825  21.440   7.832  0.1555  0.0862  0.1332
 4282POPC   GL151903  20.823  21.601   7.535  0.1009 -0.0949 -0.0988
 4282POPC   GL251904  20.629  21.803   7.464 -0.0017 -0.0220 -0.0455
 4282POPC   C1A51905  20.696  21.407   7.090 -0.1875 -0.1351 -0.0590
 4282POPC   D2A51906  20.921  21.413   6.638  0.1333  0.0746 -0.1788
 4282POPC   C3A51907  21.124  21.577   6.274  0.1734  0.2965  0.1818
 4282POPC   C4A51908  21.373  21.630   5.893  0.3087 -0.2510 -0.2676
 4282POPC   C1B51909  20.416  21.821   7.017  0.1144 -0.2309 -0.1761
 4282POPC   C2B51910  20.343  21.887   6.552  0.1409  0.1641  0.2014
 4282POPC   C3B51911  20.087  21.665   6.231 -0.0935  0.1964 -0.0944
 4282POPC   C4B51912  19.664  21.545   6.156  0.0442  0.1277 -0.0055
 4283POPC   NC351913   3.536  22.655   8.188 -0.0313 -0.0396 -0.0883
 4283POPC   PO451914   3.268  22.928   8.114  0.3240  0.1265 -0.2688
 4283POPC   GL151915   3.486  23.090   7.950 -0.0270  0.2684 -0.1176
 4283POPC   GL251916   3.346  23.214   7.746 -0.1067 -0.1531 -0.2875
 4283POPC   C1A51917   3.871  22.976   7.726 -0.0825 -0.3325  0.0888
 4283POPC   D2A51918   4.019  22.672   7.410 -0.2145 -0.2010  0.3161
 4283POPC   C3A51919   4.462  22.809   7.469 -0.0265  0.0919  0.1034
 4283POPC   C4A51920   4.812  22.903   7.821  0.1583  0.1987  0.2936
 4283POPC   C1B51921   3.582  23.130   7.393 -0.2509  0.2072 -0.1584
 4283POPC   C2B51922   3.982  23.159   7.261 -0.2273  0.3774 -0.0569
 4283POPC   C3B51923   4.398  23.285   7.114 -0.2236 -0.2314 -0.0284
 4283POPC   C4B51924   4.836  23.205   7.059 -0.0274  0.2556 -0.0319
 4284POPC   NC351925  26.841  29.899   7.863  0.0568  0.4472 -0.3183
 4284POPC   PO451926  26.991  30.236   7.660  0.0445  0.1565  0.2862
 4284POPC   GL151927  26.840  30.145   7.365 -0.0956 -0.0439  0.1585
 4284POPC   GL251928  26.616  30.307   7.211 -0.1145 -0.5137 -0.1028
 4284POPC   C1A51929  27.065  29.972   6.971  0.0159 -0.0283 -0.1204
 4284POPC   D2A51930  27.430  30.020   6.629 -0.2177  0.1789 -0.3712
 4284POPC   C3A51931  27.262  30.160   6.201 -0.1288 -0.2785 -0.2470
 4284POPC   C4A51932  27.292  29.890   5.790  0.0563 -0.0074 -0.2044
 4284POPC   C1B51933  26.571  30.286   6.741 -0.1280 -0.1969  0.2622
 4284POPC   C2B51934  26.728  30.036   6.381  0.1786 -0.6328  0.0473
 4284POPC   C3B51935  26.712  29.916   5.928 -0.2969  0.1117  0.0759
 4284POPC   C4B51936  26.661  29.997   5.475 -0.3152 -0.2512  0.3115
 4285POPC   NC351937  23.251  25.760   7.281 -0.2134  0.1603 -0.1799
 4285POPC   PO451938  22.918  26.002   7.330 -0.3031 -0.0380  0.2528
 4285POPC   GL151939  22.843  25.915   7.006  0.0638  0.3998 -0.3155
 4285POPC   GL251940  22.830  25.606   7.035 -0.0220  0.2383  0.3041
 4285POPC   C1A51941  22.733  26.253   6.709  0.1211  0.1133 -0.0797
 4285POPC   D2A51942  22.896  26.126   6.304  0.0361  0.2278 -0.1118
 4285POPC   C3A51943  23.033  26.151   5.866  0.0739 -0.1054 -0.2712
 4285POPC   C4A51944  23.309  26.033   5.486  0.3042 -0.1686 -0.0980
 4285POPC   C1B51945  22.780  25.743   6.578  0.0981  0.3917 -0.2225
 4285POPC   C2B51946  22.472  25.777   6.257  0.0458  0.0431 -0.0920
 4285POPC   C3B51947  22.200  25.612   5.923 -0.4382  0.0776 -0.0822
 4285POPC   C4B51948  22.115  25.646   5.453  0.3264 -0.1803  0.2621
 4286POPC   NC351949  16.940  20.642   8.159  0.0145 -0.0351  0.2870
 4286POPC   PO451950  17.240  20.378   8.083 -0.0691  0.1832  0.2067
 4286POPC   GL151951  17.275  20.430   7.603  0.0776 -0.2553  0.0609
 4286POPC   GL251952  17.553  20.359   7.489  0.1805 -0.0116 -0.1605
 4286POPC   C1A51953  17.319  20.659   7.183 -0.1622 -0.2680  0.2094
 4286POPC   D2A51954  17.664  20.707   6.873 -0.1117 -0.2181  0.2644
 4286POPC   C3A51955  17.775  21.159   6.732 -0.4088  0.1795 -0.3831
 4286POPC   C4A51956  17.528  21.462   6.507 -0.0019  0.0677 -0.0245
 4286POPC   C1B51957  17.282  20.128   7.226  0.0966 -0.0233 -0.3285
 4286POPC   C2B51958  17.379  19.828   6.921 -0.0670  0.1205 -0.1295
 4286POPC   C3B51959  17.677  19.802   6.562  0.0318 -0.3820  0.2142
 4286POPC   C4B51960  17.942  19.782   6.207  0.4444 -0.1375 -0.1598
 4287POPC   NC351961  30.370   2.191   8.198 -0.0155 -0.0458  0.0536
 4287POPC   PO451962  30.314   2.273   7.799  0.4259 -0.2321 -0.1955
 4287POPC   GL151963  30.143   2.292   7.419 -0.0211  0.3420  0.1122
 4287POPC   GL251964  30.153   2.576   7.294  0.2032 -0.5387 -0.0487
 4287POPC   C1A51965  29.926   2.073   7.104  0.2374  0.1008 -0.2338
 4287POPC   D2A51966  29.688   1.746   6.880  0.1068 -0.2975  0.0484
 4287POPC   C3A51967  29.675   1.319   6.761  0.2135 -0.2535  0.3988
 4287POPC   C4A51968  29.676   1.079   6.395 -0.0102  0.3505 -0.2787
 4287POPC   C1B51969  29.781   2.527   7.042  0.1855  0.2276 -0.0550
 4287POPC   C2B51970  29.571   2.618   6.652 -0.1706 -0.2055  0.4431
 4287POPC   C3B51971  29.598   2.903   6.311 -0.2216  0.4249 -0.1861
 4287POPC   C4B51972  29.543   3.119   5.862  0.0552  0.1903  0.0986
 4288POPC   NC351973  18.473  22.295   7.832  0.0487  0.2169 -0.0320
 4288POPC   PO451974  18.813  22.491   7.810  0.0033  0.0337  0.1858
 4288POPC   GL151975  19.006  22.663   7.600 -0.3896 -0.0076 -0.0762
 4288POPC   GL251976  18.924  22.959   7.581 -0.0474  0.3377  0.0559
 4288POPC   C1A51977  19.299  22.372   7.346  0.0242  0.0501 -0.2224
 4288POPC   D2A51978  19.385  22.018   7.040 -0.0867  0.2674 -0.1539
 4288POPC   C3A51979  19.165  21.711   6.741 -0.0127 -0.5578 -0.2969
 4288POPC   C4A51980  18.798  21.510   6.538  0.2510 -0.2697 -0.0668
 4288POPC   C1B51981  18.959  22.933   7.100  0.1622  0.0391  0.2279
 4288POPC   C2B51982  18.982  23.284   6.797 -0.2278  0.2412  0.1057
 4288POPC   C3B51983  18.915  23.300   6.347  0.1512  0.0483 -0.0967
 4288POPC   C4B51984  18.721  23.216   5.926 -0.0974  0.0487 -0.0460
 4289POPC   NC351985   4.890  15.161   8.001 -0.1216  0.0139  0.3282
 4289POPC   PO451986   5.101  15.471   7.822  0.0945  0.3206 -0.2617
 4289POPC   GL151987   5.050  15.523   7.459  0.0518  0.1968  0.0663
 4289POPC   GL251988   4.753  15.640   7.546 -0.1303 -0.2078 -0.1995
 4289POPC   C1A51989   4.796  15.150   7.270 -0.0081  0.2124  0.1356
 4289POPC   D2A51990   4.538  14.808   7.053 -0.0093  0.0900  0.0487
 4289POPC   C3A51991   4.381  14.845   6.613 -0.0543 -0.2404 -0.0954
 4289POPC   C4A51992   4.029  14.935   6.380  0.0406  0.2261  0.1376
 4289POPC   C1B51993   4.514  15.538   7.232  0.2920 -0.2453  0.0728
 4289POPC   C2B51994   4.520  15.399   6.730 -0.3758 -0.2967  0.0752
 4289POPC   C3B51995   4.652  15.236   6.305 -0.0609  0.1011 -0.0450
 4289POPC   C4B51996   4.952  15.289   5.946 -0.1267  0.1479 -0.0297
 4290POPC   NC351997   7.094  25.073   7.666  0.1952  0.0703 -0.0867
 4290POPC   PO451998   6.901  25.423   7.620  0.0692  0.1805 -0.1881
 4290POPC   GL151999   6.791  25.654   7.351 -0.3510 -0.3134  0.4592
 4290POPC   GL252000   6.973  25.761   7.244  0.0437 -0.0740 -0.1010
 4290POPC   C1A52001   6.452  25.607   6.987  0.0127 -0.2280  0.1052
 4290POPC   D2A52002   6.237  25.822   6.665 -0.0957  0.1803  0.1957
 4290POPC   C3A52003   6.138  26.038   6.256 -0.0333  0.0405  0.1088
 4290POPC   C4A52004   6.229  25.867   5.826 -0.0876 -0.0400 -0.0456
 4290POPC   C1B52005   6.930  25.628   6.861 -0.2200  0.2382  0.0851
 4290POPC   C2B52006   6.943  25.345   6.487 -0.1586  0.1394 -0.2597
 4290POPC   C3B52007   6.881  25.257   6.080  0.0395  0.2490 -0.0045
 4290POPC   C4B52008   6.460  25.174   5.897 -0.0949  0.0501 -0.2090
 4291POPC   NC352009  12.612  15.591   7.980 -0.1178 -0.0291  0.0191
 4291POPC   PO452010  12.838  15.280   8.020  0.0148 -0.0997 -0.1270
 4291POPC   GL152011  12.961  15.288   7.677 -0.1187 -0.0369 -0.2057
 4291POPC   GL252012  12.939  15.067   7.570  0.1886  0.2284 -0.1171
 4291POPC   C1A52013  13.193  15.367   7.252 -0.1034 -0.3185 -0.1880
 4291POPC   D2A52014  13.149  15.445   6.841  0.3252  0.1423 -0.3064
 4291POPC   C3A52015  13.434  15.533   6.537  0.0382  0.1836 -0.1135
 4291POPC   C4A52016  13.819  15.505   6.390 -0.1187  0.2152 -0.0550
 4291POPC   C1B52017  12.665  14.922   7.241 -0.1176  0.2105 -0.2453
 4291POPC   C2B52018  12.672  14.720   6.803  0.1111 -0.3389 -0.4581
 4291POPC   C3B52019  12.722  14.583   6.437  0.1348  0.1183  0.1079
 4291POPC   C4B52020  12.911  14.467   6.027  0.2688  0.0259 -0.0632
 4292POPC   NC352021  31.212  14.741   7.706  0.5133  0.1681 -0.0913
 4292POPC   PO452022  31.111  14.523   7.989  0.1158  0.0833 -0.1637
 4292POPC   GL152023  30.957  14.322   7.644 -0.0015 -0.0282  0.2696
 4292POPC   GL252024  31.163  14.159   7.580 -0.1173  0.0497 -0.1445
 4292POPC   C1A52025  30.717  14.157   7.247 -0.0800 -0.2491  0.2733
 4292POPC   D2A52026  30.731  13.842   6.926  0.0879  0.0463 -0.1622
 4292POPC   C3A52027  30.551  13.891   6.502 -0.2329  0.0833  0.1136
 4292POPC   C4A52028  30.122  13.957   6.318 -0.0390 -0.4683  0.0063
 4292POPC   C1B52029  31.254  14.460   7.180  0.0488 -0.0121  0.0291
 4292POPC   C2B52030  31.233  14.600   6.718  0.0230 -0.2608 -0.1608
 4292POPC   C3B52031  31.385  14.344   6.358 -0.2044 -0.2758 -0.1042
 4292POPC   C4B52032  31.418  14.011   6.066 -0.1002 -0.0135 -0.1802
 4293POPC   NC352033   0.096  13.840   8.268  0.0073  0.1362  0.1856
 4293POPC   PO452034  -0.118  13.524   8.131  0.0043 -0.1391  0.2541
 4293POPC   GL152035  -0.282  13.646   7.817  0.0017  0.1634  0.4610
 4293POPC   GL252036  -0.572  13.666   7.667 -0.0161 -0.1976  0.0770
 4293POPC   C1A52037  -0.257  13.556   7.367  0.1825  0.1445  0.0336
 4293POPC   D2A52038  -0.380  13.477   6.908 -0.0858 -0.1759 -0.0670
 4293POPC   C3A52039  -0.135  13.272   6.570 -0.1678 -0.0280 -0.0475
 4293POPC   C4A52040   0.177  13.329   6.206  0.2228  0.4115 -0.0351
 4293POPC   C1B52041  -0.640  13.828   7.235  0.2407  0.1785  0.0504
 4293POPC   C2B52042  -0.638  14.109   6.881  0.0924 -0.2428  0.0496
 4293POPC   C3B52043  -0.840  14.278   6.466  0.0256 -0.3846  0.2186
 4293POPC   C4B52044  -0.845  14.745   6.379 -0.2681 -0.0671  0.1196
 4294POPC   NC352045   7.895  20.086   7.738  0.0262 -0.0609 -0.4271
 4294POPC   PO452046   7.943  20.435   7.571 -0.1062  0.1335  0.1006
 4294POPC   GL152047   8.111  20.285   7.277  0.3645  0.0122 -0.2039
 4294POPC   GL252048   7.860  20.217   7.073 -0.1148  0.0015 -0.1230
 4294POPC   C1A52049   8.534  20.378   7.135  0.1281 -0.0080 -0.2023
 4294POPC   D2A52050   8.800  20.171   6.775 -0.0133 -0.0901 -0.1951
 4294POPC   C3A52051   8.806  20.180   6.284 -0.1244  0.2996 -0.0881
 4294POPC   C4A52052   8.850  20.364   5.861  0.1936 -0.0077  0.3200
 4294POPC   C1B52053   7.548  20.614   6.881 -0.4351 -0.1741  0.0850
 4294POPC   C2B52054   7.208  20.906   6.734  0.2562  0.1951  0.0769
 4294POPC   C3B52055   7.276  21.231   6.386  0.2361  0.1516 -0.2290
 4294POPC   C4B52056   7.302  21.258   5.916  0.1097 -0.1588 -0.0252
 4295POPC   NC352057  12.975  12.282   7.977  0.2545  0.2138 -0.0127
 4295POPC   PO452058  12.935  12.045   7.646  0.0144 -0.5277 -0.2124
 4295POPC   GL152059  12.918  12.133   7.245 -0.0445  0.2167 -0.0784
 4295POPC   GL252060  12.608  12.179   7.214  0.0244  0.0098 -0.1240
 4295POPC   C1A52061  13.000  12.092   6.788  0.1241 -0.0189  0.2714
 4295POPC   D2A52062  12.787  11.969   6.355 -0.0469 -0.3013  0.1621
 4295POPC   C3A52063  12.576  11.975   5.933  0.2116  0.2412  0.1598
 4295POPC   C4A52064  12.648  12.382   5.672 -0.1641  0.0156  0.0248
 4295POPC   C1B52065  12.445  12.149   6.780 -0.1425  0.0464  0.0066
 4295POPC   C2B52066  12.244  12.078   6.349 -0.0834 -0.1434 -0.1854
 4295POPC   C3B52067  12.038  11.840   6.073  0.2179 -0.1892  0.0247
 4295POPC   C4B52068  11.951  11.542   5.703 -0.0149  0.4091  0.1168
 4296POPC   NC352069   8.511  30.235   7.337 -0.0460 -0.1621 -0.0527
 4296POPC   PO452070   8.371  29.874   7.438 -0.0609 -0.2198  0.1967
 4296POPC   GL152071   8.199  29.926   7.169  0.1333 -0.0191 -0.1461
 4296POPC   GL252072   8.034  29.701   7.125  0.2442 -0.1340  0.1968
 4296POPC   C1A52073   8.279  29.791   6.690  0.1341  0.2070 -0.0610
 4296POPC   D2A52074   8.352  29.653   6.330 -0.0816 -0.2589  0.0816
 4296POPC   C3A52075   8.534  29.706   5.958  0.1135  0.0609  0.1426
 4296POPC   C4A52076   8.951  29.642   5.831 -0.1258  0.0900 -0.3118
 4296POPC   C1B52077   7.881  30.087   6.870  0.2230 -0.0706 -0.1080
 4296POPC   C2B52078   7.616  30.308   6.558 -0.2533  0.0526  0.0022
 4296POPC   C3B52079   7.651  30.284   6.139  0.2556 -0.2846  0.0786
 4296POPC   C4B52080   7.419  30.251   5.747  0.1356 -0.1039  0.1634
 4297POPC   NC352081  29.405  10.378   7.534 -0.0853 -0.1189 -0.1977
 4297POPC   PO452082  29.171  10.627   7.760  0.1842  0.2474 -0.0690
 4297POPC   GL152083  29.140  10.770   7.441  0.0808 -0.5277  0.3853
 4297POPC   GL252084  29.398  10.822   7.306  0.0221  0.0585 -0.0658
 4297POPC   C1A52085  29.178  10.459   7.101  0.1001 -0.0602  0.2744
 4297POPC   D2A52086  29.367  10.228   6.754  0.2531 -0.1038  0.0929
 4297POPC   C3A52087  29.235   9.988   6.342 -0.0594  0.2122  0.2441
 4297POPC   C4A52088  29.147   9.826   5.928 -0.0102 -0.1592  0.3506
 4297POPC   C1B52089  29.318  10.839   6.846  0.0060 -0.2869 -0.0404
 4297POPC   C2B52090  29.056  10.525   6.525  0.1020 -0.1535  0.0192
 4297POPC   C3B52091  28.694  10.459   6.211 -0.3782 -0.2157  0.0715
 4297POPC   C4B52092  28.636  10.603   5.749 -0.0287  0.2059  0.1235
 4298POPC   NC352093  25.248   0.496   7.960  0.0336 -0.4141 -0.0833
 4298POPC   PO452094  24.979   0.577   7.696  0.3276  0.2795  0.0169
 4298POPC   GL152095  24.867   0.892   7.428  0.2933  0.1880 -0.1460
 4298POPC   GL252096  24.733   1.171   7.488 -0.0023 -0.0418  0.2102
 4298POPC   C1A52097  24.769   0.867   6.977  0.0555  0.0094 -0.0252
 4298POPC   D2A52098  24.688   1.236   6.721  0.3552 -0.0943  0.1512
 4298POPC   C3A52099  24.371   1.074   6.408 -0.0285 -0.0430  0.0265
 4298POPC   C4A52100  24.300   1.162   5.977 -0.0961  0.3459 -0.0512
 4298POPC   C1B52101  25.097   1.384   7.257 -0.4700 -0.1480 -0.1892
 4298POPC   C2B52102  25.237   1.524   6.882 -0.0221  0.1215  0.1167
 4298POPC   C3B52103  25.505   1.833   6.629  0.1434 -0.0842 -0.0368
 4298POPC   C4B52104  25.784   1.738   6.251 -0.1661 -0.2345  0.3069
 4299POPC   NC352105  28.468  31.153   7.722 -0.0381  0.0590 -0.1015
 4299POPC   PO452106  28.721  30.940   7.891 -0.0038 -0.0262  0.0461
 4299POPC   GL152107  28.728  30.862   7.408  0.3680 -0.6174 -0.3027
 4299POPC   GL252108  29.072  30.830   7.345  0.2964  0.1736 -0.1207
 4299POPC   C1A52109  28.517  30.680   7.022 -0.2144  0.0005 -0.2667
 4299POPC   D2A52110  28.630  30.686   6.541 -0.1574 -0.0634  0.1620
 4299POPC   C3A52111  28.845  30.312   6.393 -0.0664  0.1189 -0.0958
 4299POPC   C4A52112  29.152  30.046   6.243 -0.1514  0.2747  0.0802
 4299POPC   C1B52113  29.371  30.494   7.204 -0.0719  0.1790  0.0420
 4299POPC   C2B52114  29.716  30.437   6.938 -0.0414 -0.2478  0.0313
 4299POPC   C3B52115  30.161  30.288   6.884  0.0428 -0.1412  0.1001
 4299POPC   C4B52116  30.471  29.956   6.904  0.1441 -0.2696 -0.0565
 4300POPC   NC352117   2.054   6.723   7.669  0.2686  0.0360  0.2093
 4300POPC   PO452118   2.201   7.053   7.535 -0.0195 -0.1720 -0.0434
 4300POPC   GL152119   2.095   6.988   7.122  0.1552 -0.3449  0.1425
 4300POPC   GL252120   1.770   6.867   7.185  0.1159  0.1402 -0.0615
 4300POPC   C1A52121   1.908   6.859   6.704 -0.1417  0.0198 -0.3569
 4300POPC   D2A52122   1.988   6.589   6.315  0.0807  0.1390  0.1488
 4300POPC   C3A52123   2.292   6.591   5.999 -0.0921  0.0909  0.0456
 4300POPC   C4A52124   2.342   6.322   5.714 -0.0916 -0.2002  0.1400
 4300POPC   C1B52125   1.934   6.482   7.006  0.1682 -0.1477  0.3748
 4300POPC   C2B52126   1.730   6.248   6.650  0.1481  0.3248 -0.1788
 4300POPC   C3B52127   1.671   6.149   6.212  0.0430 -0.1402 -0.0991
 4300POPC   C4B52128   1.438   5.900   5.880 -0.0156  0.3677 -0.1356
 4301POPC   NC352129  25.176  11.415   8.064 -0.0451 -0.0703  0.1642
 4301POPC   PO452130  24.986  11.389   7.767 -0.1170 -0.1100  0.2794
 4301POPC   GL152131  24.957  11.564   7.448  0.3474  0.1417  0.0254
 4301POPC   GL252132  25.268  11.540   7.381  0.0056  0.0489  0.0974
 4301POPC   C1A52133  24.971  11.962   7.293  0.1663 -0.0679 -0.0600
 4301POPC   D2A52134  24.674  12.316   7.374  0.1284  0.1992 -0.2334
 4301POPC   C3A52135  24.808  12.640   7.629 -0.0365 -0.0220 -0.1524
 4301POPC   C4A52136  24.765  13.012   7.919 -0.0051 -0.1027  0.0821
 4301POPC   C1B52137  25.074  11.575   6.972 -0.0200 -0.2542  0.2095
 4301POPC   C2B52138  24.937  11.443   6.525 -0.2728  0.1659  0.2347
 4301POPC   C3B52139  24.841  11.541   6.105  0.1669  0.0353  0.1877
 4301POPC   C4B52140  24.692  11.811   5.704 -0.0667  0.0097  0.1307
 4302POPC   NC352141  15.096  27.715   7.675  0.2084  0.2321  0.0749
 4302POPC   PO452142  15.387  27.567   7.597 -0.3204  0.1969 -0.0626
 4302POPC   GL152143  15.537  27.564   7.187 -0.3900 -0.1690 -0.2016
 4302POPC   GL252144  15.528  27.321   7.029 -0.1255  0.0685  0.1057
 4302POPC   C1A52145  15.542  27.874   6.899  0.0063  0.0307 -0.2596
 4302POPC   D2A52146  15.615  28.193   6.502  0.3539 -0.1223 -0.1870
 4302POPC   C3A52147  15.805  28.307   6.121  0.1826  0.1208 -0.4353
 4302POPC   C4A52148  15.915  28.455   5.682 -0.1344  0.1061 -0.0040
 4302POPC   C1B52149  15.396  27.483   6.619 -0.0117 -0.1749 -0.3166
 4302POPC   C2B52150  15.276  27.806   6.321 -0.2513  0.0454 -0.2180
 4302POPC   C3B52151  15.575  27.904   5.968  0.0671  0.0860 -0.1424
 4302POPC   C4B52152  15.807  27.907   5.549  0.3005 -0.1986 -0.1158
 4303POPC   NC352153  27.606  19.766   7.840 -0.1806  0.0904 -0.0616
 4303POPC   PO452154  27.888  20.091   7.798 -0.1543  0.3641 -0.1734
 4303POPC   GL152155  27.991  20.499   7.653  0.0566  0.1076 -0.2532
 4303POPC   GL252156  28.277  20.401   7.520 -0.2143  0.1539  0.3068
 4303POPC   C1A52157  27.823  20.913   7.830 -0.0170 -0.1229  0.6083
 4303POPC   D2A52158  27.609  21.286   8.084  0.6987  0.1741  0.1456
 4303POPC   C3A52159  27.378  21.670   7.914 -0.0830  0.0094 -0.0557
 4303POPC   C4A52160  27.324  22.120   7.824 -0.1275 -0.3348 -0.1060
 4303POPC   C1B52161  27.949  20.471   7.231 -0.1134 -0.3503  0.1094
 4303POPC   C2B52162  27.882  20.555   6.770 -0.0322 -0.0796 -0.1908
 4303POPC   C3B52163  27.748  20.624   6.371 -0.2263  0.1013 -0.1661
 4303POPC   C4B52164  27.641  20.316   6.038 -0.2337 -0.0212 -0.4438
 4304POPC   NC352165  29.580   6.898   7.649  0.0802  0.1320  0.0284
 4304POPC   PO452166  29.955   6.891   7.804 -0.2570  0.0800  0.0674
 4304POPC   GL152167  29.981   7.165   7.456  0.0363 -0.2305 -0.1012
 4304POPC   GL252168  30.209   7.102   7.329  0.0304  0.2158 -0.0878
 4304POPC   C1A52169  29.702   6.972   7.112  0.2645  0.1174 -0.1292
 4304POPC   D2A52170  29.645   6.751   6.726  0.0565 -0.2234 -0.0527
 4304POPC   C3A52171  29.761   6.903   6.270 -0.2561 -0.3061  0.0905
 4304POPC   C4A52172  29.744   6.964   5.809  0.1600 -0.0542  0.1969
 4304POPC   C1B52173  30.133   7.335   6.962  0.0786  0.1134 -0.2786
 4304POPC   C2B52174  30.170   7.302   6.500 -0.0696 -0.3388  0.4545
 4304POPC   C3B52175  29.998   7.417   6.066 -0.3518  0.1091  0.0384
 4304POPC   C4B52176  29.743   7.758   5.948 -0.0143 -0.0393  0.0362
 4305POPC   NC352177  21.899   5.588   7.492  0.1224  0.0293  0.4125
 4305POPC   PO452178  22.084   5.238   7.399 -0.2478  0.1403  0.0813
 4305POPC   GL152179  21.928   5.378   7.084  0.0618 -0.2391 -0.3711
 4305POPC   GL252180  22.145   5.354   6.913 -0.2935  0.2528  0.0830
 4305POPC   C1A52181  21.694   5.522   6.735  0.1633 -0.2402 -0.1372
 4305POPC   D2A52182  21.492   5.200   6.432  0.1974  0.0678  0.1046
 4305POPC   C3A52183  21.740   5.027   6.142  0.0398  0.1010  0.3770
 4305POPC   C4A52184  21.812   5.161   5.698 -0.0351 -0.0073  0.2191
 4305POPC   C1B52185  22.277   5.705   6.753  0.0537  0.0916  0.2179
 4305POPC   C2B52186  22.236   6.066   6.403  0.2860 -0.2553 -0.0669
 4305POPC   C3B52187  22.429   6.402   6.098 -0.0884  0.1456  0.1366
 4305POPC   C4B52188  22.645   6.791   5.971 -0.0959  0.0946 -0.2982
 4306POPC   NC352189  12.471  13.121   7.962 -0.1736  0.1732  0.1036
 4306POPC   PO452190  12.202  12.928   8.200 -0.1921  0.0539  0.0273
 4306POPC   GL152191  11.942  12.766   7.963  0.2427 -0.6370  0.0532
 4306POPC   GL252192  11.831  13.120   7.897 -0.1264 -0.2606  0.2746
 4306POPC   C1A52193  11.545  12.809   7.709  0.2579  0.2170  0.0644
 4306POPC   D2A52194  11.137  12.726   7.529  0.0663 -0.0418 -0.0580
 4306POPC   C3A52195  10.945  12.749   7.133 -0.2133  0.0604  0.3053
 4306POPC   C4A52196  10.794  12.497   6.744  0.0300 -0.2683 -0.1455
 4306POPC   C1B52197  11.946  13.372   7.553  0.1107 -0.0709 -0.0124
 4306POPC   C2B52198  12.142  13.617   7.228 -0.0884 -0.2512  0.0252
 4306POPC   C3B52199  12.238  14.066   7.130  0.2863 -0.0169 -0.3250
 4306POPC   C4B52200  12.145  14.559   7.081 -0.2302  0.2202  0.0810
 4307POPC   NC352201  23.750   2.494   7.977  0.0275 -0.1349  0.1287
 4307POPC   PO452202  24.066   2.272   8.026  0.0433 -0.2540 -0.2400
 4307POPC   GL152203  24.173   2.238   7.666  0.1943  0.1436  0.1014
 4307POPC   GL252204  24.293   2.489   7.585 -0.0354  0.0606  0.2901
 4307POPC   C1A52205  23.853   2.263   7.308  0.0753 -0.1530 -0.0373
 4307POPC   D2A52206  23.805   2.266   6.849 -0.0769  0.0173  0.2708
 4307POPC   C3A52207  24.142   2.057   6.613 -0.2295 -0.1279  0.4229
 4307POPC   C4A52208  24.163   1.998   6.107 -0.0928  0.1408 -0.0619
 4307POPC   C1B52209  24.650   2.266   7.345 -0.2180 -0.0663  0.0308
 4307POPC   C2B52210  24.973   1.900   7.416 -0.2357  0.1234 -0.0044
 4307POPC   C3B52211  25.183   1.642   7.712 -0.2357  0.0642 -0.1146
 4307POPC   C4B52212  25.498   1.644   8.040 -0.0383  0.2081 -0.1462
 4308POPC   NC352213   9.290  18.119   7.603  0.0265 -0.3290 -0.0569
 4308POPC   PO452214   9.463  18.384   7.819 -0.1485  0.1185  0.1057
 4308POPC   GL152215   9.708  18.459   7.555  0.0172 -0.2102  0.1539
 4308POPC   GL252216  10.015  18.539   7.553 -0.0912 -0.0474 -0.3841
 4308POPC   C1A52217   9.732  18.802   7.266  0.0363 -0.0839 -0.0071
 4308POPC   D2A52218   9.496  18.871   6.843  0.0616  0.3396  0.2527
 4308POPC   C3A52219   9.588  18.993   6.409 -0.0637  0.1001  0.0491
 4308POPC   C4A52220   9.800  19.150   6.023 -0.0697  0.1270 -0.3105
 4308POPC   C1B52221  10.270  18.811   7.270 -0.1320 -0.0115  0.1434
 4308POPC   C2B52222  10.324  18.971   6.826 -0.0663  0.1169  0.1308
 4308POPC   C3B52223  10.325  19.107   6.404 -0.0812 -0.0925  0.1156
 4308POPC   C4B52224  10.337  19.095   5.944  0.0521  0.1410  0.0449
 4309POPC   NC352225  21.166  22.952   7.984  0.0687  0.0877  0.3469
 4309POPC   PO452226  21.507  22.833   7.893 -0.0244  0.1324  0.1630
 4309POPC   GL152227  21.546  22.702   7.522 -0.0710  0.4680 -0.1297
 4309POPC   GL252228  21.233  22.658   7.548  0.3154  0.0337  0.1226
 4309POPC   C1A52229  21.463  22.911   7.104  0.1815 -0.0413 -0.2373
 4309POPC   D2A52230  21.276  22.792   6.713 -0.5226  0.3746 -0.1568
 4309POPC   C3A52231  20.975  22.928   6.439 -0.4011 -0.0001  0.1545
 4309POPC   C4A52232  20.737  22.734   6.083  0.2764  0.3490 -0.0725
 4309POPC   C1B52233  20.960  22.773   7.183  0.0382 -0.1528  0.4509
 4309POPC   C2B52234  20.707  22.873   6.851  0.1509 -0.0473 -0.1816
 4309POPC   C3B52235  20.431  22.749   6.523  0.2715 -0.0287  0.1369
 4309POPC   C4B52236  20.054  22.788   6.237 -0.0177 -0.3657  0.1401
 4310POPC   NC352237  24.680   1.098   7.968  0.0267  0.0211 -0.0868
 4310POPC   PO452238  25.066   1.013   7.869  0.1510 -0.1473  0.0336
 4310POPC   GL152239  25.301   1.086   7.587 -0.5330 -0.1608 -0.0764
 4310POPC   GL252240  25.345   0.875   7.428 -0.0612 -0.1448 -0.2254
 4310POPC   C1A52241  25.623   1.391   7.464 -0.1734  0.2432 -0.1792
 4310POPC   D2A52242  25.743   1.597   7.068  0.1508 -0.2869 -0.2061
 4310POPC   C3A52243  26.059   1.751   6.706  0.2262  0.2061 -0.2046
 4310POPC   C4A52244  25.977   2.154   6.463  0.2305  0.0346  0.0808
 4310POPC   C1B52245  25.258   0.936   7.027  0.0184 -0.0914  0.1775
 4310POPC   C2B52246  25.175   1.059   6.591  0.1220  0.2922  0.3046
 4310POPC   C3B52247  24.878   1.248   6.247 -0.0554  0.3389 -0.4333
 4310POPC   C4B52248  24.594   1.584   6.038  0.0623 -0.3348  0.0211
 4311POPC   NC352249   6.872   2.992   8.179  0.1419  0.2389  0.1447
 4311POPC   PO452250   6.734   2.829   7.817 -0.1038 -0.0371 -0.0779
 4311POPC   GL152251   6.925   2.690   7.457  0.2068  0.1687  0.1427
 4311POPC   GL252252   7.179   2.557   7.536  0.0487  0.0502  0.1775
 4311POPC   C1A52253   6.946   2.573   7.014 -0.1905  0.0211 -0.1774
 4311POPC   D2A52254   6.725   2.782   6.632 -0.0794 -0.4135 -0.2853
 4311POPC   C3A52255   6.789   2.777   6.242  0.1678 -0.0305  0.3773
 4311POPC   C4A52256   6.509   2.893   5.851 -0.3354 -0.0724  0.1964
 4311POPC   C1B52257   7.411   2.545   7.078  0.0158  0.1750  0.0369
 4311POPC   C2B52258   7.393   2.542   6.647 -0.2173 -0.1506 -0.0235
 4311POPC   C3B52259   7.261   2.822   6.236 -0.0852 -0.1436 -0.0295
 4311POPC   C4B52260   7.025   2.838   5.801 -0.0213  0.2137  0.1127
 4312POPC   NC352261  13.208  30.168   8.389 -0.0424 -0.2560  0.1148
 4312POPC   PO452262  13.465  30.173   8.096 -0.1767  0.1136 -0.0122
 4312POPC   GL152263  13.528  30.383   7.704 -0.0111  0.0387 -0.2512
 4312POPC   GL252264  13.793  30.450   7.572 -0.2041 -0.3810  0.1300
 4312POPC   C1A52265  13.384  30.085   7.409 -0.1311  0.1574  0.0185
 4312POPC   D2A52266  13.079  29.973   7.123  0.1610 -0.1708  0.1271
 4312POPC   C3A52267  12.977  29.814   6.667  0.0952 -0.0462  0.0715
 4312POPC   C4A52268  12.975  29.697   6.247  0.0995 -0.0299 -0.0283
 4312POPC   C1B52269  13.571  30.427   7.139  0.0640  0.1031  0.2400
 4312POPC   C2B52270  13.296  30.269   6.792  0.2301 -0.1982  0.1050
 4312POPC   C3B52271  13.198  30.138   6.341 -0.0304  0.0487 -0.1739
 4312POPC   C4B52272  13.136  30.454   6.053 -0.1980  0.1518  0.2847
 4313POPC   NC352273  20.039  12.188   7.677  0.0603  0.2852 -0.6014
 4313POPC   PO452274  19.708  12.398   7.784  0.0292  0.1854 -0.1159
 4313POPC   GL152275  19.441  12.328   7.495 -0.3947 -0.0296  0.0030
 4313POPC   GL252276  19.614  12.214   7.253 -0.0558 -0.1596 -0.1394
 4313POPC   C1A52277  19.388  12.591   7.125 -0.2578  0.1393  0.3722
 4313POPC   D2A52278  19.476  12.652   6.627 -0.2686  0.1491 -0.1632
 4313POPC   C3A52279  19.511  12.933   6.260  0.0014  0.0205  0.2932
 4313POPC   C4A52280  19.725  13.190   5.928 -0.2514  0.0443  0.1951
 4313POPC   C1B52281  19.469  12.017   6.820 -0.0116 -0.0645 -0.1897
 4313POPC   C2B52282  19.355  12.058   6.402  0.0121  0.2416 -0.1686
 4313POPC   C3B52283  19.323  11.790   6.063 -0.0704 -0.0310  0.1151
 4313POPC   C4B52284  19.325  11.537   5.656 -0.1317  0.1205 -0.1167
 4314POPC   NC352285  25.323  29.236   7.666 -0.1585  0.0959 -0.1031
 4314POPC   PO452286  25.646  29.371   7.524  0.0815 -0.0965 -0.3170
 4314POPC   GL152287  25.481  29.197   7.148 -0.2709  0.6542  0.0291
 4314POPC   GL252288  25.323  29.036   7.182  0.1391 -0.2392 -0.0140
 4314POPC   C1A52289  25.488  29.253   6.674  0.0564  0.1265  0.0242
 4314POPC   D2A52290  25.644  28.907   6.397 -0.1005  0.2318 -0.1616
 4314POPC   C3A52291  25.536  28.707   6.040 -0.1465  0.0864 -0.0173
 4314POPC   C4A52292  25.146  28.725   5.817 -0.1503 -0.0877 -0.2183
 4314POPC   C1B52293  25.365  28.752   6.848  0.0457 -0.0592  0.2514
 4314POPC   C2B52294  25.372  28.473   6.434  0.0212  0.0170 -0.3319
 4314POPC   C3B52295  24.918  28.465   6.229  0.0514  0.0355 -0.3145
 4314POPC   C4B52296  24.652  28.618   5.894 -0.1684 -0.0982 -0.1392
 4315POPC   NC352297  24.922  24.979   7.730 -0.4373  0.1459 -0.1125
 4315POPC   PO452298  25.113  24.686   7.580  0.0239 -0.3224  0.0982
 4315POPC   GL152299  25.359  24.689   7.290  0.0320 -0.5633  0.1838
 4315POPC   GL252300  25.709  24.776   7.289  0.0595 -0.6062 -0.0536
 4315POPC   C1A52301  25.175  24.803   6.883 -0.1717 -0.2860 -0.0004
 4315POPC   D2A52302  25.151  24.574   6.485  0.0886 -0.1252 -0.0564
 4315POPC   C3A52303  25.356  24.858   6.161  0.1312 -0.1172 -0.0280
 4315POPC   C4A52304  25.621  25.218   5.966 -0.1379 -0.0463  0.3914
 4315POPC   C1B52305  25.699  24.885   6.828 -0.0417  0.0710  0.2138
 4315POPC   C2B52306  25.857  24.923   6.389  0.1769 -0.1338  0.2385
 4315POPC   C3B52307  26.104  24.747   6.038  0.2231  0.1328 -0.0593
 4315POPC   C4B52308  26.227  25.000   5.685 -0.0514  0.0195  0.0366
 4316POPC   NC352309   9.945  18.184   7.931 -0.0126  0.1327  0.2529
 4316POPC   PO452310   9.808  17.815   7.751  0.0858  0.0522 -0.1064
 4316POPC   GL152311   9.705  17.974   7.440  0.4183 -0.0445 -0.3660
 4316POPC   GL252312  10.007  18.077   7.394  0.2116 -0.1746 -0.2346
 4316POPC   C1A52313   9.481  18.108   7.058  0.0873 -0.0432 -0.1464
 4316POPC   D2A52314   9.513  18.406   6.719 -0.3178  0.0843 -0.0258
 4316POPC   C3A52315   9.372  18.561   6.301  0.0359  0.1761 -0.0545
 4316POPC   C4A52316   9.410  18.645   5.836 -0.0075 -0.2465  0.0656
 4316POPC   C1B52317   9.906  18.387   7.063 -0.0380 -0.0425  0.0458
 4316POPC   C2B52318   9.949  18.689   6.740  0.0054  0.0831  0.1121
 4316POPC   C3B52319   9.937  18.638   6.284  0.1079 -0.0728  0.2840
 4316POPC   C4B52320   9.775  18.349   5.970  0.1192  0.0364 -0.0878
 4317POPC   NC352321  27.806   7.028   7.767  0.0695  0.1842 -0.3562
 4317POPC   PO452322  27.974   7.349   7.909  0.1382 -0.0470 -0.2169
 4317POPC   GL152323  27.905   7.409   7.545  0.1856  0.0878 -0.3406
 4317POPC   GL252324  27.619   7.475   7.389 -0.3180  0.1338 -0.0376
 4317POPC   C1A52325  28.099   7.555   7.081  0.1196  0.1716 -0.1282
 4317POPC   D2A52326  28.479   7.542   6.846  0.1421  0.5497  0.3296
 4317POPC   C3A52327  28.468   7.380   6.419 -0.3048  0.0391 -0.1958
 4317POPC   C4A52328  28.440   7.078   6.126  0.1424 -0.0979 -0.2455
 4317POPC   C1B52329  27.577   7.656   6.971 -0.1369  0.3076 -0.1675
 4317POPC   C2B52330  27.379   7.841   6.540 -0.0350 -0.0886 -0.1202
 4317POPC   C3B52331  27.293   8.145   6.212 -0.0633 -0.1622 -0.0886
 4317POPC   C4B52332  27.476   8.503   5.986 -0.1395  0.2542  0.1106
 4318POPC   NC352333   7.116  19.867   7.646  0.0545 -0.2569  0.1755
 4318POPC   PO452334   7.195  19.507   7.481  0.0164 -0.0328  0.1738
 4318POPC   GL152335   7.110  19.417   7.131  0.0645 -0.0978 -0.3086
 4318POPC   GL252336   7.204  19.117   7.167  0.0685 -0.0320 -0.1671
 4318POPC   C1A52337   7.368  19.627   6.806 -0.0985  0.2101  0.0197
 4318POPC   D2A52338   7.551  19.726   6.396  0.0080  0.4346  0.0829
 4318POPC   C3A52339   7.614  20.127   6.111 -0.1620  0.2487 -0.3779
 4318POPC   C4A52340   7.738  20.466   5.852  0.1654 -0.0552  0.0815
 4318POPC   C1B52341   6.957  18.985   6.852 -0.1167 -0.1578 -0.3949
 4318POPC   C2B52342   7.038  18.846   6.412 -0.0188  0.1968 -0.1428
 4318POPC   C3B52343   7.333  18.773   6.054  0.2435 -0.2168 -0.0931
 4318POPC   C4B52344   7.581  18.516   5.781 -0.0017 -0.3722 -0.0372
 4319POPC   NC352345  20.248  17.206   7.807  0.1983  0.0411 -0.0865
 4319POPC   PO452346  20.148  16.879   7.600 -0.1131  0.0216  0.0449
 4319POPC   GL152347  20.149  16.690   7.157 -0.0851  0.1057  0.0857
 4319POPC   GL252348  20.398  16.821   7.109 -0.1108  0.3832  0.0323
 4319POPC   C1A52349  20.065  16.328   6.865  0.4669  0.2043  0.1478
 4319POPC   D2A52350  20.114  16.220   6.439  0.0423  0.0840 -0.0512
 4319POPC   C3A52351  19.765  16.044   6.235  0.0321 -0.0916 -0.1248
 4319POPC   C4A52352  19.511  15.706   6.123  0.3140  0.0607  0.2135
 4319POPC   C1B52353  20.370  16.889   6.694  0.0978 -0.0639  0.2350
 4319POPC   C2B52354  20.169  16.723   6.298  0.0227  0.0170 -0.0966
 4319POPC   C3B52355  19.946  16.915   5.916  0.1847 -0.2115  0.1961
 4319POPC   C4B52356  20.192  17.168   5.628  0.0535  0.2532 -0.3182
 4320POPC   NC352357   7.421  25.490   7.611  0.2288  0.0720  0.0097
 4320POPC   PO452358   7.695  25.260   7.459  0.0595 -0.2147  0.0223
 4320POPC   GL152359   7.569  25.501   7.129 -0.2634 -0.1078  0.0369
 4320POPC   GL252360   7.769  25.453   6.991  0.0421 -0.0348  0.0598
 4320POPC   C1A52361   7.364  25.611   6.721 -0.3749  0.1748  0.0840
 4320POPC   D2A52362   7.479  25.709   6.271  0.5449  0.0446 -0.1041
 4320POPC   C3A52363   7.241  25.544   5.884 -0.3066  0.0802  0.1690
 4320POPC   C4A52364   7.007  25.406   5.487 -0.1357  0.1796 -0.1826
 4320POPC   C1B52365   7.833  25.318   6.592  0.1029 -0.0496  0.0008
 4320POPC   C2B52366   7.873  25.466   6.101 -0.0968 -0.0084  0.3076
 4320POPC   C3B52367   7.973  25.846   5.786 -0.2112 -0.0887 -0.1438
 4320POPC   C4B52368   7.485  25.974   5.666  0.1032  0.0879 -0.2113
 4321POPC   NC352369  30.906  24.909   7.834  0.0819 -0.0001  0.0176
 4321POPC   PO452370  30.678  25.193   7.725  0.0543  0.2553  0.1425
 4321POPC   GL152371  30.597  25.467   7.352 -0.1201 -0.0351  0.3675
 4321POPC   GL252372  30.730  25.516   7.165 -0.1535  0.0608  0.1977
 4321POPC   C1A52373  30.370  25.283   6.916 -0.2607  0.0414 -0.0297
 4321POPC   D2A52374  30.183  25.071   6.559 -0.2678  0.1353  0.2693
 4321POPC   C3A52375  30.307  24.841   6.175  0.0769 -0.1270 -0.1559
 4321POPC   C4A52376  30.129  24.669   5.790  0.3749  0.2127 -0.3070
 4321POPC   C1B52377  30.750  25.944   6.951  0.1425  0.3406  0.1134
 4321POPC   C2B52378  30.846  25.899   6.567  0.1895 -0.1574  0.3174
 4321POPC   C3B52379  30.658  25.738   6.171  0.3212  0.1565 -0.2431
 4321POPC   C4B52380  30.530  25.746   5.694  0.3354  0.1903 -0.1679
 4322POPC   NC352381   4.847  11.186   7.753 -0.2335  0.1775  0.1301
 4322POPC   PO452382   5.085  11.230   7.441 -0.0650  0.0567 -0.0204
 4322POPC   GL152383   5.194  11.140   7.140  0.4292  0.2210  0.1378
 4322POPC   GL252384   5.179  11.313   6.931  0.0691  0.1398  0.1798
 4322POPC   C1A52385   5.134  10.820   6.779 -0.1513 -0.1420 -0.0467
 4322POPC   D2A52386   5.076  10.742   6.337  0.3762  0.2595 -0.0925
 4322POPC   C3A52387   5.128  10.358   6.013 -0.0317  0.0160  0.0710
 4322POPC   C4A52388   5.110  10.303   5.570 -0.1420 -0.3927 -0.1952
 4322POPC   C1B52389   5.276  11.244   6.480 -0.0936  0.0678  0.1051
 4322POPC   C2B52390   5.433  11.263   6.071  0.1329 -0.3854  0.1591
 4322POPC   C3B52391   5.631  11.455   5.735 -0.1089  0.4152 -0.1255
 4322POPC   C4B52392   5.690  11.550   5.288  0.4349 -0.4013  0.0510
 4323POPC   NC352393  19.401  13.624   7.354 -0.3260 -0.1084 -0.2990
 4323POPC   PO452394  19.763  13.814   7.372 -0.2458 -0.0620  0.2201
 4323POPC   GL152395  19.681  13.733   6.980  0.1395 -0.4588 -0.5057
 4323POPC   GL252396  19.720  13.440   6.953  0.0182  0.0611 -0.0414
 4323POPC   C1A52397  19.939  13.814   6.596 -0.0836  0.3498 -0.0667
 4323POPC   D2A52398  20.062  14.023   6.220  0.3269 -0.0550 -0.3639
 4323POPC   C3A52399  19.972  14.123   5.805  0.1767 -0.2556  0.0315
 4323POPC   C4A52400  20.142  13.863   5.455 -0.1729  0.1984  0.0315
 4323POPC   C1B52401  19.897  13.133   6.644 -0.0642 -0.0151  0.3185
 4323POPC   C2B52402  19.981  12.843   6.281  0.1525 -0.2430  0.4065
 4323POPC   C3B52403  20.168  12.867   5.821 -0.3551 -0.4801 -0.0709
 4323POPC   C4B52404  20.456  12.990   5.480  0.0419 -0.4211 -0.3298
 4324POPC   NC352405  29.785  28.628   7.854 -0.0261 -0.1818 -0.0896
 4324POPC   PO452406  29.441  28.532   7.650  0.1843 -0.0607 -0.0894
 4324POPC   GL152407  29.824  28.472   7.414  0.1523  0.0229 -0.0686
 4324POPC   GL252408  29.607  28.286   7.276 -0.3719  0.0499 -0.0879
 4324POPC   C1A52409  30.033  28.486   7.017  0.1976  0.0794  0.0504
 4324POPC   D2A52410  30.327  28.656   6.669 -0.1324  0.1981  0.1731
 4324POPC   C3A52411  30.383  28.292   6.376  0.2770  0.3462  0.0249
 4324POPC   C4A52412  30.316  27.989   6.048 -0.2498 -0.0629  0.0208
 4324POPC   C1B52413  29.506  28.363   6.833  0.2333 -0.0841 -0.1772
 4324POPC   C2B52414  29.895  28.328   6.549  0.1347  0.0611 -0.3568
 4324POPC   C3B52415  29.979  28.338   6.093  0.0583 -0.1571  0.0625
 4324POPC   C4B52416  29.904  28.224   5.619  0.1981 -0.1799  0.2906
 4325POPC   NC352417  28.316  30.538   7.481  0.1299  0.2603  0.0372
 4325POPC   PO452418  28.034  30.810   7.604  0.0872  0.2707 -0.1101
 4325POPC   GL152419  27.916  30.690   7.285  0.3043  0.1475  0.1068
 4325POPC   GL252420  27.881  30.360   7.257  0.0845  0.2042 -0.2311
 4325POPC   C1A52421  28.086  30.599   6.857  0.0936 -0.0102  0.0324
 4325POPC   D2A52422  28.036  30.617   6.431 -0.3211 -0.0856  0.3807
 4325POPC   C3A52423  28.326  30.760   6.106 -0.4426 -0.0596  0.0723
 4325POPC   C4A52424  28.423  30.543   5.743 -0.1105 -0.2290  0.2274
 4325POPC   C1B52425  27.617  30.415   6.851  0.0182 -0.4827  0.1066
 4325POPC   C2B52426  27.583  30.456   6.407 -0.1188  0.1017  0.0285
 4325POPC   C3B52427  27.472  30.538   5.923  0.0688 -0.1565 -0.3099
 4325POPC   C4B52428  27.363  30.634   5.496  0.1378  0.0476  0.0923
 4326POPC   NC352429  30.786   3.763   7.515 -0.0346  0.0425 -0.1122
 4326POPC   PO452430  30.494   3.454   7.569 -0.0486  0.0632 -0.0554
 4326POPC   GL152431  30.499   3.277   7.140  0.0069  0.1970 -0.4216
 4326POPC   GL252432  30.785   3.371   7.144 -0.2364  0.1930 -0.2338
 4326POPC   C1A52433  30.526   2.969   6.821  0.1486 -0.0372  0.1287
 4326POPC   D2A52434  30.626   3.002   6.329 -0.1538  0.0366 -0.2369
 4326POPC   C3A52435  30.775   3.307   6.033  0.0565  0.0994 -0.1939
 4326POPC   C4A52436  30.754   3.699   5.821  0.1351 -0.1190  0.0501
 4326POPC   C1B52437  30.998   3.287   6.745 -0.0808 -0.2272 -0.4218
 4326POPC   C2B52438  31.194   3.198   6.309 -0.1327  0.0132  0.3168
 4326POPC   C3B52439  31.353   3.142   5.887  0.0148  0.0625  0.0045
 4326POPC   C4B52440  31.346   2.989   5.522  0.2614 -0.0026  0.1295
 4327POPC   NC352441  15.152   5.177   7.581 -0.0512  0.0774  0.2462
 4327POPC   PO452442  15.384   5.508   7.533 -0.0415  0.0190 -0.0627
 4327POPC   GL152443  15.412   5.606   7.189 -0.0026 -0.2376 -0.0207
 4327POPC   GL252444  15.622   5.833   7.196  0.1443  0.1172  0.0975
 4327POPC   C1A52445  15.191   5.957   6.940  0.2107  0.0993 -0.2586
 4327POPC   D2A52446  15.087   6.108   6.546 -0.1717 -0.3138  0.0567
 4327POPC   C3A52447  14.820   5.807   6.421 -0.1417 -0.2249 -0.0735
 4327POPC   C4A52448  14.347   5.705   6.275  0.1105  0.0433  0.0605
 4327POPC   C1B52449  15.763   5.953   6.823  0.0349  0.1146  0.0939
 4327POPC   C2B52450  15.929   5.844   6.440  0.1387 -0.1888  0.1590
 4327POPC   C3B52451  16.279   5.993   6.195 -0.1659  0.0487  0.0078
 4327POPC   C4B52452  16.559   6.029   5.846 -0.4150 -0.2839  0.0880
 4328POPC   NC352453   4.830   6.445   8.105  0.2036  0.1029 -0.0371
 4328POPC   PO452454   4.656   6.093   8.071  0.2056 -0.0844 -0.0022
 4328POPC   GL152455   4.708   6.111   7.648 -0.0614 -0.2292  0.1024
 4328POPC   GL252456   4.754   5.824   7.496 -0.1074 -0.0495  0.2207
 4328POPC   C1A52457   4.637   6.394   7.278 -0.2543 -0.0734 -0.1163
 4328POPC   D2A52458   4.628   6.473   6.818 -0.0656 -0.3062 -0.0469
 4328POPC   C3A52459   4.567   6.083   6.557  0.1858 -0.0398 -0.0843
 4328POPC   C4A52460   4.239   5.843   6.240  0.1028  0.2580  0.1296
 4328POPC   C1B52461   4.798   5.931   7.013 -0.1851  0.1718 -0.0807
 4328POPC   C2B52462   5.009   6.202   6.694 -0.1309  0.2187  0.4323
 4328POPC   C3B52463   5.050   6.543   6.446 -0.0395 -0.3044 -0.1595
 4328POPC   C4B52464   5.045   6.860   6.116  0.1364  0.2460  0.0654
 4329POPC   NC352465  14.180  10.420   7.625  0.1837  0.1898 -0.1188
 4329POPC   PO452466  14.356  10.056   7.512  0.3682 -0.0835  0.1700
 4329POPC   GL152467  14.272  10.075   7.129  0.4084 -0.0074  0.0364
 4329POPC   GL252468  14.112  10.201   7.079  0.0005  0.3614 -0.2726
 4329POPC   C1A52469  14.391  10.070   6.683  0.1344  0.0807 -0.3344
 4329POPC   D2A52470  14.232   9.978   6.291  0.1965 -0.0253  0.2605
 4329POPC   C3A52471  14.482   9.657   6.051  0.2267  0.3168 -0.0470
 4329POPC   C4A52472  14.414   9.224   5.968  0.0223 -0.0922 -0.3526
 4329POPC   C1B52473  14.005  10.472   6.665  0.0772 -0.1113  0.3239
 4329POPC   C2B52474  14.063  10.519   6.267 -0.1929  0.0457 -0.0453
 4329POPC   C3B52475  13.958  10.420   5.844  0.1600 -0.0691  0.0401
 4329POPC   C4B52476  13.943  10.358   5.382 -0.2186 -0.0438  0.1579
 4330POPC   NC352477  12.905   0.496   7.558 -0.0304 -0.0768 -0.1988
 4330POPC   PO452478  12.607   0.315   7.597 -0.0726 -0.3271  0.2864
 4330POPC   GL152479  12.489   0.476   7.170  0.1484 -0.0534  0.0787
 4330POPC   GL252480  12.640   0.700   7.142  0.4065 -0.0849 -0.1631
 4330POPC   C1A52481  12.650   0.325   6.764  0.0124  0.2853 -0.0032
 4330POPC   D2A52482  12.880  -0.069   6.766  0.0105 -0.3768  0.0394
 4330POPC   C3A52483  12.796  -0.273   6.369  0.1692 -0.0003  0.2182
 4330POPC   C4A52484  12.682  -0.351   5.909  0.1929  0.3546  0.1119
 4330POPC   C1B52485  12.367   0.819   6.808 -0.1163 -0.0864 -0.1222
 4330POPC   C2B52486  12.354   0.568   6.353 -0.2604  0.3050 -0.0870
 4330POPC   C3B52487  12.434   0.280   5.995 -0.0603  0.0799  0.2358
 4330POPC   C4B52488  12.523   0.067   5.616 -0.0061  0.1152  0.1639
 4331POPC   NC352489  29.812  20.642   8.035 -0.1913  0.3217 -0.2811
 4331POPC   PO452490  29.491  20.450   8.045  0.0071 -0.0835 -0.2530
 4331POPC   GL152491  29.703  20.521   7.612  0.1638 -0.0634  0.2450
 4331POPC   GL252492  29.658  20.243   7.433 -0.1676  0.0087 -0.0276
 4331POPC   C1A52493  29.940  20.676   7.256  0.1642  0.0430 -0.1629
 4331POPC   D2A52494  30.236  20.612   6.897  0.0321  0.1765  0.0286
 4331POPC   C3A52495  30.144  20.885   6.519  0.1880 -0.3693 -0.2623
 4331POPC   C4A52496  30.004  21.150   6.216 -0.0212  0.1060  0.0029
 4331POPC   C1B52497  29.739  20.376   6.961 -0.1365 -0.0243  0.0532
 4331POPC   C2B52498  29.820  20.437   6.528  0.0982  0.6509  0.1173
 4331POPC   C3B52499  29.938  20.638   6.141 -0.3651 -0.1780 -0.0980
 4331POPC   C4B52500  30.264  20.766   5.858  0.1516  0.1573  0.2701
 4332POPC   NC352501   5.887  22.040   8.173  0.0283 -0.3459  0.0321
 4332POPC   PO452502   6.106  21.729   7.990  0.0641  0.3246  0.0114
 4332POPC   GL152503   5.839  21.799   7.748 -0.3355 -0.0905 -0.0281
 4332POPC   GL252504   5.682  21.731   7.527  0.0205  0.2057 -0.2504
 4332POPC   C1A52505   5.842  22.269   7.609  0.2932  0.0020  0.0271
 4332POPC   D2A52506   5.545  22.626   7.455 -0.3046  0.1022 -0.3570
 4332POPC   C3A52507   5.769  22.608   7.024 -0.2681  0.3694  0.1404
 4332POPC   C4A52508   5.989  22.776   6.662  0.3300  0.1112  0.1037
 4332POPC   C1B52509   5.584  21.722   7.059  0.1699 -0.3256 -0.2999
 4332POPC   C2B52510   5.503  22.076   6.780 -0.0384 -0.1872 -0.0667
 4332POPC   C3B52511   5.648  22.408   6.506  0.2137  0.0392 -0.0842
 4332POPC   C4B52512   5.656  22.609   6.144  0.1240 -0.0777  0.0441
 4333POPC   NC352513  12.395   3.179   7.553 -0.1735 -0.1475 -0.2546
 4333POPC   PO452514  12.052   3.387   7.499  0.1095  0.0894 -0.0183
 4333POPC   GL152515  12.042   3.434   7.140  0.0769 -0.0538 -0.1023
 4333POPC   GL252516  12.273   3.535   7.020 -0.0873 -0.0059  0.2119
 4333POPC   C1A52517  11.813   3.473   6.779 -0.0825  0.4454 -0.2768
 4333POPC   D2A52518  11.909   3.595   6.310  0.0646  0.0993 -0.0720
 4333POPC   C3A52519  11.510   3.644   6.046 -0.2075  0.2537  0.2630
 4333POPC   C4A52520  11.272   3.834   5.670 -0.0490 -0.3155 -0.1413
 4333POPC   C1B52521  12.283   3.671   6.613  0.0396 -0.2224  0.0466
 4333POPC   C2B52522  12.403   3.511   6.163  0.0687 -0.1413 -0.1899
 4333POPC   C3B52523  12.710   3.424   5.801  0.1585 -0.0304  0.0242
 4333POPC   C4B52524  13.035   3.213   5.586  0.3698  0.2560 -0.0868
 4334POPC   NC352525   6.728  10.194   7.607 -0.0112 -0.2001 -0.3204
 4334POPC   PO452526   6.352  10.375   7.595  0.6075 -0.2106  0.2935
 4334POPC   GL152527   6.470  10.222   7.210 -0.1298 -0.0228  0.2107
 4334POPC   GL252528   6.670   9.927   7.187 -0.0500  0.0914  0.0623
 4334POPC   C1A52529   6.317  10.083   6.809 -0.0574  0.2034  0.5175
 4334POPC   D2A52530   6.329   9.845   6.419 -0.1592  0.3400 -0.2018
 4334POPC   C3A52531   6.626   9.869   6.135 -0.1513  0.0023 -0.3993
 4334POPC   C4A52532   7.080   9.906   6.113  0.1706  0.0663  0.2626
 4334POPC   C1B52533   6.982   9.632   7.099 -0.0151 -0.1955 -0.2422
 4334POPC   C2B52534   7.072   9.352   6.800 -0.3791  0.1076  0.0713
 4334POPC   C3B52535   6.876   9.172   6.435  0.0743 -0.3381  0.0329
 4334POPC   C4B52536   6.853   8.968   6.066 -0.1784  0.0995  0.2451
 4335POPC   NC352537  13.414  11.924   7.555 -0.1110  0.2296 -0.1616
 4335POPC   PO452538  13.822  11.912   7.593  0.0547  0.2121  0.2828
 4335POPC   GL152539  13.880  11.740   7.271  0.0165  0.1885  0.3752
 4335POPC   GL252540  13.664  11.568   7.133 -0.1315 -0.0705 -0.0626
 4335POPC   C1A52541  14.132  11.897   6.904  0.1653  0.1245 -0.0474
 4335POPC   D2A52542  13.988  12.064   6.496 -0.0945 -0.0712 -0.1331
 4335POPC   C3A52543  13.981  12.486   6.535 -0.1929 -0.1668  0.2512
 4335POPC   C4A52544  13.656  12.786   6.486 -0.0284  0.1536 -0.1799
 4335POPC   C1B52545  13.444  11.267   6.830  0.0869 -0.2658 -0.0921
 4335POPC   C2B52546  13.298  11.017   6.522  0.1440  0.2423  0.0914
 4335POPC   C3B52547  13.244  10.986   6.049  0.0768  0.2500 -0.1926
 4335POPC   C4B52548  13.249  11.185   5.618 -0.1797  0.0049 -0.3140
 4336POPC   NC352549  16.521  27.116   7.360 -0.0140  0.2995 -0.2392
 4336POPC   PO452550  16.372  26.805   7.552  0.2350 -0.3245  0.0635
 4336POPC   GL152551  16.375  26.543   7.231  0.1911 -0.1190 -0.1439
 4336POPC   GL252552  16.587  26.609   7.095  0.2350  0.0989  0.0039
 4336POPC   C1A52553  16.490  26.092   7.154  0.0141  0.2969  0.1647
 4336POPC   D2A52554  16.742  25.740   7.253  0.1542  0.0985  0.1934
 4336POPC   C3A52555  16.699  25.369   6.967 -0.2483 -0.2121 -0.1084
 4336POPC   C4A52556  16.893  25.082   6.639 -0.2977  0.1087 -0.2443
 4336POPC   C1B52557  16.373  26.906   6.843  0.1959 -0.4375 -0.0687
 4336POPC   C2B52558  16.127  27.150   6.572  0.0565  0.1175 -0.3470
 4336POPC   C3B52559  15.970  27.120   6.191 -0.1288  0.1104  0.0441
 4336POPC   C4B52560  15.901  27.048   5.700 -0.0017  0.3535  0.1005
 4337POPC   NC352561  12.528  11.503   7.801 -0.1467  0.3542  0.2305
 4337POPC   PO452562  12.518  11.232   7.500  0.3394  0.0186  0.0421
 4337POPC   GL152563  12.435  11.260   7.101 -0.3703  0.0528 -0.1162
 4337POPC   GL252564  12.181  11.364   7.024 -0.0888 -0.3368 -0.0138
 4337POPC   C1A52565  12.383  11.193   6.638 -0.2820 -0.0467 -0.1964
 4337POPC   D2A52566  12.461  11.130   6.148  0.2422 -0.2684  0.0988
 4337POPC   C3A52567  12.829  11.118   5.826 -0.0328 -0.0545  0.2142
 4337POPC   C4A52568  12.776  10.875   5.369 -0.1320 -0.1144  0.1377
 4337POPC   C1B52569  12.067  11.779   6.759 -0.1438 -0.1472  0.0853
 4337POPC   C2B52570  11.755  11.971   6.536  0.0775  0.0095 -0.1273
 4337POPC   C3B52571  11.399  12.121   6.194 -0.0221  0.0339  0.0519
 4337POPC   C4B52572  10.994  12.318   6.070  0.1520  0.1580  0.1494
 4338POPC   NC352573   4.179  30.609   7.648  0.0658 -0.2701 -0.0900
 4338POPC   PO452574   4.314  30.236   7.684  0.1845 -0.2571  0.0226
 4338POPC   GL152575   4.194  30.273   7.302 -0.1340  0.1103  0.0254
 4338POPC   GL252576   4.518  30.271   7.220  0.1891  0.0265  0.0251
 4338POPC   C1A52577   4.235  30.511   6.901 -0.1577  0.2383  0.1912
 4338POPC   D2A52578   4.119  30.703   6.473  0.1199  0.3250  0.0767
 4338POPC   C3A52579   3.954  30.519   6.050 -0.0741 -0.1053 -0.2985
 4338POPC   C4A52580   3.908  30.431   5.621  0.1859  0.0983  0.0824
 4338POPC   C1B52581   4.427  30.030   6.843 -0.1122  0.0722  0.0241
 4338POPC   C2B52582   4.305  30.204   6.450  0.0193  0.0613  0.0940
 4338POPC   C3B52583   4.068  30.041   6.115 -0.0080  0.1976  0.3066
 4338POPC   C4B52584   3.683  30.084   5.950 -0.0800  0.0782 -0.2114
 4339POPC   NC352585  13.666  23.271   7.754 -0.2733 -0.1141  0.0617
 4339POPC   PO452586  13.616  23.522   7.999  0.0359 -0.1658 -0.1108
 4339POPC   GL152587  13.397  23.633   7.633  0.1111  0.0061 -0.0838
 4339POPC   GL252588  13.248  23.666   7.335 -0.1474 -0.0153 -0.0542
 4339POPC   C1A52589  13.647  23.984   7.494  0.0480 -0.1292  0.1516
 4339POPC   D2A52590  13.965  24.080   7.122  0.2389  0.0033  0.0888
 4339POPC   C3A52591  13.778  24.085   6.652  0.2479  0.1469 -0.0625
 4339POPC   C4A52592  13.644  23.918   6.253 -0.0193  0.1612 -0.0993
 4339POPC   C1B52593  13.550  23.713   7.009  0.1308  0.0146 -0.0591
 4339POPC   C2B52594  13.875  23.580   6.676  0.4286 -0.0238 -0.0814
 4339POPC   C3B52595  14.104  23.284   6.344  0.4390  0.2241  0.2112
 4339POPC   C4B52596  14.498  23.301   6.047  0.3149 -0.2095 -0.3276
 4340POPC   NC352597  31.613   4.507   8.103  0.1379  0.0920 -0.1735
 4340POPC   PO452598  31.938   4.605   7.911 -0.3469 -0.1108 -0.0717
 4340POPC   GL152599  31.894   4.640   7.544 -0.0307 -0.1625 -0.4083
 4340POPC   GL252600  31.847   4.967   7.575  0.1420  0.0482  0.0701
 4340POPC   C1A52601  31.950   4.308   7.239 -0.0001 -0.2994  0.1162
 4340POPC   D2A52602  32.012   3.910   7.022 -0.0768  0.0657  0.0332
 4340POPC   C3A52603  32.387   3.733   6.818  0.0932 -0.0762  0.1267
 4340POPC   C4A52604  32.506   3.913   6.388 -0.0578  0.0596 -0.1245
 4340POPC   C1B52605  32.106   5.123   7.163  0.4321  0.2577  0.0025
 4340POPC   C2B52606  32.210   5.226   6.760  0.0045  0.2284  0.1634
 4340POPC   C3B52607  32.491   5.299   6.391  0.1677  0.1067 -0.0650
 4340POPC   C4B52608  32.823   5.151   6.127  0.1759  0.1216  0.0336
 4341POPC   NC352609  27.963  26.637   8.311  0.0362  0.0982  0.0871
 4341POPC   PO452610  28.271  26.468   8.156  0.1508  0.3044 -0.0082
 4341POPC   GL152611  28.209  26.450   7.706 -0.1096 -0.0181 -0.1287
 4341POPC   GL252612  28.465  26.550   7.696  0.0094 -0.0154 -0.5264
 4341POPC   C1A52613  28.127  26.374   7.256  0.0373  0.0481  0.1205
 4341POPC   D2A52614  28.185  26.376   6.829 -0.0811 -0.1525 -0.0380
 4341POPC   C3A52615  27.957  26.393   6.429  0.0015 -0.0996 -0.0289
 4341POPC   C4A52616  28.040  26.338   5.923 -0.2625  0.1540  0.0756
 4341POPC   C1B52617  28.453  26.693   7.260  0.0460 -0.1758  0.1333
 4341POPC   C2B52618  28.716  26.796   6.892  0.3932  0.0177  0.0088
 4341POPC   C3B52619  29.182  26.921   6.861  0.1352  0.2035 -0.1275
 4341POPC   C4B52620  29.554  27.104   6.668  0.2262 -0.1508  0.1144
 4342POPC   NC352621   2.930  13.856   8.518  0.1038 -0.1106  0.2876
 4342POPC   PO452622   2.690  14.118   8.440  0.3472 -0.1713  0.2689
 4342POPC   GL152623   2.732  13.861   8.123  0.0918  0.0702 -0.0164
 4342POPC   GL252624   2.769  14.089   7.894  0.1783 -0.0115 -0.1361
 4342POPC   C1A52625   2.465  13.687   7.861 -0.0079  0.1311  0.2768
 4342POPC   D2A52626   2.139  13.486   7.595  0.0137  0.1725  0.2809
 4342POPC   C3A52627   2.212  13.094   7.421  0.0320 -0.1393 -0.0274
 4342POPC   C4A52628   2.117  12.708   7.176  0.0260  0.0335  0.3299
 4342POPC   C1B52629   2.770  13.877   7.507  0.1327 -0.4625  0.2522
 4342POPC   C2B52630   2.773  13.432   7.290  0.0291 -0.0834 -0.1845
 4342POPC   C3B52631   3.107  13.314   6.941  0.3302 -0.0366  0.1055
 4342POPC   C4B52632   3.412  13.221   6.568 -0.0635  0.1503 -0.3067
 4343POPC   NC352633   3.264  18.815   7.838 -0.1979 -0.2171 -0.1569
 4343POPC   PO452634   2.924  18.591   7.840  0.0678 -0.0548 -0.3474
 4343POPC   GL152635   3.051  18.677   7.433  0.0918  0.1873  0.1240
 4343POPC   GL252636   2.947  18.954   7.220 -0.0957  0.0588  0.1411
 4343POPC   C1A52637   2.771  18.514   7.068 -0.0304 -0.2566 -0.0125
 4343POPC   D2A52638   2.484  18.638   6.655  0.2651 -0.1672 -0.0205
 4343POPC   C3A52639   2.478  18.608   6.162 -0.1543  0.0806 -0.1493
 4343POPC   C4A52640   2.454  18.664   5.696  0.1150 -0.1912 -0.2873
 4343POPC   C1B52641   2.895  18.866   6.756  0.1539  0.0600 -0.3787
 4343POPC   C2B52642   2.922  18.861   6.351  0.1527 -0.0038  0.1539
 4343POPC   C3B52643   2.891  18.606   5.922  0.1596 -0.1057 -0.3619
 4343POPC   C4B52644   2.835  18.354   5.536 -0.1732 -0.1877 -0.1179
 4344POPC   NC352645  12.693  20.654   7.400 -0.0204  0.0637  0.0075
 4344POPC   PO452646  12.284  20.562   7.410  0.1196 -0.1969 -0.1580
 4344POPC   GL152647  12.445  20.799   7.067 -0.1396 -0.1932 -0.2396
 4344POPC   GL252648  12.412  21.016   7.219  0.3014 -0.2236 -0.0782
 4344POPC   C1A52649  12.350  20.875   6.619 -0.1266 -0.1451  0.0395
 4344POPC   D2A52650  12.294  21.029   6.164 -0.3274 -0.0270  0.2384
 4344POPC   C3A52651  12.077  20.815   5.775  0.1330 -0.0506  0.1412
 4344POPC   C4A52652  11.620  20.771   5.579 -0.1111  0.0129  0.0042
 4344POPC   C1B52653  12.569  21.252   6.869  0.2431  0.2032  0.3131
 4344POPC   C2B52654  12.538  21.508   6.497 -0.2061  0.0263 -0.1811
 4344POPC   C3B52655  12.614  21.517   6.045  0.4652 -0.0336 -0.0912
 4344POPC   C4B52656  12.544  21.212   5.791  0.2760 -0.3465  0.3194
 4345POPC   NC352657  28.343  25.242   7.580  0.2342 -0.1916 -0.0387
 4345POPC   PO452658  28.004  25.454   7.537 -0.0356 -0.1043 -0.0868
 4345POPC   GL152659  28.115  25.567   7.158 -0.2630  0.2250 -0.1146
 4345POPC   GL252660  27.983  25.887   7.163 -0.1121  0.2786 -0.0116
 4345POPC   C1A52661  28.262  25.532   6.735 -0.0839  0.2225  0.0036
 4345POPC   D2A52662  28.438  25.563   6.272 -0.3078  0.0106 -0.3701
 4345POPC   C3A52663  28.470  25.400   5.831  0.0656  0.0950  0.0935
 4345POPC   C4A52664  28.199  25.223   5.493 -0.2413 -0.1288 -0.1781
 4345POPC   C1B52665  27.964  25.974   6.714 -0.2669  0.2755  0.0261
 4345POPC   C2B52666  28.068  25.903   6.289 -0.0669  0.0650  0.2545
 4345POPC   C3B52667  28.427  26.084   6.048  0.0487 -0.0759  0.0157
 4345POPC   C4B52668  28.554  26.252   5.620 -0.3358 -0.2689  0.0985
 4346POPC   NC352669  18.541  23.306   7.400 -0.2391 -0.2622  0.0970
 4346POPC   PO452670  18.179  23.299   7.535 -0.2586  0.1068  0.1146
 4346POPC   GL152671  18.170  23.170   7.235  0.0560  0.3743 -0.2125
 4346POPC   GL252672  18.300  22.984   7.069  0.2535  0.0182  0.1499
 4346POPC   C1A52673  18.376  23.444   6.867  0.3554  0.3771 -0.2389
 4346POPC   D2A52674  18.419  23.389   6.351  0.0084 -0.0686 -0.4314
 4346POPC   C3A52675  18.264  22.980   6.219 -0.1300  0.1242  0.0234
 4346POPC   C4A52676  18.329  22.511   6.248 -0.3816  0.1422 -0.3993
 4346POPC   C1B52677  18.574  22.967   6.795 -0.0270 -0.2902  0.1263
 4346POPC   C2B52678  18.717  22.829   6.348 -0.1110 -0.1281  0.1469
 4346POPC   C3B52679  19.078  22.895   6.066  0.3191  0.0651 -0.1856
 4346POPC   C4B52680  19.400  22.528   5.946  0.0968 -0.0502 -0.3458
 4347POPC   NC352681   6.904  23.712   8.221 -0.0382  0.1232  0.1268
 4347POPC   PO452682   6.686  23.962   8.033  0.3067 -0.3229  0.1678
 4347POPC   GL152683   6.508  24.028   7.643 -0.2877  0.0523  0.2148
 4347POPC   GL252684   6.365  24.299   7.539  0.0836  0.0801 -0.2122
 4347POPC   C1A52685   6.506  23.819   7.229  0.4062 -0.0131  0.1410
 4347POPC   D2A52686   6.480  23.492   6.910 -0.1868 -0.2050  0.2081
 4347POPC   C3A52687   6.207  23.615   6.552 -0.0142  0.0970 -0.1769
 4347POPC   C4A52688   5.805  23.745   6.336  0.0110  0.1447  0.0158
 4347POPC   C1B52689   6.076  24.217   7.163  0.1674  0.1217  0.2184
 4347POPC   C2B52690   5.586  24.113   7.044  0.3220  0.2244  0.1077
 4347POPC   C3B52691   5.519  23.781   6.787 -0.0908  0.2303 -0.2841
 4347POPC   C4B52692   5.300  23.614   6.419  0.1903 -0.0929 -0.0796
 4348POPC   NC352693  13.060   9.861   7.583  0.3376  0.0811  0.1605
 4348POPC   PO452694  12.703   9.706   7.666  0.0360  0.1757 -0.2839
 4348POPC   GL152695  12.769   9.469   7.406 -0.3237 -0.2181 -0.1474
 4348POPC   GL252696  12.966   9.624   7.171 -0.0074 -0.1276 -0.2695
 4348POPC   C1A52697  12.438   9.404   7.061  0.0859  0.2107 -0.0484
 4348POPC   D2A52698  12.261   9.716   6.764  0.1112  0.1795 -0.0993
 4348POPC   C3A52699  11.799   9.601   6.655  0.0591  0.3487 -0.0036
 4348POPC   C4A52700  11.413   9.366   6.745  0.0739 -0.1944  0.1088
 4348POPC   C1B52701  12.764   9.598   6.759  0.3924 -0.1253  0.1237
 4348POPC   C2B52702  12.930   9.677   6.328  0.1239  0.1942  0.0504
 4348POPC   C3B52703  12.894   9.566   5.920  0.1755 -0.1473 -0.1554
 4348POPC   C4B52704  12.990   9.181   5.591 -0.1845 -0.1864 -0.0339
 4349POPC   NC352705   8.551  20.010   7.441  0.1398 -0.0533  0.0553
 4349POPC   PO452706   8.829  19.830   7.657 -0.1272  0.0299 -0.4144
 4349POPC   GL152707   8.838  19.683   7.361 -0.0694 -0.3793  0.2727
 4349POPC   GL252708   8.689  19.679   7.088 -0.2075 -0.0271  0.2787
 4349POPC   C1A52709   9.166  19.721   7.011  0.2538  0.1678 -0.2588
 4349POPC   D2A52710   9.383  19.395   6.922 -0.0366  0.2788  0.0238
 4349POPC   C3A52711   9.129  19.283   6.532 -0.0462 -0.2342  0.2760
 4349POPC   C4A52712   9.185  18.987   6.167  0.1098  0.3143  0.0259
 4349POPC   C1B52713   8.857  19.709   6.625 -0.0728 -0.0739  0.0001
 4349POPC   C2B52714   8.862  19.640   6.177  0.1266 -0.1020 -0.4795
 4349POPC   C3B52715   8.832  19.269   5.921  0.1939  0.1830 -0.0475
 4349POPC   C4B52716   8.883  18.941   5.599  0.1102 -0.2394  0.1381
 4350POPC   NC352717  18.662  26.218   7.545  0.0832  0.0758  0.0740
 4350POPC   PO452718  18.845  26.061   7.822  0.3016  0.1191  0.0461
 4350POPC   GL152719  18.960  25.785   7.571  0.0647  0.1467 -0.0745
 4350POPC   GL252720  19.024  25.517   7.711 -0.3695 -0.2352  0.3945
 4350POPC   C1A52721  19.308  25.809   7.258  0.1087  0.2750 -0.1453
 4350POPC   D2A52722  19.451  25.522   6.919 -0.0741 -0.1839 -0.0269
 4350POPC   C3A52723  19.372  25.368   6.472  0.2140 -0.2686 -0.0738
 4350POPC   C4A52724  19.374  25.234   6.085 -0.0996 -0.3861 -0.0603
 4350POPC   C1B52725  19.055  25.431   7.264 -0.0250 -0.1159  0.0336
 4350POPC   C2B52726  19.103  25.191   6.866 -0.0708  0.1071 -0.1321
 4350POPC   C3B52727  18.952  25.015   6.478 -0.0805 -0.2248 -0.0977
 4350POPC   C4B52728  18.647  24.816   6.171  0.2788 -0.1723 -0.1948
 4351POPC   NC352729  14.528  24.139   8.478  0.1974  0.0527 -0.2292
 4351POPC   PO452730  14.278  23.967   8.169  0.0227 -0.3394  0.1021
 4351POPC   GL152731  14.376  24.237   7.781 -0.0446  0.2405  0.3757
 4351POPC   GL252732  14.244  24.168   7.526 -0.1497  0.1904  0.0997
 4351POPC   C1A52733  14.724  24.475   7.565 -0.0686  0.2202  0.0657
 4351POPC   D2A52734  14.895  24.501   7.184  0.0843  0.1760  0.2134
 4351POPC   C3A52735  14.763  24.380   6.734 -0.0756 -0.2718 -0.1196
 4351POPC   C4A52736  14.609  24.104   6.422 -0.4347 -0.0672 -0.1040
 4351POPC   C1B52737  14.238  23.731   7.391  0.1396  0.2062 -0.2047
 4351POPC   C2B52738  13.977  23.433   7.281  0.1394  0.1965 -0.1340
 4351POPC   C3B52739  13.712  23.271   7.059  0.1047  0.1692  0.2107
 4351POPC   C4B52740  13.619  23.165   6.635 -0.1408  0.1760  0.0370
 4352POPC   NC352741   9.157  18.182   8.082  0.3530  0.5386 -0.0169
 4352POPC   PO452742   8.906  17.941   7.860  0.0106 -0.2855  0.4151
 4352POPC   GL152743   8.984  17.702   7.500  0.0016 -0.0408 -0.3420
 4352POPC   GL252744   9.023  17.941   7.238 -0.2302  0.1919  0.0599
 4352POPC   C1A52745   9.391  17.580   7.247 -0.2597  0.1574  0.0698
 4352POPC   D2A52746   9.510  17.576   6.852 -0.0361  0.0151 -0.2785
 4352POPC   C3A52747   9.645  17.161   6.689  0.3315 -0.0559 -0.0959
 4352POPC   C4A52748   9.393  16.876   6.378  0.0876  0.2262  0.0649
 4352POPC   C1B52749   9.099  17.889   6.778  0.1631 -0.0636  0.0015
 4352POPC   C2B52750   8.907  17.849   6.358  0.1273 -0.1075 -0.1075
 4352POPC   C3B52751   8.946  17.514   6.012 -0.2758 -0.1390  0.2989
 4352POPC   C4B52752   9.173  17.298   5.774 -0.2708  0.0347 -0.0501
 4353POPC   NC352753  15.342   4.572   7.688  0.3649  0.0323  0.1380
 4353POPC   PO452754  15.383   4.825   7.354  0.1086 -0.0032  0.0807
 4353POPC   GL152755  15.150   4.569   7.171  0.1150  0.3671  0.2207
 4353POPC   GL252756  14.954   4.585   7.343  0.2912  0.2705 -0.1745
 4353POPC   C1A52757  15.120   4.450   6.711  0.1306 -0.1517  0.0516
 4353POPC   D2A52758  15.054   4.425   6.240  0.1505  0.1640 -0.2383
 4353POPC   C3A52759  14.691   4.169   6.073 -0.2032  0.0782 -0.1943
 4353POPC   C4A52760  14.589   3.959   5.687  0.1687 -0.0759  0.1600
 4353POPC   C1B52761  14.687   4.599   6.931 -0.4649 -0.2035  0.2684
 4353POPC   C2B52762  14.702   4.694   6.469  0.0762  0.2012  0.1434
 4353POPC   C3B52763  14.513   4.734   6.026 -0.0310  0.1219  0.0389
 4353POPC   C4B52764  14.590   4.497   5.611  0.1512 -0.3277  0.0748
 4354POPC   NC352765  25.183  26.438   7.203  0.3193  0.0655 -0.0980
 4354POPC   PO452766  25.447  26.307   7.427  0.3268  0.2464 -0.1850
 4354POPC   GL152767  25.697  26.197   7.181 -0.2315 -0.1118  0.2999
 4354POPC   GL252768  25.524  26.039   6.974 -0.2949 -0.0747  0.1262
 4354POPC   C1A52769  26.002  26.191   6.874 -0.0923  0.0748  0.0259
 4354POPC   D2A52770  26.084  25.908   6.534  0.1193 -0.3701  0.1753
 4354POPC   C3A52771  26.375  25.885   6.162  0.0712  0.1872  0.0957
 4354POPC   C4A52772  26.311  25.857   5.709 -0.2714  0.1300 -0.0137
 4354POPC   C1B52773  25.342  26.327   6.721 -0.0866 -0.0349 -0.1612
 4354POPC   C2B52774  25.325  26.247   6.254 -0.1520  0.2200 -0.2340
 4354POPC   C3B52775  25.506  26.192   5.840  0.0665  0.0225 -0.0252
 4354POPC   C4B52776  25.827  25.932   5.623  0.0714  0.1007 -0.4209
 4355POPC   NC352777  20.672   3.131   7.841 -0.2158  0.0474  0.1170
 4355POPC   PO452778  20.535   3.508   7.722 -0.0906 -0.1566 -0.2082
 4355POPC   GL152779  20.246   3.638   7.408  0.0863 -0.3242  0.1661
 4355POPC   GL252780  20.475   3.787   7.204 -0.0681  0.2155 -0.0317
 4355POPC   C1A52781  20.111   3.529   6.948  0.0099 -0.0355 -0.0343
 4355POPC   D2A52782  20.113   3.389   6.521  0.0929 -0.1394  0.1702
 4355POPC   C3A52783  19.955   3.556   6.075 -0.1171 -0.2186 -0.1027
 4355POPC   C4A52784  19.927   3.392   5.665  0.3260  0.3120 -0.0952
 4355POPC   C1B52785  20.523   3.709   6.764 -0.3099  0.1856  0.3766
 4355POPC   C2B52786  20.554   3.501   6.333  0.1435  0.0331 -0.0193
 4355POPC   C3B52787  20.332   3.296   5.952 -0.0225 -0.0203  0.0498
 4355POPC   C4B52788  20.364   3.185   5.525  0.1072 -0.0494  0.1832
 4356POPC   NC352789  28.419   7.186   7.959  0.2070  0.0868  0.2441
 4356POPC   PO452790  28.257   6.905   7.738 -0.2543 -0.4117  0.1815
 4356POPC   GL152791  28.328   6.726   7.361  0.1131  0.2683  0.0251
 4356POPC   GL252792  28.365   6.937   7.153 -0.2214  0.0316 -0.0050
 4356POPC   C1A52793  28.079   6.668   6.923  0.1972 -0.3274  0.1886
 4356POPC   D2A52794  27.856   6.528   6.559  0.1327  0.2182 -0.0142
 4356POPC   C3A52795  27.851   6.535   6.076 -0.0173 -0.1342 -0.1017
 4356POPC   C4A52796  28.191   6.491   5.766 -0.0364 -0.1642  0.2251
 4356POPC   C1B52797  28.480   6.985   6.705 -0.0543 -0.4525  0.0347
 4356POPC   C2B52798  28.309   6.679   6.445 -0.1014 -0.3054  0.0916
 4356POPC   C3B52799  28.445   6.370   6.152 -0.2425 -0.1563  0.2524
 4356POPC   C4B52800  28.758   6.326   5.836  0.0657 -0.0796 -0.2106
 4357POPC   NC352801  31.104   0.260   7.266  0.1068  0.1709  0.1474
 4357POPC   PO452802  31.481   0.362   7.352 -0.2627 -0.1772  0.1853
 4357POPC   GL152803  31.648   0.213   7.021  0.4752 -0.0085  0.0814
 4357POPC   GL252804  31.649   0.419   6.821  0.0748  0.1443 -0.0040
 4357POPC   C1A52805  31.816  -0.164   6.769 -0.0286  0.4904  0.0567
 4357POPC   D2A52806  31.907  -0.546   6.439  0.0505  0.0449  0.0158
 4357POPC   C3A52807  32.193  -0.603   6.137 -0.1254  0.1222  0.2342
 4357POPC   C4A52808  32.256  -1.046   5.944  0.0132  0.0193 -0.0838
 4357POPC   C1B52809  31.480   0.484   6.435  0.2298 -0.0471 -0.0679
 4357POPC   C2B52810  31.083   0.565   6.198  0.1714  0.3917 -0.0928
 4357POPC   C3B52811  30.756   0.308   6.023  0.2130  0.1691 -0.2367
 4357POPC   C4B52812  30.357   0.356   6.156  0.2760  0.0308  0.1825
 4358POPC   NC352813  16.031  27.553   7.425 -0.0364 -0.0656 -0.1381
 4358POPC   PO452814  16.127  27.851   7.590  0.0679 -0.0144  0.5854
 4358POPC   GL152815  16.365  27.824   7.218  0.1366  0.2474  0.2796
 4358POPC   GL252816  16.115  27.875   7.016 -0.3334  0.1086  0.1388
 4358POPC   C1A52817  16.531  28.017   6.821  0.0893  0.1256  0.0881
 4358POPC   D2A52818  16.683  28.025   6.403 -0.1803  0.0917  0.0273
 4358POPC   C3A52819  16.563  27.911   6.025 -0.0581  0.0011  0.1506
 4358POPC   C4A52820  16.426  27.697   5.644 -0.1231  0.0575 -0.2320
 4358POPC   C1B52821  15.946  27.588   6.674 -0.2401 -0.0575 -0.0887
 4358POPC   C2B52822  15.851  27.577   6.211 -0.1459  0.0203  0.1660
 4358POPC   C3B52823  15.961  27.503   5.812  0.3073  0.0279  0.1755
 4358POPC   C4B52824  16.121  27.479   5.372 -0.1002  0.2215 -0.1766
 4359POPC   NC352825  24.620   3.288   7.723 -0.2893  0.1882  0.0332
 4359POPC   PO452826  24.634   2.920   7.812  0.1474  0.1189 -0.3323
 4359POPC   GL152827  24.807   2.641   7.629  0.2473  0.0870 -0.0829
 4359POPC   GL252828  24.824   2.784   7.363 -0.1236 -0.0733  0.1044
 4359POPC   C1A52829  25.218   2.425   7.460  0.1567  0.0144  0.0381
 4359POPC   D2A52830  25.678   2.313   7.395 -0.1144 -0.3462  0.0509
 4359POPC   C3A52831  25.758   2.759   7.174 -0.2047  0.1915 -0.1273
 4359POPC   C4A52832  25.738   3.168   6.945  0.0103  0.0897  0.0363
 4359POPC   C1B52833  24.936   2.527   7.015 -0.0795  0.1315 -0.1158
 4359POPC   C2B52834  25.376   2.410   6.936  0.0175 -0.4348 -0.2697
 4359POPC   C3B52835  25.381   2.279   6.499  0.2436  0.2900  0.1884
 4359POPC   C4B52836  25.149   2.264   6.100 -0.0538  0.0099  0.0511
 4360POPC   NC352837   8.839   8.910   7.976  0.2031 -0.1025 -0.0508
 4360POPC   PO452838   9.222   8.872   7.840 -0.0934  0.0688  0.1329
 4360POPC   GL152839   9.221   8.690   7.525 -0.3210 -0.0449 -0.1566
 4360POPC   GL252840   9.405   8.531   7.424  0.0040  0.0095 -0.0213
 4360POPC   C1A52841   8.946   8.699   7.178 -0.0055  0.2527 -0.2865
 4360POPC   D2A52842   8.596   8.425   7.013 -0.0631 -0.1291 -0.0703
 4360POPC   C3A52843   8.678   8.225   6.597 -0.0295 -0.0060 -0.0114
 4360POPC   C4A52844   8.728   8.154   6.151 -0.0675 -0.1213  0.0893
 4360POPC   C1B52845   9.479   8.622   6.987  0.1903 -0.0340 -0.2300
 4360POPC   C2B52846   9.665   8.792   6.608 -0.0471  0.1422 -0.0180
 4360POPC   C3B52847   9.754   8.529   6.205  0.0710  0.0587 -0.2001
 4360POPC   C4B52848   9.900   8.130   5.943  0.1613  0.0924 -0.2345
 4361POPC   NC352849  26.955  19.051   7.415 -0.0863  0.0099  0.2647
 4361POPC   PO452850  26.886  18.733   7.636 -0.2185 -0.0400  0.1226
 4361POPC   GL152851  26.566  18.740   7.397 -0.4310 -0.5643 -0.0143
 4361POPC   GL252852  26.403  18.899   7.567  0.1380  0.1463  0.0157
 4361POPC   C1A52853  26.519  18.656   6.956 -0.2737 -0.0155  0.0206
 4361POPC   D2A52854  26.374  18.519   6.511 -0.0827 -0.0348  0.4477
 4361POPC   C3A52855  26.264  18.839   6.205  0.1764  0.0501  0.0088
 4361POPC   C4A52856  25.948  19.078   5.926 -0.0043 -0.0133 -0.2183
 4361POPC   C1B52857  26.105  18.890   7.216  0.1064  0.1053  0.0532
 4361POPC   C2B52858  26.043  18.855   6.715 -0.0139 -0.3383 -0.2640
 4361POPC   C3B52859  25.899  19.211   6.372 -0.1718  0.1390  0.1750
 4361POPC   C4B52860  25.526  19.316   6.149 -0.0353 -0.0597 -0.1876
 4362POPC   NC352861  10.675  18.781   7.911  0.1444  0.0407  0.0354
 4362POPC   PO452862  10.453  18.486   7.812 -0.0227 -0.0534 -0.0201
 4362POPC   GL152863  10.431  18.333   7.425 -0.2665 -0.1132 -0.0743
 4362POPC   GL252864  10.537  18.067   7.377 -0.0927  0.0142  0.4136
 4362POPC   C1A52865  10.686  18.546   7.115  0.0009 -0.0286 -0.1741
 4362POPC   D2A52866  11.145  18.559   6.993  0.2732  0.1011 -0.1895
 4362POPC   C3A52867  11.245  18.569   6.556  0.3535 -0.2549 -0.1009
 4362POPC   C4A52868  11.346  18.478   6.116 -0.0693 -0.1821  0.0735
 4362POPC   C1B52869  10.390  18.187   6.950  0.2149 -0.0483  0.2919
 4362POPC   C2B52870  10.182  18.174   6.488 -0.0560 -0.0016 -0.0692
 4362POPC   C3B52871   9.945  17.914   6.126  0.0488  0.0963 -0.3787
 4362POPC   C4B52872  10.039  17.710   5.717 -0.2094  0.2380  0.1236
 4363POPC   NC352873  21.348  16.987   7.488 -0.1969 -0.1355 -0.2429
 4363POPC   PO452874  21.442  17.371   7.642 -0.0385 -0.0621 -0.2112
 4363POPC   GL152875  21.536  17.570   7.368  0.4074 -0.0268  0.1159
 4363POPC   GL252876  21.874  17.592   7.327 -0.2087 -0.0324  0.0720
 4363POPC   C1A52877  21.553  17.339   6.956  0.1207  0.1530 -0.1888
 4363POPC   D2A52878  21.527  17.098   6.551  0.7058 -0.0629  0.1221
 4363POPC   C3A52879  21.669  17.241   6.180 -0.1563  0.2935 -0.1748
 4363POPC   C4A52880  21.979  17.544   6.128 -0.4483 -0.3082 -0.1184
 4363POPC   C1B52881  22.060  17.852   7.030  0.1796  0.0098 -0.3529
 4363POPC   C2B52882  21.794  18.007   6.682 -0.1031  0.0258 -0.2814
 4363POPC   C3B52883  21.982  18.013   6.253  0.1585  0.1280 -0.0218
 4363POPC   C4B52884  22.188  18.013   5.872  0.0796 -0.4314  0.0841
 4364POPC   NC352885   2.317  14.127   8.097  0.1507  0.0444 -0.3830
 4364POPC   PO452886   2.385  14.523   8.025  0.0465 -0.2679  0.1519
 4364POPC   GL152887   2.567  14.476   7.662 -0.3618  0.0529 -0.8891
 4364POPC   GL252888   2.349  14.580   7.447 -0.3053 -0.2456  0.1588
 4364POPC   C1A52889   2.964  14.395   7.423  0.1510 -0.0486  0.1751
 4364POPC   D2A52890   3.126  14.180   7.074  0.1959 -0.0627  0.1350
 4364POPC   C3A52891   3.342  14.376   6.691  0.0768 -0.0502  0.0659
 4364POPC   C4A52892   3.515  14.119   6.333 -0.0667 -0.1284 -0.2687
 4364POPC   C1B52893   2.080  14.340   7.112  0.0889 -0.0518 -0.0283
 4364POPC   C2B52894   2.155  14.150   6.740 -0.0983 -0.0139  0.0443
 4364POPC   C3B52895   2.446  14.072   6.357 -0.1780 -0.0560  0.1355
 4364POPC   C4B52896   2.665  14.290   5.997 -0.0880 -0.0524  0.1444
 4365POPC   NC352897  26.205  30.200   7.632 -0.2022  0.1975 -0.0479
 4365POPC   PO452898  26.482  29.955   7.533 -0.1136  0.3247  0.1078
 4365POPC   GL152899  26.542  29.887   7.200  0.0807 -0.0083  0.1783
 4365POPC   GL252900  26.358  29.610   7.173  0.1087 -0.2416 -0.0034
 4365POPC   C1A52901  26.596  29.713   6.791 -0.3320  0.0199  0.1420
 4365POPC   D2A52902  26.623  29.497   6.379 -0.0028  0.0385 -0.1902
 4365POPC   C3A52903  26.247  29.275   6.166 -0.2569 -0.1444  0.2272
 4365POPC   C4A52904  25.925  29.005   5.922 -0.1488  0.1737  0.1967
 4365POPC   C1B52905  26.197  29.402   6.747  0.0807 -0.0476  0.0896
 4365POPC   C2B52906  25.852  29.477   6.431 -0.0303 -0.0256 -0.3501
 4365POPC   C3B52907  25.489  29.306   6.179  0.0248 -0.0106 -0.0415
 4365POPC   C4B52908  25.144  28.976   6.243  0.6477  0.1081 -0.1053
 4366POPC   NC352909  30.619  17.200   7.608 -0.1778  0.0484  0.3183
 4366POPC   PO452910  30.453  17.543   7.500  0.0830 -0.1716  0.1889
 4366POPC   GL152911  30.426  17.400   7.208 -0.1833 -0.2044 -0.2730
 4366POPC   GL252912  30.242  17.330   7.007  0.0674  0.2117 -0.3129
 4366POPC   C1A52913  30.693  17.538   6.886 -0.0224 -0.0652  0.0969
 4366POPC   D2A52914  30.777  17.534   6.424 -0.1158 -0.1353 -0.2526
 4366POPC   C3A52915  31.109  17.743   6.112  0.1369 -0.0474  0.3790
 4366POPC   C4A52916  31.383  17.637   5.706 -0.0173  0.2252 -0.0369
 4366POPC   C1B52917  30.287  17.264   6.577 -0.1493 -0.1097  0.0701
 4366POPC   C2B52918  30.426  17.281   6.093  0.0638  0.2605  0.0266
 4366POPC   C3B52919  30.745  17.404   5.828 -0.1894 -0.1350 -0.1214
 4366POPC   C4B52920  31.026  17.281   5.486  0.2610 -0.0619  0.3191
 4367POPC   NC352921   0.546  27.344   8.018 -0.1557 -0.2215 -0.2267
 4367POPC   PO452922   0.247  27.541   7.860  0.1193 -0.0073  0.1649
 4367POPC   GL152923   0.470  27.529   7.543  0.0182 -0.3755 -0.2098
 4367POPC   GL252924   0.786  27.572   7.641  0.1808  0.1536  0.1434
 4367POPC   C1A52925   0.533  27.705   7.143 -0.0473  0.0833  0.2101
 4367POPC   D2A52926   0.502  27.835   6.715 -0.3900  0.0812 -0.2316
 4367POPC   C3A52927   0.729  27.645   6.331  0.1360  0.0250 -0.0264
 4367POPC   C4A52928   0.909  27.667   5.910 -0.3378  0.2829 -0.0650
 4367POPC   C1B52929   0.581  27.994   7.526  0.1466 -0.0881 -0.3044
 4367POPC   C2B52930   0.333  28.342   7.629 -0.1793  0.1999 -0.1451
 4367POPC   C3B52931   0.183  28.646   7.900  0.3040 -0.0753  0.0978
 4367POPC   C4B52932   0.033  28.989   8.154  0.1113  0.1155  0.2236
 4368POPC   NC352933  18.503  28.933   8.363  0.0724  0.2292 -0.1163
 4368POPC   PO452934  18.784  28.840   8.125 -0.2002  0.0548  0.0229
 4368POPC   GL152935  18.690  28.734   7.716 -0.0567  0.4190  0.3159
 4368POPC   GL252936  18.603  28.448   7.607 -0.1847  0.0085  0.0179
 4368POPC   C1A52937  18.905  28.838   7.274 -0.1185  0.1610 -0.1976
 4368POPC   D2A52938  18.974  28.519   6.941 -0.0234  0.1688 -0.0918
 4368POPC   C3A52939  19.253  28.137   6.965 -0.0192 -0.0551 -0.0418
 4368POPC   C4A52940  19.167  27.722   7.082 -0.0345  0.0217 -0.0842
 4368POPC   C1B52941  18.604  28.452   7.167 -0.0756  0.2761  0.1381
 4368POPC   C2B52942  18.440  28.497   6.729  0.1688  0.1147  0.1138
 4368POPC   C3B52943  18.271  28.494   6.309 -0.0893  0.1186  0.3226
 4368POPC   C4B52944  17.975  28.319   6.037  0.1116  0.1656  0.2961
 4369POPC   NC352945   5.928  10.636   7.491 -0.0155 -0.3372  0.0264
 4369POPC   PO452946   5.590  10.428   7.571  0.0635  0.1838  0.0550
 4369POPC   GL152947   5.605  10.354   7.248 -0.2301 -0.2830  0.1127
 4369POPC   GL252948   5.517  10.477   6.971 -0.2305  0.0708 -0.4320
 4369POPC   C1A52949   5.639   9.986   6.979 -0.2276  0.1455 -0.0702
 4369POPC   D2A52950   5.351   9.879   6.629  0.0723 -0.0327  0.3649
 4369POPC   C3A52951   5.447   9.646   6.251 -0.0423 -0.0825 -0.0787
 4369POPC   C4A52952   5.536   9.381   5.932 -0.2949  0.2728  0.2853
 4369POPC   C1B52953   5.493  10.389   6.481 -0.0489  0.1275  0.1423
 4369POPC   C2B52954   5.679  10.455   6.055 -0.1602  0.1463 -0.3561
 4369POPC   C3B52955   5.632  10.449   5.595 -0.0422 -0.2823 -0.1950
 4369POPC   C4B52956   5.871  10.192   5.254  0.3260  0.4310  0.1634
 4370POPC   NC352957  10.211  18.953   7.757 -0.1646 -0.2538  0.0534
 4370POPC   PO452958  10.340  19.199   8.028  0.2977 -0.2729  0.2090
 4370POPC   GL152959  10.557  19.214   7.678 -0.2003 -0.1323  0.1342
 4370POPC   GL252960  10.676  18.995   7.480 -0.5243 -0.0057  0.0181
 4370POPC   C1A52961  10.604  19.526   7.314 -0.0983  0.1098 -0.1751
 4370POPC   D2A52962  10.694  19.885   6.991 -0.0300  0.1790  0.1020
 4370POPC   C3A52963  10.827  19.783   6.556  0.0081 -0.1224  0.4803
 4370POPC   C4A52964  10.977  19.835   6.104 -0.2148 -0.4701  0.1752
 4370POPC   C1B52965  10.794  19.012   7.029 -0.2936 -0.0851 -0.0907
 4370POPC   C2B52966  10.754  18.790   6.635  0.1755  0.2163  0.1629
 4370POPC   C3B52967  10.898  18.848   6.231  0.1705 -0.1324 -0.0002
 4370POPC   C4B52968  11.028  18.696   5.812 -0.2835 -0.0304  0.1615
 4371POPC   NC352969   4.493   8.081   8.023  0.0287 -0.0389 -0.3095
 4371POPC   PO452970   4.268   7.776   8.051  0.3499  0.0499 -0.1390
 4371POPC   GL152971   4.285   7.872   7.654 -0.2852  0.0638  0.1868
 4371POPC   GL252972   4.331   8.170   7.572 -0.1501  0.0157  0.0319
 4371POPC   C1A52973   4.519   7.756   7.267  0.2031 -0.1473  0.2019
 4371POPC   D2A52974   4.672   7.914   6.897  0.1689 -0.2409  0.1148
 4371POPC   C3A52975   4.918   7.751   6.554  0.0254 -0.2109 -0.3557
 4371POPC   C4A52976   4.854   7.446   6.229 -0.0412  0.1082  0.0712
 4371POPC   C1B52977   4.241   8.150   7.080 -0.0512  0.4716 -0.4134
 4371POPC   C2B52978   4.234   8.137   6.638  0.1443  0.1925 -0.0969
 4371POPC   C3B52979   4.517   8.013   6.310  0.2764  0.0291  0.2322
 4371POPC   C4B52980   4.966   8.006   6.111 -0.4071 -0.0995 -0.0784
 4372POPC   NC352981  11.055  22.610   7.837  0.2829  0.1707  0.0522
 4372POPC   PO452982  11.067  22.984   7.967  0.2218 -0.1463  0.2600
 4372POPC   GL152983  11.060  23.082   7.572  0.1175  0.4032 -0.2221
 4372POPC   GL252984  11.203  23.287   7.433 -0.0936  0.0429 -0.4271
 4372POPC   C1A52985  11.105  22.740   7.299  0.2647 -0.1312 -0.0664
 4372POPC   D2A52986  11.292  22.370   7.364 -0.0571  0.1028 -0.2142
 4372POPC   C3A52987  11.616  22.597   7.137 -0.4501  0.3292 -0.0261
 4372POPC   C4A52988  12.035  22.488   6.935  0.2095 -0.1384 -0.3704
 4372POPC   C1B52989  11.393  23.074   7.135 -0.2285 -0.1051 -0.0240
 4372POPC   C2B52990  11.618  22.928   6.775 -0.0654  0.0566 -0.1476
 4372POPC   C3B52991  11.769  22.598   6.546 -0.2423 -0.0398 -0.0930
 4372POPC   C4B52992  11.750  22.171   6.431  0.2684  0.0833 -0.1205
 4373POPC   NC352993  15.135  15.728   7.756  0.1366 -0.3986 -0.0276
 4373POPC   PO452994  14.766  15.811   7.884  0.1285 -0.0073  0.0860
 4373POPC   GL152995  14.781  15.660   7.413  0.0161  0.0213 -0.1311
 4373POPC   GL252996  14.971  15.886   7.329 -0.1267  0.2146  0.0148
 4373POPC   C1A52997  14.563  15.838   6.999 -0.0444 -0.2958 -0.0289
 4373POPC   D2A52998  14.302  16.231   6.830  0.0326 -0.3096  0.0387
 4373POPC   C3A52999  14.227  16.238   6.360 -0.1713  0.0559 -0.0550
 4373POPC   C4A53000  14.006  16.307   5.939 -0.1642  0.1590  0.0471
 4373POPC   C1B53001  15.114  15.851   6.908 -0.4025  0.0638  0.0304
 4373POPC   C2B53002  15.182  15.645   6.504  0.0871  0.0263 -0.0645
 4373POPC   C3B53003  15.153  15.453   6.085 -0.1399  0.3941  0.0223
 4373POPC   C4B53004  15.166  15.453   5.597 -0.0040 -0.0236  0.2025
 4374POPC   NC353005  10.891  14.119   7.670 -0.0169 -0.0127  0.3830
 4374POPC   PO453006  11.206  14.280   7.739  0.0999  0.3362  0.1640
 4374POPC   GL153007  11.089  14.485   7.427 -0.0698 -0.3003  0.2531
 4374POPC   GL253008  10.869  14.505   7.285 -0.0076 -0.4425 -0.2606
 4374POPC   C1A53009  11.234  14.640   6.978  0.2374  0.1783 -0.2971
 4374POPC   D2A53010  11.291  14.823   6.571  0.1316  0.1471  0.0799
 4374POPC   C3A53011  11.540  14.696   6.156  0.2181  0.0935 -0.1063
 4374POPC   C4A53012  11.539  14.473   5.752  0.0544 -0.1500 -0.2091
 4374POPC   C1B53013  10.857  14.294   6.827 -0.0765 -0.1079  0.0247
 4374POPC   C2B53014  11.085  14.087   6.419  0.1812 -0.1926  0.2019
 4374POPC   C3B53015  11.380  14.080   5.987  0.1440  0.0342 -0.0590
 4374POPC   C4B53016  11.226  14.108   5.566 -0.2447  0.1915 -0.0912
 4375POPC   NC353017   0.720  24.009   8.048  0.2240  0.0730 -0.1939
 4375POPC   PO453018   0.672  24.175   7.672  0.1397  0.0455 -0.0892
 4375POPC   GL153019   0.556  23.976   7.250 -0.1884  0.1674  0.0397
 4375POPC   GL253020   0.796  23.815   7.185 -0.0604 -0.1142  0.1992
 4375POPC   C1A53021   0.665  24.182   6.828 -0.1579  0.0915  0.3832
 4375POPC   D2A53022   0.849  24.319   6.412 -0.2414 -0.0882  0.3826
 4375POPC   C3A53023   0.819  24.072   5.992 -0.0385  0.0906  0.0992
 4375POPC   C4A53024   0.938  23.771   5.644 -0.0267  0.0453 -0.1472
 4375POPC   C1B53025   1.132  23.960   6.922 -0.0722 -0.2272 -0.2764
 4375POPC   C2B53026   1.294  24.226   6.578  0.2998  0.1936 -0.2205
 4375POPC   C3B53027   1.277  24.350   6.135 -0.2287 -0.3506 -0.1800
 4375POPC   C4B53028   1.241  24.231   5.689 -0.1100 -0.0265 -0.2323
 4376POPC   NC353029   8.444   3.656   7.752  0.1117  0.0154  0.1072
 4376POPC   PO453030   8.662   3.716   8.066 -0.2283 -0.0371  0.0977
 4376POPC   GL153031   8.794   3.408   7.790  0.0538 -0.2175 -0.0192
 4376POPC   GL253032   8.830   3.170   7.884  0.3366  0.1049 -0.0548
 4376POPC   C1A53033   8.983   3.388   7.387  0.0936  0.0994  0.0119
 4376POPC   D2A53034   8.978   3.136   7.067 -0.1290  0.0076  0.0429
 4376POPC   C3A53035   9.028   2.843   6.683  0.1325  0.1054 -0.0121
 4376POPC   C4A53036   9.371   2.742   6.349 -0.1436 -0.0285  0.0576
 4376POPC   C1B53037   8.946   2.927   7.568  0.0438  0.0928  0.0231
 4376POPC   C2B53038   9.028   2.677   7.185 -0.0829  0.3038 -0.0716
 4376POPC   C3B53039   9.200   2.330   6.934  0.0191  0.0999  0.0009
 4376POPC   C4B53040   9.240   1.887   7.081 -0.1039 -0.0967  0.1064
 4377POPC   NC353041  17.913  23.498   8.158  0.3962  0.0805  0.2200
 4377POPC   PO453042  17.802  23.649   7.803 -0.1200  0.2149 -0.2439
 4377POPC   GL153043  17.814  23.834   7.415  0.0819  0.1927 -0.2871
 4377POPC   GL253044  17.736  23.540   7.307  0.1230 -0.0703 -0.1434
 4377POPC   C1A53045  18.100  24.124   7.302  0.0083  0.0969 -0.1555
 4377POPC   D2A53046  18.535  24.212   7.155  0.1304 -0.0088  0.0166
 4377POPC   C3A53047  18.539  24.303   6.699  0.2705  0.0156  0.0406
 4377POPC   C4A53048  18.495  24.334   6.245  0.1927 -0.0794  0.1584
 4377POPC   C1B53049  17.904  23.633   6.882  0.0025 -0.1166  0.0595
 4377POPC   C2B53050  17.927  23.378   6.462  0.1797  0.2984 -0.0313
 4377POPC   C3B53051  17.918  23.245   6.018 -0.1416  0.0151 -0.1763
 4377POPC   C4B53052  18.171  23.034   5.706 -0.2479  0.0376 -0.0945
 4378POPC   NC353053  23.829   7.042   7.580  0.0342  0.1073  0.3881
 4378POPC   PO453054  24.124   7.196   7.780 -0.1345 -0.2982 -0.1544
 4378POPC   GL153055  24.288   7.294   7.451  0.0802  0.0621  0.1198
 4378POPC   GL253056  24.075   7.498   7.376 -0.1321  0.1275  0.0981
 4378POPC   C1A53057  24.620   7.529   7.282  0.0778 -0.0425 -0.0988
 4378POPC   D2A53058  24.814   7.855   7.031  0.4507  0.0476  0.0080
 4378POPC   C3A53059  25.234   7.913   6.939 -0.1049 -0.1029 -0.1716
 4378POPC   C4A53060  25.629   8.029   7.201  0.0279  0.0264 -0.3268
 4378POPC   C1B53061  24.283   7.441   6.940  0.4389 -0.0631 -0.2378
 4378POPC   C2B53062  24.425   7.411   6.536  0.3396 -0.0280  0.2169
 4378POPC   C3B53063  24.177   7.593   6.211 -0.0592  0.0732  0.0560
 4378POPC   C4B53064  24.080   7.579   5.778 -0.1317  0.1013  0.1718
 4379POPC   NC353065   7.491  24.613   8.086 -0.0041  0.1696 -0.3620
 4379POPC   PO453066   7.108  24.792   8.042 -0.0407  0.4557  0.1566
 4379POPC   GL153067   7.159  24.570   7.702  0.1151 -0.0788  0.0086
 4379POPC   GL253068   6.973  24.325   7.721 -0.1642  0.4290 -0.0789
 4379POPC   C1A53069   7.140  24.752   7.230  0.1351 -0.2914 -0.0192
 4379POPC   D2A53070   6.998  24.934   6.860 -0.1562  0.1493  0.1333
 4379POPC   C3A53071   7.388  25.047   6.634  0.1588  0.3271 -0.2885
 4379POPC   C4A53072   7.471  25.139   6.175 -0.2884  0.0199 -0.0108
 4379POPC   C1B53073   6.814  24.353   7.258  0.2753 -0.4369  0.3656
 4379POPC   C2B53074   6.485  24.522   6.993  0.1426 -0.2497 -0.2056
 4379POPC   C3B53075   6.113  24.614   6.796 -0.0433 -0.0860  0.4904
 4379POPC   C4B53076   5.707  24.714   6.819 -0.3560  0.1587 -0.1879
 4380POPC   NC353077  18.473   8.851   8.323  0.0115 -0.0355  0.2143
 4380POPC   PO453078  18.342   9.010   8.009  0.3060 -0.1352 -0.0630
 4380POPC   GL153079  18.311   8.972   7.646 -0.1634  0.2167 -0.3203
 4380POPC   GL253080  18.389   8.709   7.625  0.1871  0.0078 -0.1572
 4380POPC   C1A53081  18.471   9.205   7.276 -0.1425 -0.0595  0.0309
 4380POPC   D2A53082  18.403   9.470   6.861  0.1022 -0.1404 -0.1190
 4380POPC   C3A53083  18.534   9.411   6.423  0.1952  0.2192  0.0283
 4380POPC   C4A53084  18.466   9.321   5.995  0.1211 -0.2132 -0.0651
 4380POPC   C1B53085  18.662   8.682   7.288  0.3012  0.1021  0.0499
 4380POPC   C2B53086  19.042   8.707   7.032 -0.0667  0.0719  0.2791
 4380POPC   C3B53087  19.387   8.814   6.701  0.0650 -0.3573  0.0085
 4380POPC   C4B53088  19.570   9.135   6.450  0.1856  0.2134 -0.2386
 4381POPC   NC353089  22.779  27.782   8.111  0.3515  0.0620 -0.4348
 4381POPC   PO453090  23.024  27.524   7.951 -0.1481  0.2581  0.0317
 4381POPC   GL153091  22.857  27.902   7.656  0.1833  0.4881  0.3240
 4381POPC   GL253092  23.073  28.150   7.714 -0.0807 -0.0862 -0.0045
 4381POPC   C1A53093  22.680  27.973   7.219 -0.4670 -0.1398  0.1255
 4381POPC   D2A53094  22.447  27.867   6.829  0.2777 -0.1033  0.1672
 4381POPC   C3A53095  22.585  27.966   6.474 -0.0989  0.1171 -0.4569
 4381POPC   C4A53096  22.399  27.877   6.048  0.2026  0.0147  0.2863
 4381POPC   C1B53097  23.094  28.198   7.221 -0.0409 -0.0547 -0.1318
 4381POPC   C2B53098  22.947  28.259   6.776  0.1012 -0.0343 -0.1258
 4381POPC   C3B53099  23.016  28.234   6.332 -0.3295 -0.3970  0.0143
 4381POPC   C4B53100  22.833  28.291   5.933  0.1355  0.1163  0.0207
 4382POPC   NC353101  29.013  27.593   7.641  0.1359  0.0483  0.1073
 4382POPC   PO453102  28.733  27.285   7.774 -0.0089  0.2687 -0.0539
 4382POPC   GL153103  28.664  27.326   7.382 -0.3348  0.0072  0.0309
 4382POPC   GL253104  28.686  27.197   7.167  0.2451  0.1382  0.1712
 4382POPC   C1A53105  28.485  27.650   7.046 -0.2410  0.0723 -0.0453
 4382POPC   D2A53106  28.383  28.091   6.888 -0.0580  0.0648 -0.0064
 4382POPC   C3A53107  28.113  28.162   6.478  0.0293 -0.0789  0.0159
 4382POPC   C4A53108  28.178  28.171   6.030  0.2111 -0.0108 -0.1910
 4382POPC   C1B53109  28.852  27.297   6.750  0.1120 -0.0459  0.1028
 4382POPC   C2B53110  29.079  27.177   6.333 -0.0207  0.2658 -0.1722
 4382POPC   C3B53111  29.025  26.957   5.955 -0.3107  0.3849  0.2027
 4382POPC   C4B53112  29.380  26.954   5.619  0.2318 -0.2990 -0.2163
 4383POPC   NC353113   6.671  21.363   7.983 -0.1382 -0.1043 -0.0089
 4383POPC   PO453114   6.614  21.672   8.154 -0.0336  0.0400  0.1746
 4383POPC   GL153115   6.542  21.860   7.800 -0.2244 -0.1757 -0.0455
 4383POPC   GL253116   6.421  22.146   7.746 -0.3586 -0.2757  0.1279
 4383POPC   C1A53117   6.311  21.836   7.399  0.0827  0.1458  0.1720
 4383POPC   D2A53118   5.971  21.993   7.074  0.0988  0.2552 -0.1151
 4383POPC   C3A53119   6.109  22.248   6.669 -0.5493 -0.0781  0.0022
 4383POPC   C4A53120   6.126  22.381   6.253 -0.0919 -0.0290 -0.0327
 4383POPC   C1B53121   6.495  22.388   7.332 -0.0328  0.1495  0.0947
 4383POPC   C2B53122   6.386  22.555   6.924  0.0790  0.0934 -0.2047
 4383POPC   C3B53123   6.483  22.692   6.496 -0.1516 -0.2102 -0.4606
 4383POPC   C4B53124   6.452  22.714   6.082 -0.0432 -0.0486 -0.0631
 4384POPC   NC353125  10.549  13.544   8.131 -0.0349 -0.0012  0.0417
 4384POPC   PO453126  10.610  13.904   8.033  0.1045 -0.0257  0.3112
 4384POPC   GL153127  10.583  13.734   7.714 -0.3402 -0.0461 -0.1339
 4384POPC   GL253128  10.330  13.783   7.586  0.2883  0.2096 -0.4647
 4384POPC   C1A53129  10.942  13.650   7.406 -0.2941 -0.2158 -0.0447
 4384POPC   D2A53130  11.183  14.049   7.221  0.0220  0.0938  0.0977
 4384POPC   C3A53131  11.331  13.893   6.800  0.1910  0.1857  0.1072
 4384POPC   C4A53132  11.446  13.731   6.343  0.0619 -0.0364 -0.1126
 4384POPC   C1B53133  10.340  13.522   7.162  0.2758  0.2101 -0.2296
 4384POPC   C2B53134  10.405  13.316   6.761  0.0851  0.0230  0.2447
 4384POPC   C3B53135  10.455  13.170   6.328  0.1372  0.1457 -0.0822
 4384POPC   C4B53136  10.552  12.730   6.313 -0.1595  0.0010  0.0002
 4385POPC   NC353137  10.204  17.113   7.870 -0.2246  0.1434  0.1018
 4385POPC   PO453138  10.239  17.497   7.886  0.0505 -0.0299  0.1857
 4385POPC   GL153139  10.225  17.466   7.452 -0.1699 -0.1823  0.0078
 4385POPC   GL253140  10.373  17.266   7.415  0.1241 -0.0126  0.1652
 4385POPC   C1A53141  10.417  17.678   7.106  0.0490  0.1890  0.0959
 4385POPC   D2A53142  10.597  17.771   6.740 -0.1431  0.1398 -0.0633
 4385POPC   C3A53143  10.823  17.650   6.423  0.2960  0.1264 -0.1946
 4385POPC   C4A53144  11.024  17.748   6.010  0.1260 -0.0229  0.0216
 4385POPC   C1B53145  10.570  17.186   6.998 -0.0788 -0.0879 -0.0473
 4385POPC   C2B53146  10.526  17.288   6.624 -0.2507  0.0977 -0.0270
 4385POPC   C3B53147  10.364  17.103   6.218  0.0218  0.1582 -0.1902
 4385POPC   C4B53148  10.074  17.255   5.912  0.3227 -0.2359  0.1100
 4386POPC   NC353149  22.724  10.644   8.101  0.1304 -0.1027 -0.0232
 4386POPC   PO453150  22.913  10.749   7.786 -0.0793 -0.0692 -0.0758
 4386POPC   GL153151  22.765  10.885   7.456  0.2344 -0.1586 -0.2122
 4386POPC   GL253152  23.020  11.140   7.403  0.0201 -0.1736  0.0349
 4386POPC   C1A53153  22.832  10.681   7.035  0.1030  0.0495  0.2223
 4386POPC   D2A53154  22.903  10.924   6.624  0.2059  0.1180 -0.0890
 4386POPC   C3A53155  23.150  10.810   6.236 -0.3096 -0.0443 -0.1471
 4386POPC   C4A53156  23.206  10.677   5.795  0.2539  0.3465 -0.3935
 4386POPC   C1B53157  23.220  11.214   6.997  0.2823  0.0013  0.0218
 4386POPC   C2B53158  23.429  11.006   6.637 -0.1229 -0.0492  0.3631
 4386POPC   C3B53159  23.551  11.137   6.194  0.0333  0.2518 -0.0176
 4386POPC   C4B53160  23.552  11.309   5.777 -0.1112  0.1171  0.2884
 4387POPC   NC353161   8.457  18.556   7.780 -0.1701 -0.1967 -0.0960
 4387POPC   PO453162   8.386  18.857   7.564  0.2203 -0.1168  0.1669
 4387POPC   GL153163   8.223  18.705   7.293  0.1209 -0.1974 -0.3333
 4387POPC   GL253164   7.973  18.683   7.100 -0.0525 -0.0683  0.4264
 4387POPC   C1A53165   8.380  18.599   6.834  0.4383  0.1477  0.0183
 4387POPC   D2A53166   8.640  18.596   6.492  0.0353  0.0348  0.0931
 4387POPC   C3A53167   8.697  18.853   6.108 -0.1309  0.2213 -0.1418
 4387POPC   C4A53168   8.385  18.967   5.711 -0.0628 -0.4607  0.1057
 4387POPC   C1B53169   7.866  18.494   6.698  0.2148 -0.3052  0.1091
 4387POPC   C2B53170   7.745  18.358   6.237 -0.1039 -0.1479  0.1177
 4387POPC   C3B53171   7.794  18.023   6.001 -0.0085  0.1770  0.0031
 4387POPC   C4B53172   7.586  17.806   5.674  0.0950  0.0136 -0.0192
 4388POPC   NC353173   5.837  29.840   7.861  0.0230  0.1920  0.0159
 4388POPC   PO453174   6.055  30.162   7.816  0.1403  0.2037  0.2029
 4388POPC   GL153175   6.094  30.453   7.572 -0.0357  0.1490  0.2800
 4388POPC   GL253176   6.334  30.418   7.368 -0.1189 -0.0416 -0.0456
 4388POPC   C1A53177   5.767  30.513   7.240 -0.1294  0.1203  0.0027
 4388POPC   D2A53178   5.754  30.757   6.812 -0.0923 -0.1434 -0.0404
 4388POPC   C3A53179   5.567  30.800   6.375 -0.1402 -0.0377  0.1484
 4388POPC   C4A53180   5.559  30.781   5.934 -0.0954 -0.1303  0.1623
 4388POPC   C1B53181   6.302  30.525   6.938  0.1865  0.1130 -0.1732
 4388POPC   C2B53182   6.268  30.523   6.489 -0.0292 -0.1889  0.2028
 4388POPC   C3B53183   6.191  30.342   6.085 -0.1011  0.0468  0.0689
 4388POPC   C4B53184   6.227  30.369   5.609  0.2856  0.3024  0.2674
 4389POPC   NC353185   3.705   4.243   7.900  0.3378  0.0551 -0.3077
 4389POPC   PO453186   4.066   4.350   7.764 -0.2836  0.3362 -0.1551
 4389POPC   GL153187   3.936   4.108   7.495 -0.1739 -0.1868  0.0058
 4389POPC   GL253188   4.164   4.102   7.339  0.1343  0.2332  0.2281
 4389POPC   C1A53189   3.798   4.220   7.049  0.0682  0.0145 -0.1539
 4389POPC   D2A53190   3.899   4.388   6.644 -0.1451  0.2137  0.0413
 4389POPC   C3A53191   3.653   4.105   6.444  0.5222 -0.0475 -0.2235
 4389POPC   C4A53192   3.629   3.647   6.387 -0.1379  0.2109  0.0084
 4389POPC   C1B53193   4.382   4.097   6.945  0.0179 -0.0458 -0.1152
 4389POPC   C2B53194   4.573   3.946   6.484 -0.0302  0.0221  0.1284
 4389POPC   C3B53195   4.787   4.084   6.113 -0.2082 -0.2654  0.2486
 4389POPC   C4B53196   5.162   4.178   5.865  0.2486 -0.1739  0.1280
 4390POPC   NC353197  17.396  26.023   7.833 -0.0750 -0.3014  0.0117
 4390POPC   PO453198  17.214  26.353   7.700  0.2483  0.1375 -0.1122
 4390POPC   GL153199  17.225  26.111   7.417  0.1693 -0.2130  0.0984
 4390POPC   GL253200  16.960  26.221   7.284  0.0882  0.0312 -0.2759
 4390POPC   C1A53201  17.420  26.111   6.987 -0.2600 -0.1210 -0.2348
 4390POPC   D2A53202  17.808  26.020   6.714 -0.0559  0.1382 -0.0904
 4390POPC   C3A53203  17.739  26.221   6.346  0.1058  0.4093 -0.0766
 4390POPC   C4A53204  17.840  26.371   5.889  0.0582 -0.0201 -0.2541
 4390POPC   C1B53205  16.944  26.227   6.854 -0.1581 -0.1960  0.2808
 4390POPC   C2B53206  17.024  26.225   6.418 -0.1317  0.1521  0.3704
 4390POPC   C3B53207  16.944  26.378   6.002  0.1163  0.2495  0.2613
 4390POPC   C4B53208  16.870  26.758   5.846  0.1544 -0.0251  0.2903
 4391POPC   NC353209  23.012  14.072   7.901 -0.0748  0.0345 -0.1145
 4391POPC   PO453210  23.043  14.418   7.724 -0.0072 -0.1681 -0.0779
 4391POPC   GL153211  23.224  14.397   7.422  0.0535 -0.1953  0.1582
 4391POPC   GL253212  23.062  14.472   7.238  0.2261 -0.1543  0.1430
 4391POPC   C1A53213  23.600  14.302   7.090  0.2818  0.1793  0.0205
 4391POPC   D2A53214  23.697  14.166   6.650 -0.2574  0.2207  0.0089
 4391POPC   C3A53215  23.491  14.296   6.216  0.2804 -0.0337  0.2887
 4391POPC   C4A53216  23.772  14.522   5.975 -0.3343  0.0044 -0.0100
 4391POPC   C1B53217  23.176  14.129   6.903  0.1221 -0.0485  0.1018
 4391POPC   C2B53218  23.289  13.930   6.533 -0.0273  0.2062 -0.3274
 4391POPC   C3B53219  23.394  13.826   6.130 -0.0480  0.3986 -0.1649
 4391POPC   C4B53220  23.783  14.048   5.930  0.0916  0.0740 -0.0622
 4392POPC   NC353221  27.656  17.108   7.444 -0.1028 -0.0845 -0.3498
 4392POPC   PO453222  27.848  16.780   7.422 -0.3151 -0.0475  0.0169
 4392POPC   GL153223  28.258  16.637   7.315  0.4986  0.1690  0.1214
 4392POPC   GL253224  28.569  16.648   7.298 -0.4585  0.1730  0.1720
 4392POPC   C1A53225  28.229  16.303   6.993 -0.2583 -0.0406  0.0878
 4392POPC   D2A53226  27.983  16.301   6.606  0.0026  0.1285  0.1528
 4392POPC   C3A53227  28.151  16.039   6.250 -0.2137  0.1854  0.2080
 4392POPC   C4A53228  28.318  15.921   5.799  0.1001 -0.1729 -0.2102
 4392POPC   C1B53229  28.501  16.712   6.859 -0.0786  0.0558  0.0570
 4392POPC   C2B53230  28.390  16.519   6.446 -0.1965 -0.1565  0.1006
 4392POPC   C3B53231  28.092  16.517   6.110  0.4370  0.3589 -0.3290
 4392POPC   C4B53232  28.025  16.316   5.702 -0.0907 -0.0637  0.0356
 4393POPC   NC353233   2.737  31.434   7.708 -0.1269 -0.0708  0.1877
 4393POPC   PO453234   2.327  31.282   7.753  0.0741 -0.3154  0.0523
 4393POPC   GL153235   2.159  31.232   7.421 -0.0818 -0.5427  0.1463
 4393POPC   GL253236   2.047  31.405   7.233  0.2602 -0.2328  0.0313
 4393POPC   C1A53237   2.337  31.012   7.030  0.0247  0.2800  0.2341
 4393POPC   D2A53238   2.503  30.849   6.565  0.3906  0.1680 -0.0661
 4393POPC   C3A53239   2.323  30.566   6.207 -0.0823 -0.2247  0.1662
 4393POPC   C4A53240   2.048  30.588   5.884 -0.1689 -0.0033 -0.2724
 4393POPC   C1B53241   1.899  31.519   6.848 -0.0156 -0.0909 -0.1822
 4393POPC   C2B53242   1.846  31.488   6.424 -0.2578 -0.4195  0.0300
 4393POPC   C3B53243   1.830  31.467   5.932  0.3108  0.2396 -0.0967
 4393POPC   C4B53244   1.861  31.481   5.450 -0.2814  0.3769 -0.2494
 4394POPC   NC353245  23.205   1.798   8.257 -0.3511  0.1029 -0.0441
 4394POPC   PO453246  23.040   2.123   8.105  0.1481 -0.0996 -0.2507
 4394POPC   GL153247  23.065   1.981   7.718  0.1915 -0.3099  0.2003
 4394POPC   GL253248  22.773   1.847   7.599  0.0163 -0.0873  0.0933
 4394POPC   C1A53249  23.124   1.954   7.235  0.1628  0.0967  0.3748
 4394POPC   D2A53250  23.281   1.945   6.842 -0.0838 -0.0937  0.0054
 4394POPC   C3A53251  22.957   1.930   6.538  0.4712  0.2691  0.0196
 4394POPC   C4A53252  22.810   1.834   6.186 -0.3721  0.1182  0.1547
 4394POPC   C1B53253  22.713   1.735   7.126 -0.1069  0.2139  0.3862
 4394POPC   C2B53254  22.525   1.594   6.799 -0.0971  0.1233  0.0906
 4394POPC   C3B53255  22.597   1.302   6.472  0.0239 -0.0947 -0.1299
 4394POPC   C4B53256  22.423   1.497   6.091  0.0395 -0.1535  0.0599
 4395POPC   NC353257  25.099   4.554   7.486  0.0472  0.2268  0.1844
 4395POPC   PO453258  25.113   4.254   7.696 -0.1343  0.0386 -0.2201
 4395POPC   GL153259  25.474   4.145   7.403 -0.2822  0.2546  0.2423
 4395POPC   GL253260  25.481   4.362   7.196 -0.1255 -0.1125 -0.0585
 4395POPC   C1A53261  25.942   4.065   7.238  0.0618  0.0065  0.0445
 4395POPC   D2A53262  26.218   4.046   6.868  0.0108  0.1845 -0.2812
 4395POPC   C3A53263  26.673   4.143   6.748 -0.0631 -0.2849 -0.3686
 4395POPC   C4A53264  26.972   4.446   6.564  0.1660 -0.2377 -0.3143
 4395POPC   C1B53265  25.352   4.350   6.771  0.2163 -0.1366  0.3597
 4395POPC   C2B53266  25.403   4.280   6.324  0.1404 -0.1683  0.0107
 4395POPC   C3B53267  25.194   4.126   5.952 -0.1329  0.2809 -0.0156
 4395POPC   C4B53268  24.994   3.879   5.606  0.1327 -0.1173 -0.2385
 4396POPC   NC353269   5.375   5.115   8.201 -0.2665 -0.2067  0.0621
 4396POPC   PO453270   5.543   4.953   7.906  0.0952  0.0549 -0.1275
 4396POPC   GL153271   5.328   5.085   7.607  0.0495 -0.0780  0.3111
 4396POPC   GL253272   5.308   4.848   7.414 -0.0488  0.4586 -0.1062
 4396POPC   C1A53273   5.207   5.539   7.515  0.0063  0.1480  0.3512
 4396POPC   D2A53274   5.247   5.773   7.094  0.0530  0.3114 -0.0153
 4396POPC   C3A53275   5.203   5.734   6.618  0.0859 -0.1539 -0.3253
 4396POPC   C4A53276   5.261   5.415   6.269 -0.1733  0.0269  0.0028
 4396POPC   C1B53277   5.210   4.758   6.932  0.0984 -0.3507  0.1459
 4396POPC   C2B53278   5.215   4.855   6.467 -0.0926 -0.2655  0.4663
 4396POPC   C3B53279   5.184   4.777   6.004  0.2741 -0.0961 -0.0974
 4396POPC   C4B53280   5.281   4.618   5.598 -0.0290 -0.0264 -0.0290
 4397POPC   NC353281  21.470  10.840   7.991 -0.1648  0.0867  0.0191
 4397POPC   PO453282  21.268  11.112   8.149 -0.0548 -0.0843  0.1152
 4397POPC   GL153283  21.084  11.299   7.784 -0.1740  0.2471  0.0096
 4397POPC   GL253284  21.052  10.969   7.692  0.0031 -0.1905 -0.1249
 4397POPC   C1A53285  21.271  11.358   7.391 -0.0147 -0.0247  0.2665
 4397POPC   D2A53286  21.379  11.433   6.930 -0.1206 -0.1962  0.2079
 4397POPC   C3A53287  21.472  11.383   6.438  0.0654  0.0226  0.1416
 4397POPC   C4A53288  21.544  11.303   5.992  0.1337 -0.1470 -0.0963
 4397POPC   C1B53289  20.844  11.011   7.273 -0.1514 -0.1198  0.0093
 4397POPC   C2B53290  20.615  11.119   6.854  0.2476 -0.1437  0.0438
 4397POPC   C3B53291  20.442  10.964   6.398 -0.0138  0.2512  0.3289
 4397POPC   C4B53292  20.752  10.995   6.055 -0.1062 -0.1316 -0.1917
 4398POPC   NC353293  24.031  12.162   7.906  0.0579 -0.2391  0.0333
 4398POPC   PO453294  24.244  11.846   7.962 -0.3784 -0.2292 -0.2482
 4398POPC   GL153295  24.404  11.990   7.577  0.0522  0.0531 -0.1108
 4398POPC   GL253296  24.212  12.088   7.411  0.1717  0.1692  0.0351
 4398POPC   C1A53297  24.552  11.701   7.264 -0.0589  0.2922 -0.0555
 4398POPC   D2A53298  24.483  11.316   6.980  0.4383 -0.1225 -0.0059
 4398POPC   C3A53299  24.433  11.220   6.520 -0.3398 -0.2172  0.3580
 4398POPC   C4A53300  24.441  11.040   6.097 -0.0595  0.0854  0.2771
 4398POPC   C1B53301  24.385  12.210   7.002  0.5008 -0.1283  0.0247
 4398POPC   C2B53302  24.408  12.294   6.593 -0.0732 -0.1364 -0.0171
 4398POPC   C3B53303  24.324  12.481   6.210 -0.3268  0.1012 -0.3730
 4398POPC   C4B53304  24.377  12.807   5.905 -0.1889  0.4836  0.0330
 4399POPC   NC353305  31.386  27.063   8.186  0.1966 -0.0250  0.3165
 4399POPC   PO453306  31.509  26.945   7.846 -0.0951  0.0166  0.1406
 4399POPC   GL153307  31.755  26.891   7.482 -0.1525  0.0268 -0.5061
 4399POPC   GL253308  31.770  27.213   7.502  0.0959  0.2749  0.1802
 4399POPC   C1A53309  31.672  27.003   7.030  0.1387  0.0062 -0.1815
 4399POPC   D2A53310  31.726  26.929   6.633  0.2366  0.4147 -0.1114
 4399POPC   C3A53311  31.533  27.287   6.414  0.1248 -0.0601 -0.0368
 4399POPC   C4A53312  31.230  27.321   6.104  0.0633 -0.0058  0.0344
 4399POPC   C1B53313  31.699  27.467   7.157 -0.2334 -0.1176 -0.0131
 4399POPC   C2B53314  31.767  27.585   6.706  0.2118 -0.3735 -0.2082
 4399POPC   C3B53315  31.819  27.764   6.306  0.2325  0.0746  0.1609
 4399POPC   C4B53316  31.628  27.670   5.884 -0.2880  0.0057 -0.1093
 4400POPC   NC353317   9.410  10.433   7.726 -0.1279 -0.3332  0.2039
 4400POPC   PO453318   9.581  10.503   8.060 -0.1831  0.3718  0.3551
 4400POPC   GL153319   9.791  10.674   7.760 -0.2309  0.0850  0.0863
 4400POPC   GL253320   9.928  10.939   7.744 -0.1364  0.0064 -0.2064
 4400POPC   C1A53321   9.900  10.387   7.390 -0.1878  0.0463  0.2263
 4400POPC   D2A53322  10.042   9.942   7.306  0.2727  0.0486  0.1137
 4400POPC   C3A53323   9.975   9.736   6.865  0.1018  0.1799 -0.2342
 4400POPC   C4A53324   9.627   9.712   6.555  0.0288 -0.2306  0.0061
 4400POPC   C1B53325  10.065  10.841   7.311 -0.1636  0.2656  0.2828
 4400POPC   C2B53326  10.129  11.057   6.937 -0.1391 -0.2497  0.1899
 4400POPC   C3B53327   9.959  11.214   6.561 -0.2955  0.0866 -0.0730
 4400POPC   C4B53328   9.867  11.442   6.182  0.3082  0.1526  0.2102
 4401POPC   NC353329   8.200  15.666   7.678 -0.0171  0.1793 -0.1111
 4401POPC   PO453330   8.464  15.404   7.788  0.1184  0.2572  0.0739
 4401POPC   GL153331   8.520  15.373   7.415 -0.0058 -0.2000 -0.0432
 4401POPC   GL253332   8.626  15.641   7.327 -0.0709 -0.1424  0.4513
 4401POPC   C1A53333   8.511  15.328   6.997  0.2669 -0.2507  0.0624
 4401POPC   D2A53334   8.712  15.100   6.648  0.3057 -0.2677 -0.0902
 4401POPC   C3A53335   8.412  15.047   6.316  0.1026  0.2052  0.0726
 4401POPC   C4A53336   8.389  14.873   5.867 -0.1732  0.0123 -0.0615
 4401POPC   C1B53337   8.238  15.762   7.130  0.2126 -0.1847 -0.0506
 4401POPC   C2B53338   8.045  15.932   6.768  0.0362  0.0924  0.2256
 4401POPC   C3B53339   7.817  15.852   6.401 -0.0487  0.1733 -0.5669
 4401POPC   C4B53340   7.570  15.498   6.255  0.0133  0.0120  0.1739
 4402POPC   NC353341   9.539  25.412   7.738 -0.0643 -0.3954  0.0224
 4402POPC   PO453342   9.587  25.755   7.961  0.3437  0.0091 -0.2937
 4402POPC   GL153343   9.490  25.924   7.610  0.3055  0.2867 -0.1975
 4402POPC   GL253344   9.196  26.024   7.494  0.0681  0.5784  0.1374
 4402POPC   C1A53345   9.625  26.058   7.157 -0.1837  0.0221 -0.1463
 4402POPC   D2A53346   9.533  26.064   6.680  0.3306 -0.4415 -0.1667
 4402POPC   C3A53347   9.758  26.168   6.299 -0.0250 -0.0491 -0.1283
 4402POPC   C4A53348  10.015  26.089   5.901  0.0149  0.0879 -0.1325
 4402POPC   C1B53349   9.129  26.106   7.040  0.0288  0.2252 -0.1224
 4402POPC   C2B53350   9.087  26.348   6.641  0.0752 -0.0447 -0.0228
 4402POPC   C3B53351   8.889  26.360   6.216  0.2072  0.0907  0.1723
 4402POPC   C4B53352   8.821  26.489   5.742  0.0162 -0.2044 -0.0007
 4403POPC   NC353353  31.026   5.509   7.543 -0.2832 -0.0384  0.3728
 4403POPC   PO453354  31.386   5.455   7.734  0.3297  0.0295 -0.0386
 4403POPC   GL153355  31.546   5.469   7.401  0.0332  0.0761  0.0923
 4403POPC   GL253356  31.417   5.656   7.237  0.0761 -0.0999 -0.0649
 4403POPC   C1A53357  31.489   5.226   6.993 -0.2295 -0.3004  0.0948
 4403POPC   D2A53358  31.736   5.128   6.615 -0.0475  0.1412  0.0300
 4403POPC   C3A53359  32.068   5.140   6.290 -0.1669 -0.2210 -0.4586
 4403POPC   C4A53360  32.346   4.812   6.194 -0.2590  0.2996  0.0678
 4403POPC   C1B53361  31.065   5.477   7.034 -0.1356  0.5537 -0.2259
 4403POPC   C2B53362  30.778   5.445   6.681 -0.1160  0.2118 -0.0857
 4403POPC   C3B53363  30.521   5.543   6.300  0.0312  0.2470 -0.0039
 4403POPC   C4B53364  30.673   5.710   5.941  0.0142  0.1637  0.1286
 4404POPC   NC353365   1.588  28.467   7.808  0.0912  0.0655 -0.1707
 4404POPC   PO453366   1.946  28.323   7.904 -0.2629  0.2744  0.1087
 4404POPC   GL153367   1.976  28.456   7.559  0.1932  0.3485  0.3339
 4404POPC   GL253368   1.944  28.716   7.534  0.2319  0.2766 -0.0734
 4404POPC   C1A53369   1.808  28.407   7.182 -0.0338 -0.0732  0.0169
 4404POPC   D2A53370   1.671  28.484   6.776  0.0733  0.2423  0.1388
 4404POPC   C3A53371   1.729  28.575   6.348  0.0850  0.1224  0.3830
 4404POPC   C4A53372   1.586  28.511   5.910  0.0792 -0.2257  0.0147
 4404POPC   C1B53373   1.826  28.936   7.082  0.2448  0.2574 -0.1804
 4404POPC   C2B53374   1.667  29.029   6.655  0.0859 -0.0656 -0.0496
 4404POPC   C3B53375   1.606  29.061   6.213 -0.0579 -0.2296 -0.0563
 4404POPC   C4B53376   1.486  28.971   5.781 -0.0852  0.0184  0.1603
 4405POPC   NC353377   6.764  19.200   7.375  0.3617 -0.0735  0.0284
 4405POPC   PO453378   6.739  19.614   7.365 -0.1438  0.3109 -0.1158
 4405POPC   GL153379   6.729  19.661   6.969 -0.7824  0.1136  0.1111
 4405POPC   GL253380   6.698  19.356   6.923 -0.0167 -0.1967  0.4546
 4405POPC   C1A53381   6.480  19.633   6.617  0.3305 -0.0400  0.2082
 4405POPC   D2A53382   6.385  19.807   6.212  0.0930 -0.0565  0.0471
 4405POPC   C3A53383   6.721  19.965   5.958  0.0161  0.7085  0.2288
 4405POPC   C4A53384   7.070  20.208   6.013 -0.2365  0.0729 -0.0296
 4405POPC   C1B53385   6.930  19.348   6.521 -0.0895 -0.1291 -0.1330
 4405POPC   C2B53386   6.697  19.367   6.122  0.0047  0.0920 -0.0244
 4405POPC   C3B53387   6.730  19.523   5.705 -0.0104  0.1260  0.0366
 4405POPC   C4B53388   6.576  19.854   5.441 -0.1808 -0.2990 -0.3335
 4406POPC   NC353389  31.547  15.544   8.206  0.1163  0.1815 -0.0329
 4406POPC   PO453390  31.820  15.675   7.947  0.2354  0.0440 -0.0309
 4406POPC   GL153391  31.755  15.730   7.592 -0.0309 -0.1373 -0.1372
 4406POPC   GL253392  31.751  16.021   7.512 -0.1745  0.3981  0.3073
 4406POPC   C1A53393  31.526  15.683   7.208  0.1039 -0.0355  0.2636
 4406POPC   D2A53394  31.364  15.291   6.988 -0.0050  0.1801  0.1121
 4406POPC   C3A53395  31.261  15.096   6.592  0.1565  0.3025  0.0209
 4406POPC   C4A53396  31.350  15.283   6.188  0.0258 -0.2085  0.1823
 4406POPC   C1B53397  31.763  16.124   7.025  0.1039 -0.1383 -0.0363
 4406POPC   C2B53398  31.805  16.192   6.560  0.3493 -0.0147 -0.1618
 4406POPC   C3B53399  31.805  16.147   6.067 -0.2342  0.2583 -0.1644
 4406POPC   C4B53400  31.637  15.852   5.723 -0.0266  0.0854  0.0702
 4407POPC   NC353401  21.466  20.998   8.076 -0.1954 -0.3627 -0.1585
 4407POPC   PO453402  21.319  21.150   7.765 -0.2317 -0.1919  0.0696
 4407POPC   GL153403  21.158  21.284   7.447  0.2201 -0.0974  0.1486
 4407POPC   GL253404  20.938  21.143   7.439 -0.1402 -0.0634 -0.1687
 4407POPC   C1A53405  21.222  21.491   7.042 -0.1248 -0.0141  0.5138
 4407POPC   D2A53406  21.314  21.720   6.680  0.0712 -0.3387 -0.0671
 4407POPC   C3A53407  21.672  21.719   6.382 -0.0924 -0.2210  0.1162
 4407POPC   C4A53408  21.956  21.730   6.023 -0.2735 -0.0706  0.0194
 4407POPC   C1B53409  20.517  21.014   7.327  0.2105  0.1712  0.0831
 4407POPC   C2B53410  20.123  21.132   7.141  0.1901 -0.0849  0.2408
 4407POPC   C3B53411  19.843  20.898   6.850 -0.1557 -0.2920 -0.0835
 4407POPC   C4B53412  19.722  20.783   6.382 -0.0971  0.1137 -0.0058
 4408POPC   NC353413   8.124  13.965   7.961  0.1965 -0.0532  0.4027
 4408POPC   PO453414   7.895  13.678   7.922 -0.0184 -0.0663  0.1329
 4408POPC   GL153415   7.762  13.512   7.639  0.0936 -0.3766  0.1449
 4408POPC   GL253416   7.598  13.694   7.469 -0.0973  0.0933  0.0825
 4408POPC   C1A53417   7.987  13.474   7.250 -0.1202  0.0661  0.0750
 4408POPC   D2A53418   8.003  13.308   6.818 -0.0582 -0.0548 -0.2536
 4408POPC   C3A53419   8.342  13.379   6.533 -0.1262  0.3802  0.0036
 4408POPC   C4A53420   8.472  13.472   6.107 -0.1213 -0.0891  0.2150
 4408POPC   C1B53421   7.496  13.913   7.101  0.0109 -0.1053  0.0955
 4408POPC   C2B53422   7.691  14.217   6.819 -0.1365  0.1139 -0.1284
 4408POPC   C3B53423   7.730  14.580   6.574 -0.2432  0.1780  0.1604
 4408POPC   C4B53424   7.451  14.924   6.501 -0.0734 -0.2865  0.1477
 4409POPC   NC353425   1.127  18.436   7.637 -0.2235 -0.0406 -0.0363
 4409POPC   PO453426   0.944  18.129   7.675  0.3382  0.3476  0.2459
 4409POPC   GL153427   0.800  18.161   7.287  0.1418  0.0546  0.0580
 4409POPC   GL253428   0.934  18.361   7.074  0.1796 -0.1491 -0.1338
 4409POPC   C1A53429   0.482  18.074   6.964  0.0033  0.0462  0.0223
 4409POPC   D2A53430   0.258  17.998   6.582 -0.0257 -0.1987 -0.4852
 4409POPC   C3A53431   0.015  18.369   6.478  0.1433 -0.1933  0.0596
 4409POPC   C4A53432  -0.295  18.614   6.215  0.0504  0.1249  0.0174
 4409POPC   C1B53433   0.829  18.288   6.631 -0.0583  0.0693  0.2166
 4409POPC   C2B53434   0.659  18.057   6.248  0.2737 -0.0571 -0.0723
 4409POPC   C3B53435   0.353  17.850   6.037 -0.5424  0.3282 -0.0923
 4409POPC   C4B53436   0.016  17.457   5.984 -0.2400  0.3163 -0.1220
 4410POPC   NC353437  31.430   9.878   7.880 -0.0927  0.0747 -0.0861
 4410POPC   PO453438  31.636   9.553   7.788 -0.0604  0.0295  0.0763
 4410POPC   GL153439  31.522   9.601   7.439  0.1340 -0.2383 -0.3251
 4410POPC   GL253440  31.523   9.921   7.380  0.0349 -0.0746  0.1426
 4410POPC   C1A53441  31.137   9.674   7.119 -0.1544  0.1693  0.0171
 4410POPC   D2A53442  31.001   9.630   6.668  0.2732 -0.0206  0.1446
 4410POPC   C3A53443  31.018   9.954   6.341  0.1830 -0.0634 -0.3182
 4410POPC   C4A53444  30.892  10.431   6.262  0.0218  0.2395 -0.2929
 4410POPC   C1B53445  31.603   9.693   6.962  0.1787  0.0973 -0.0204
 4410POPC   C2B53446  31.512   9.782   6.547 -0.0566 -0.1928 -0.1963
 4410POPC   C3B53447  31.546   9.642   6.121 -0.0876 -0.1293  0.0487
 4410POPC   C4B53448  31.734   9.495   5.696  0.1049  0.5070 -0.0005
 4411POPC   NC353449  12.183  30.496   8.127  0.0314  0.0089 -0.1167
 4411POPC   PO453450  12.311  30.752   7.878  0.1882 -0.1352 -0.1211
 4411POPC   GL153451  12.341  30.802   7.529 -0.0305 -0.2598 -0.1079
 4411POPC   GL253452  12.283  30.620   7.375  0.0095  0.1799 -0.0415
 4411POPC   C1A53453  12.115  31.048   7.222  0.0380 -0.2134 -0.3626
 4411POPC   D2A53454  12.038  31.231   6.777 -0.0312  0.1770 -0.2035
 4411POPC   C3A53455  11.878  31.265   6.323 -0.0205  0.3278 -0.1245
 4411POPC   C4A53456  11.503  31.414   6.234 -0.1318 -0.0243 -0.1612
 4411POPC   C1B53457  12.326  30.642   6.918 -0.0260 -0.0768  0.0572
 4411POPC   C2B53458  12.376  30.402   6.544  0.2464 -0.0621 -0.0938
 4411POPC   C3B53459  12.072  30.054   6.305 -0.0723 -0.1748 -0.1333
 4411POPC   C4B53460  11.873  29.685   6.078  0.0079  0.1379  0.0496
 4412POPC   NC353461  15.549  16.924   8.386  0.0858 -0.3118 -0.1536
 4412POPC   PO453462  15.696  16.850   8.035 -0.0597 -0.1964 -0.1455
 4412POPC   GL153463  15.976  16.696   7.753  0.1691 -0.0339 -0.2256
 4412POPC   GL253464  15.834  16.698   7.580 -0.2682  0.0662  0.3805
 4412POPC   C1A53465  16.421  16.765   7.627 -0.1269 -0.0346  0.1560
 4412POPC   D2A53466  16.799  16.940   7.466 -0.1415 -0.3214 -0.0772
 4412POPC   C3A53467  16.881  17.116   7.012  0.1407 -0.0045 -0.2696
 4412POPC   C4A53468  16.926  17.195   6.510  0.1843 -0.3141  0.0298
 4412POPC   C1B53469  16.104  16.801   7.244 -0.5156  0.1399  0.2337
 4412POPC   C2B53470  16.182  16.794   6.778 -0.0755 -0.2978  0.0563
 4412POPC   C3B53471  16.343  16.531   6.437 -0.2898 -0.2181 -0.0787
 4412POPC   C4B53472  16.371  16.535   5.953  0.2593  0.0704  0.0814
 4413POPC   NC353473  20.476  14.358   7.306  0.0463 -0.2809  0.3023
 4413POPC   PO453474  20.315  14.635   7.132  0.1802  0.0239 -0.3092
 4413POPC   GL153475  20.143  14.932   6.890  0.0755 -0.2770 -0.1053
 4413POPC   GL253476  20.003  15.162   6.910 -0.2335  0.1119 -0.1456
 4413POPC   C1A53477  19.869  15.001   6.470  0.0402 -0.0810 -0.1488
 4413POPC   D2A53478  19.932  15.223   6.060  0.0395  0.3232  0.2907
 4413POPC   C3A53479  19.844  15.575   5.744  0.0396  0.0745  0.1032
 4413POPC   C4A53480  19.731  15.681   5.284 -0.3644 -0.2803  0.2544
 4413POPC   C1B53481  20.346  15.304   6.620 -0.1354 -0.1651 -0.1578
 4413POPC   C2B53482  20.387  15.307   6.203  0.1353  0.3475 -0.1664
 4413POPC   C3B53483  20.312  15.471   5.741  0.0957 -0.1841 -0.0860
 4413POPC   C4B53484  20.276  15.543   5.278  0.0273 -0.2669 -0.0637
 4414POPC   NC353485  11.434  27.097   8.326  0.1298 -0.1313  0.2826
 4414POPC   PO453486  11.608  27.051   7.973 -0.2824  0.0091  0.0076
 4414POPC   GL153487  11.703  27.010   7.626 -0.0424  0.0574  0.2244
 4414POPC   GL253488  11.514  26.849   7.381  0.2250  0.0921  0.0125
 4414POPC   C1A53489  11.747  27.280   7.269  0.0861 -0.1586 -0.1021
 4414POPC   D2A53490  11.756  27.276   6.818  0.0484 -0.0517 -0.0660
 4414POPC   C3A53491  11.891  27.362   6.390 -0.1329  0.0084 -0.0538
 4414POPC   C4A53492  12.136  27.390   6.058 -0.1182  0.3337  0.1163
 4414POPC   C1B53493  11.323  26.864   6.927 -0.0676  0.0673  0.1961
 4414POPC   C2B53494  11.134  27.079   6.584  0.0646 -0.1877 -0.1599
 4414POPC   C3B53495  10.897  27.222   6.253 -0.0832  0.0597 -0.1823
 4414POPC   C4B53496  10.629  27.229   5.930 -0.0488  0.0803  0.0785
 4415POPC   NC353497  30.957  23.271   6.969 -0.2892 -0.0734 -0.0987
 4415POPC   PO453498  31.148  23.551   7.160  0.1418 -0.0856 -0.1979
 4415POPC   GL153499  30.842  23.755   6.961 -0.4425  0.1302  0.3324
 4415POPC   GL253500  31.054  23.995   6.951  0.0410 -0.0384  0.2787
 4415POPC   C1A53501  30.702  23.670   6.535  0.3214  0.2317  0.0813
 4415POPC   D2A53502  30.421  23.362   6.344 -0.1594 -0.0230 -0.3711
 4415POPC   C3A53503  30.054  23.148   6.235  0.1289 -0.0290  0.1671
 4415POPC   C4A53504  29.795  22.755   6.033  0.0995 -0.1717  0.0398
 4415POPC   C1B53505  30.916  24.086   6.517  0.0567  0.2318  0.0907
 4415POPC   C2B53506  30.915  24.093   6.046 -0.0087 -0.0498 -0.1315
 4415POPC   C3B53507  30.898  24.282   5.649  0.1554  0.0953  0.4451
 4415POPC   C4B53508  30.564  24.568   5.504  0.2606 -0.2212 -0.0072
 4416POPC   NC353509  29.262   2.018   7.807  0.0821 -0.0634  0.0739
 4416POPC   PO453510  29.096   1.679   7.671 -0.0495 -0.0157  0.1588
 4416POPC   GL153511  28.980   1.646   7.221 -0.4359  0.1839 -0.0692
 4416POPC   GL253512  29.121   1.954   7.175  0.1543  0.0817 -0.2542
 4416POPC   C1A53513  28.645   1.748   6.882 -0.4505 -0.2080 -0.1129
 4416POPC   D2A53514  28.246   1.996   6.973  0.0410 -0.0434  0.1139
 4416POPC   C3A53515  27.880   2.131   6.717 -0.1867  0.1201 -0.2396
 4416POPC   C4A53516  27.569   2.368   6.949 -0.0572  0.0789 -0.1424
 4416POPC   C1B53517  29.167   1.786   6.740  0.4373  0.1656 -0.0661
 4416POPC   C2B53518  28.989   1.676   6.369  0.2155 -0.2184 -0.0249
 4416POPC   C3B53519  28.891   1.492   5.956  0.1193  0.2043  0.0491
 4416POPC   C4B53520  28.724   1.225   5.612 -0.1327  0.1033  0.4156
 4417POPC   NC353521  24.486   5.608   7.420 -0.0283 -0.1741  0.1013
 4417POPC   PO453522  24.468   5.222   7.455  0.0125 -0.0157  0.0514
 4417POPC   GL153523  24.351   4.932   7.257 -0.2152  0.1066  0.4593
 4417POPC   GL253524  24.519   4.664   7.133 -0.1551 -0.2818  0.0746
 4417POPC   C1A53525  24.201   4.947   6.822 -0.0918  0.3823 -0.0643
 4417POPC   D2A53526  23.855   5.198   6.614  0.0894  0.0441 -0.0823
 4417POPC   C3A53527  23.844   5.245   6.195 -0.4565 -0.0651  0.0545
 4417POPC   C4A53528  23.760   5.403   5.753  0.2872  0.0022  0.1222
 4417POPC   C1B53529  24.500   4.577   6.644 -0.4197  0.1090 -0.0819
 4417POPC   C2B53530  24.395   4.370   6.234 -0.0471 -0.0967 -0.0384
 4417POPC   C3B53531  23.927   4.338   6.078  0.6085 -0.2917  0.0484
 4417POPC   C4B53532  23.433   4.257   6.019 -0.0487 -0.0914  0.0366
 4418POPC   NC353533  12.300   9.439   7.574  0.3208 -0.1356  0.1088
 4418POPC   PO453534  12.173   9.793   7.720  0.0395  0.1588  0.1621
 4418POPC   GL153535  11.917   9.731   7.440 -0.0326 -0.1001  0.0175
 4418POPC   GL253536  12.030   9.683   7.199  0.0421 -0.0729  0.4430
 4418POPC   C1A53537  11.538   9.628   7.224  0.3483 -0.5058  0.1840
 4418POPC   D2A53538  11.100   9.569   7.111  0.0452 -0.1053 -0.0680
 4418POPC   C3A53539  10.775   9.689   6.802 -0.0884  0.4163 -0.2233
 4418POPC   C4A53540  10.415   9.975   6.640  0.1956  0.1926  0.0757
 4418POPC   C1B53541  11.938   9.274   7.112  0.2597  0.1882 -0.2122
 4418POPC   C2B53542  11.799   9.013   6.819  0.0596 -0.0430 -0.0436
 4418POPC   C3B53543  11.596   8.750   6.493 -0.1959 -0.1911  0.0118
 4418POPC   C4B53544  11.589   8.370   6.238  0.2610 -0.0602  0.2281
 4419POPC   NC353545   0.525   6.650   7.579  0.0807 -0.2699  0.0009
 4419POPC   PO453546   0.601   6.285   7.607 -0.0307 -0.1404 -0.2794
 4419POPC   GL153547   0.778   6.231   7.327  0.2057 -0.1129  0.2900
 4419POPC   GL253548   0.899   6.427   7.226 -0.0095  0.0367  0.0390
 4419POPC   C1A53549   1.044   5.926   7.146 -0.3384  0.2284  0.0217
 4419POPC   D2A53550   1.358   5.761   6.842  0.1504 -0.0537 -0.1499
 4419POPC   C3A53551   1.325   5.549   6.365 -0.0974  0.3173  0.0934
 4419POPC   C4A53552   1.056   5.672   6.043 -0.0425 -0.0656  0.1471
 4419POPC   C1B53553   0.688   6.389   6.805  0.2279  0.0481  0.1446
 4419POPC   C2B53554   0.698   6.284   6.368  0.0115  0.0740 -0.2341
 4419POPC   C3B53555   0.802   6.214   5.866  0.0515  0.2660 -0.0678
 4419POPC   C4B53556   0.848   5.862   5.589  0.1656 -0.3168  0.1063
 4420POPC   NC353557   2.354   6.596   8.161 -0.0643 -0.0473  0.0139
 4420POPC   PO453558   2.528   6.703   7.831  0.1319 -0.1240  0.0491
 4420POPC   GL153559   2.543   6.737   7.386  0.2458 -0.0401 -0.1570
 4420POPC   GL253560   2.361   6.532   7.357 -0.0103 -0.1888  0.3061
 4420POPC   C1A53561   2.623   7.107   7.122  0.1028  0.1632 -0.2965
 4420POPC   D2A53562   2.799   7.400   6.808  0.1548  0.0273  0.0804
 4420POPC   C3A53563   2.887   7.284   6.417  0.1872 -0.1819  0.5060
 4420POPC   C4A53564   3.061   7.210   6.034  0.3672  0.1302 -0.2077
 4420POPC   C1B53565   2.404   6.698   6.912 -0.0449 -0.1667  0.3447
 4420POPC   C2B53566   2.382   6.924   6.552  0.1142 -0.0212  0.1739
 4420POPC   C3B53567   2.284   7.209   6.142  0.2204  0.1762  0.0090
 4420POPC   C4B53568   2.263   7.293   5.734  0.0133  0.2677 -0.3346
 4421POPC   NC353569   8.731  19.211   7.485  0.1267 -0.1106  0.0233
 4421POPC   PO453570   8.438  19.478   7.477 -0.0341  0.1630  0.0410
 4421POPC   GL153571   8.364  19.340   7.121 -0.0618  0.1049  0.0013
 4421POPC   GL253572   8.424  19.061   7.066 -0.1705 -0.1561 -0.3060
 4421POPC   C1A53573   8.409  19.471   6.711 -0.0846 -0.0157 -0.3821
 4421POPC   D2A53574   8.451  19.403   6.291 -0.0804 -0.3591 -0.2688
 4421POPC   C3A53575   8.108  19.203   6.047 -0.0104 -0.1243 -0.0512
 4421POPC   C4A53576   7.797  18.896   6.221 -0.2959  0.2629 -0.0287
 4421POPC   C1B53577   8.015  19.156   6.863 -0.0034 -0.2173 -0.0825
 4421POPC   C2B53578   7.912  19.372   6.489 -0.2807  0.1606 -0.0061
 4421POPC   C3B53579   7.963  19.741   6.149 -0.2907  0.1913  0.0739
 4421POPC   C4B53580   8.055  19.986   5.734 -0.0849  0.3354  0.1481
 4422POPC   NC353581  21.344  24.413   7.982  0.0898 -0.0657  0.0300
 4422POPC   PO453582  21.679  24.226   7.883 -0.0063 -0.0728 -0.1113
 4422POPC   GL153583  21.527  24.259   7.494 -0.0421 -0.3723 -0.3349
 4422POPC   GL253584  21.670  24.023   7.359  0.0826 -0.3397  0.1801
 4422POPC   C1A53585  21.654  24.363   7.013  0.1883  0.0863 -0.0709
 4422POPC   D2A53586  21.814  24.355   6.611 -0.3124  0.1199 -0.0700
 4422POPC   C3A53587  22.090  24.584   6.373 -0.2271 -0.0122 -0.1764
 4422POPC   C4A53588  22.330  24.727   5.967  0.0297  0.1483  0.3098
 4422POPC   C1B53589  22.063  24.105   7.099 -0.2832 -0.0362  0.1198
 4422POPC   C2B53590  22.327  24.317   6.779  0.0585  0.1517 -0.0343
 4422POPC   C3B53591  22.473  24.310   6.316  0.2176 -0.1263  0.0557
 4422POPC   C4B53592  22.855  24.422   6.046  0.2403 -0.2026 -0.0280
 4423POPC   NC353593  31.228  30.880   7.854  0.1310 -0.2071  0.2239
 4423POPC   PO453594  31.018  30.577   7.938 -0.1720 -0.1890 -0.1629
 4423POPC   GL153595  31.024  30.632   7.524  0.0373 -0.1036  0.0405
 4423POPC   GL253596  30.765  30.562   7.423  0.2971 -0.0127 -0.3150
 4423POPC   C1A53597  31.216  30.487   7.088  0.2550 -0.0901  0.2896
 4423POPC   D2A53598  31.094  30.477   6.656  0.1934 -0.1354 -0.1697
 4423POPC   C3A53599  31.260  30.153   6.287  0.1071  0.0394 -0.2800
 4423POPC   C4A53600  31.073  29.787   6.098  0.1844 -0.1933  0.0639
 4423POPC   C1B53601  30.664  30.402   7.047 -0.1843  0.2490 -0.1244
 4423POPC   C2B53602  30.562  30.329   6.578 -0.2435  0.2322 -0.2934
 4423POPC   C3B53603  30.206  30.102   6.422  0.3421 -0.1835 -0.1583
 4423POPC   C4B53604  29.922  30.287   6.101 -0.0046  0.0664  0.0254
 4424POPC   NC353605  19.548   1.374   7.881 -0.1744 -0.1710  0.1668
 4424POPC   PO453606  19.614   1.598   7.586  0.0904  0.1378 -0.0822
 4424POPC   GL153607  19.699   1.822   7.198  0.0961 -0.1999 -0.1328
 4424POPC   GL253608  19.423   1.763   7.120  0.0777  0.3319 -0.1070
 4424POPC   C1A53609  19.685   1.689   6.726  0.2503 -0.0809  0.1447
 4424POPC   D2A53610  19.561   1.552   6.284  0.0627 -0.0034  0.0982
 4424POPC   C3A53611  19.379   1.344   5.899 -0.1409 -0.1497 -0.3786
 4424POPC   C4A53612  19.027   1.315   5.673 -0.0617  0.0558  0.0513
 4424POPC   C1B53613  19.123   1.867   6.753 -0.0257 -0.3180  0.1337
 4424POPC   C2B53614  19.006   1.762   6.307  0.3242  0.1386 -0.0013
 4424POPC   C3B53615  19.190   1.937   5.912 -0.0172 -0.2647 -0.2875
 4424POPC   C4B53616  19.305   2.319   5.721  0.4307 -0.0109 -0.1218
 4425POPC   NC353617  30.564  30.712   7.837 -0.0500  0.1253  0.4679
 4425POPC   PO453618  30.800  31.055   7.850 -0.0072  0.1915 -0.0584
 4425POPC   GL153619  30.761  31.036   7.513 -0.0207  0.0448 -0.0882
 4425POPC   GL253620  30.976  31.023   7.391 -0.1680 -0.0706  0.1205
 4425POPC   C1A53621  30.389  30.860   7.244 -0.0802  0.0263 -0.1079
 4425POPC   D2A53622  30.031  30.886   6.941  0.1154 -0.0421  0.3642
 4425POPC   C3A53623  29.999  31.008   6.499 -0.3346  0.0952  0.0505
 4425POPC   C4A53624  29.723  30.871   6.145  0.0415  0.0967  0.2764
 4425POPC   C1B53625  30.926  30.914   6.958  0.0363  0.1414 -0.0262
 4425POPC   C2B53626  30.897  30.885   6.482  0.2361 -0.0358  0.0464
 4425POPC   C3B53627  30.975  31.147   6.041 -0.2006 -0.1535 -0.0784
 4425POPC   C4B53628  30.786  31.217   5.650 -0.0040 -0.1376  0.1191
 4426POPC   NC353629  16.150   8.528   8.058  0.1555  0.1669 -0.0279
 4426POPC   PO453630  16.090   8.918   8.017  0.2309 -0.0923  0.1377
 4426POPC   GL153631  16.280   8.882   7.644  0.0771 -0.1450  0.1455
 4426POPC   GL253632  16.533   8.752   7.696  0.0060 -0.3127  0.3050
 4426POPC   C1A53633  16.084   8.482   7.443 -0.1345  0.0479  0.2892
 4426POPC   D2A53634  16.024   8.344   6.999  0.0938 -0.0537  0.0314
 4426POPC   C3A53635  15.898   7.939   6.886 -0.0656  0.2004 -0.1947
 4426POPC   C4A53636  15.665   7.512   6.824  0.0695 -0.0192  0.0167
 4426POPC   C1B53637  16.535   8.761   7.256 -0.1006  0.0668 -0.1588
 4426POPC   C2B53638  16.415   8.664   6.819  0.0161  0.0538 -0.3257
 4426POPC   C3B53639  16.595   8.498   6.430 -0.1682 -0.1357  0.5119
 4426POPC   C4B53640  16.533   8.522   6.001  0.0048 -0.0726  0.0014
 4427POPC   NC353641   1.136  23.512   7.385  0.1897  0.0321 -0.0696
 4427POPC   PO453642   1.469  23.556   7.644  0.2115 -0.1867 -0.0545
 4427POPC   GL153643   1.562  23.764   7.323  0.0431 -0.0543  0.0856
 4427POPC   GL253644   1.467  23.599   7.062  0.1047 -0.1197 -0.0319
 4427POPC   C1A53645   1.943  23.795   6.990 -0.0088 -0.2918 -0.0151
 4427POPC   D2A53646   2.047  23.928   6.540  0.2037  0.2761  0.2011
 4427POPC   C3A53647   1.684  24.081   6.269 -0.0594 -0.2110  0.1440
 4427POPC   C4A53648   1.709  24.355   5.870  0.2897 -0.0369 -0.0076
 4427POPC   C1B53649   1.405  23.192   6.810  0.1472 -0.5051 -0.1594
 4427POPC   C2B53650   1.623  23.038   6.459 -0.2459  0.0965  0.1092
 4427POPC   C3B53651   1.878  22.755   6.212 -0.0046 -0.2623 -0.0493
 4427POPC   C4B53652   2.036  22.910   5.853  0.1475  0.1462 -0.1347
 4428POPC   NC353653  15.647   6.416   7.720  0.1149 -0.1721 -0.0787
 4428POPC   PO453654  15.229   6.377   7.700 -0.1896 -0.0392  0.1352
 4428POPC   GL153655  15.216   6.469   7.339 -0.3668 -0.1528 -0.0123
 4428POPC   GL253656  15.499   6.314   7.261  0.0956  0.0584  0.0402
 4428POPC   C1A53657  15.169   6.891   7.158  0.0545 -0.1178  0.2160
 4428POPC   D2A53658  15.501   7.205   7.292  0.1118  0.1838 -0.1229
 4428POPC   C3A53659  15.900   7.182   7.113 -0.3133 -0.1374 -0.0649
 4428POPC   C4A53660  16.182   7.542   7.119 -0.0440  0.5260 -0.1875
 4428POPC   C1B53661  15.448   6.419   6.831 -0.1786  0.0970  0.1841
 4428POPC   C2B53662  15.466   6.579   6.377 -0.1092 -0.0497  0.3004
 4428POPC   C3B53663  15.884   6.751   6.167  0.0888  0.0097 -0.1960
 4428POPC   C4B53664  16.114   7.128   6.032 -0.0425 -0.3921  0.1605
 4429POPC   NC353665  22.108   4.589   7.424 -0.1526 -0.0236 -0.3679
 4429POPC   PO453666  22.253   4.227   7.437  0.0141  0.1172 -0.3105
 4429POPC   GL153667  22.352   4.221   7.076  0.1505  0.0112  0.2329
 4429POPC   GL253668  22.156   4.019   7.001  0.3321  0.0643  0.5587
 4429POPC   C1A53669  22.421   4.354   6.668 -0.0564  0.0895  0.1352
 4429POPC   D2A53670  22.243   4.167   6.268 -0.0055 -0.3733  0.0043
 4429POPC   C3A53671  22.573   3.954   5.993  0.0908 -0.0182  0.1259
 4429POPC   C4A53672  22.926   3.940   5.701 -0.2038 -0.1454 -0.2002
 4429POPC   C1B53673  22.104   3.744   6.695  0.1094  0.0229  0.0921
 4429POPC   C2B53674  21.840   3.554   6.374 -0.2647 -0.4379 -0.2669
 4429POPC   C3B53675  21.484   3.318   6.376 -0.1058  0.2262 -0.0027
 4429POPC   C4B53676  21.158   3.007   6.303 -0.0127 -0.0336 -0.2343
 4430POPC   NC353677  26.913   9.408   8.420 -0.1146  0.1039  0.0202
 4430POPC   PO453678  27.015   9.386   8.013  0.0821 -0.2925 -0.1060
 4430POPC   GL153679  27.088   9.348   7.568  0.4682 -0.1995 -0.0311
 4430POPC   GL253680  27.064   9.567   7.353  0.0833 -0.1831 -0.0671
 4430POPC   C1A53681  27.001   9.135   7.129 -0.0120 -0.2181  0.2822
 4430POPC   D2A53682  26.650   9.148   6.779 -0.1211  0.2648  0.0456
 4430POPC   C3A53683  26.808   9.223   6.357 -0.3242  0.1488  0.1433
 4430POPC   C4A53684  26.838   9.574   6.052 -0.0340  0.0587  0.1257
 4430POPC   C1B53685  26.725   9.584   7.066 -0.1878 -0.0080  0.1236
 4430POPC   C2B53686  26.458   9.950   6.999 -0.0585  0.1630  0.2441
 4430POPC   C3B53687  26.471  10.281   6.614  0.3005  0.2407 -0.1855
 4430POPC   C4B53688  26.332  10.249   6.229 -0.1547  0.0355 -0.2221
 4431POPC   NC353689   2.202  29.107   7.690 -0.1896 -0.0767 -0.0493
 4431POPC   PO453690   1.829  29.232   7.729 -0.1562 -0.0838  0.3014
 4431POPC   GL153691   1.618  29.358   7.328  0.1317  0.1272  0.0397
 4431POPC   GL253692   1.298  29.328   7.389  0.0143 -0.0254 -0.1266
 4431POPC   C1A53693   1.594  29.465   6.883  0.0002 -0.1282 -0.1836
 4431POPC   D2A53694   1.521  29.488   6.476  0.1943  0.0255 -0.0959
 4431POPC   C3A53695   1.270  29.764   6.197 -0.0729  0.0247  0.0568
 4431POPC   C4A53696   1.111  29.856   5.771 -0.0593 -0.5407 -0.0491
 4431POPC   C1B53697   1.131  29.313   6.975 -0.0010 -0.3553 -0.1713
 4431POPC   C2B53698   1.121  29.187   6.603 -0.0054 -0.0325  0.0670
 4431POPC   C3B53699   1.191  29.269   6.161  0.0028  0.1265  0.3462
 4431POPC   C4B53700   1.362  29.468   5.773  0.1059 -0.0074  0.2314
 4432POPC   NC353701  23.766   4.059   7.472  0.2493 -0.1512 -0.2172
 4432POPC   PO453702  24.118   4.121   7.649 -0.2620  0.4884  0.0244
 4432POPC   GL153703  24.295   4.093   7.218 -0.2965  0.3617 -0.0887
 4432POPC   GL253704  24.083   3.860   7.045  0.0739 -0.0704 -0.0625
 4432POPC   C1A53705  24.583   4.189   6.866  0.2013 -0.1552  0.1111
 4432POPC   D2A53706  24.862   4.185   6.501  0.0155 -0.2626  0.1293
 4432POPC   C3A53707  24.757   3.920   6.164 -0.1977  0.1270 -0.0870
 4432POPC   C4A53708  24.524   3.813   5.785  0.0842  0.0090 -0.0618
 4432POPC   C1B53709  24.127   3.578   6.686  0.1632  0.2594  0.0874
 4432POPC   C2B53710  24.252   3.149   6.479  0.2059  0.2140 -0.1166
 4432POPC   C3B53711  24.099   2.896   6.124  0.2765 -0.2270  0.3291
 4432POPC   C4B53712  24.110   2.487   5.890  0.1109 -0.1566 -0.0988
 4433POPC   NC353713  20.695  20.225   7.958  0.1453  0.3583  0.0734
 4433POPC   PO453714  20.847  20.349   7.594 -0.2448 -0.1660 -0.2568
 4433POPC   GL153715  20.778  20.479   7.133  0.2798 -0.3437  0.1171
 4433POPC   GL253716  20.821  20.675   7.223  0.1386  0.0414  0.2530
 4433POPC   C1A53717  21.044  20.525   6.772 -0.2752 -0.3778 -0.1767
 4433POPC   D2A53718  21.076  20.471   6.307 -0.1527 -0.2244 -0.1026
 4433POPC   C3A53719  20.788  20.599   5.957 -0.3427  0.2080 -0.0174
 4433POPC   C4A53720  20.878  20.544   5.481 -0.3346  0.1589 -0.1012
 4433POPC   C1B53721  20.843  20.980   6.876  0.3319  0.2064 -0.1555
 4433POPC   C2B53722  21.022  20.971   6.448 -0.0724 -0.3346  0.0871
 4433POPC   C3B53723  21.024  21.089   6.020  0.0562  0.2254  0.0542
 4433POPC   C4B53724  21.092  21.247   5.607  0.2246  0.3964 -0.0808
 4434POPC   NC353725  28.181   9.459   8.030 -0.1640  0.0719 -0.0826
 4434POPC   PO453726  28.258   9.117   7.842 -0.0141 -0.0519  0.1769
 4434POPC   GL153727  28.232   9.195   7.446  0.0059 -0.2826  0.0332
 4434POPC   GL253728  27.944   9.244   7.475 -0.0977 -0.0499 -0.1865
 4434POPC   C1A53729  28.196   9.398   7.051 -0.2898 -0.0127  0.0438
 4434POPC   D2A53730  28.364   9.781   6.826 -0.0166 -0.0003  0.0931
 4434POPC   C3A53731  28.309   9.613   6.335  0.0817 -0.4764 -0.1357
 4434POPC   C4A53732  28.000   9.718   5.986 -0.1773 -0.2645  0.2337
 4434POPC   C1B53733  27.919   8.972   7.036  0.0035 -0.1527  0.0455
 4434POPC   C2B53734  27.850   9.143   6.623  0.2217  0.0853  0.0964
 4434POPC   C3B53735  27.975   9.169   6.209 -0.1173 -0.1254 -0.2493
 4434POPC   C4B53736  28.001   9.272   5.795  0.4592  0.1970  0.0838
 4435POPC   NC353737  24.926  18.865   7.937 -0.0940  0.2086  0.1467
 4435POPC   PO453738  24.648  19.160   7.959  0.2154  0.1837  0.1163
 4435POPC   GL153739  24.548  18.912   7.700  0.3555  0.0835  0.1491
 4435POPC   GL253740  24.790  18.944   7.483  0.2587  0.0571  0.0738
 4435POPC   C1A53741  24.360  18.528   7.502  0.2325 -0.1679 -0.0982
 4435POPC   D2A53742  24.315  18.076   7.328 -0.0522 -0.2690  0.3097
 4435POPC   C3A53743  24.447  17.659   7.122 -0.0189  0.1697 -0.0749
 4435POPC   C4A53744  24.223  17.242   6.932  0.1136 -0.2577 -0.1365
 4435POPC   C1B53745  24.751  18.636   7.184  0.3126  0.1630 -0.2314
 4435POPC   C2B53746  24.634  18.247   6.935 -0.2316 -0.1231 -0.0205
 4435POPC   C3B53747  24.513  17.897   6.719  0.1132  0.1419  0.1721
 4435POPC   C4B53748  24.521  17.494   6.545  0.1372  0.0275  0.0114
 4436POPC   NC353749   7.535   8.945   8.464  0.0881 -0.2656 -0.0995
 4436POPC   PO453750   7.554   9.230   8.173 -0.3240 -0.0378  0.0487
 4436POPC   GL153751   7.505   8.891   7.920  0.0190 -0.1680 -0.2654
 4436POPC   GL253752   7.660   8.985   7.722 -0.2536 -0.2138 -0.0884
 4436POPC   C1A53753   7.196   8.762   7.546 -0.0201  0.3372  0.0678
 4436POPC   D2A53754   6.729   8.630   7.458 -0.0122  0.0369 -0.2603
 4436POPC   C3A53755   6.601   8.500   7.040  0.0371 -0.2980  0.2830
 4436POPC   C4A53756   6.440   8.228   6.676  0.3158  0.3173 -0.2101
 4436POPC   C1B53757   7.909   9.275   7.381  0.1474 -0.0063 -0.0328
 4436POPC   C2B53758   7.842   9.389   6.930  0.2249 -0.0970  0.0160
 4436POPC   C3B53759   7.824   9.334   6.468 -0.2680  0.1734 -0.1261
 4436POPC   C4B53760   7.994   9.037   6.109  0.3394  0.0747  0.0921
 4437POPC   NC353761  10.394   3.493   7.845  0.3504 -0.0455  0.0999
 4437POPC   PO453762  10.629   3.653   7.524  0.1128  0.1398 -0.1645
 4437POPC   GL153763  10.611   3.705   7.113 -0.1783 -0.3026  0.4607
 4437POPC   GL253764  10.950   3.732   7.128 -0.0849 -0.0964  0.3475
 4437POPC   C1A53765  10.625   4.077   6.823 -0.1246 -0.2017  0.1614
 4437POPC   D2A53766  10.357   4.387   6.660  0.3140  0.3327  0.3875
 4437POPC   C3A53767  10.158   4.673   6.332  0.1884  0.2131  0.0216
 4437POPC   C4A53768  10.005   4.674   5.893 -0.0740  0.2111 -0.1484
 4437POPC   C1B53769  10.951   3.753   6.647 -0.3617  0.0508  0.2625
 4437POPC   C2B53770  10.581   3.838   6.290  0.4974 -0.1998 -0.3442
 4437POPC   C3B53771  10.409   4.289   6.103  0.2268  0.2052 -0.0894
 4437POPC   C4B53772  10.252   4.195   5.660  0.0173 -0.1632  0.2602
 4438POPC   NC353773   2.691   9.825   7.490 -0.2986 -0.0899 -0.3635
 4438POPC   PO453774   2.332   9.869   7.708 -0.2721 -0.0532  0.0994
 4438POPC   GL153775   2.269  10.015   7.384  0.2598  0.3240  0.0556
 4438POPC   GL253776   2.162   9.756   7.249 -0.0366  0.0377  0.0863
 4438POPC   C1A53777   2.375  10.137   6.910 -0.2269  0.0844 -0.1730
 4438POPC   D2A53778   2.493  10.061   6.463  0.3526  0.0711 -0.3536
 4438POPC   C3A53779   2.513   9.658   6.334 -0.0526 -0.3089  0.0281
 4438POPC   C4A53780   2.165   9.471   6.281  0.0409  0.0799 -0.2019
 4438POPC   C1B53781   2.522   9.671   6.970  0.2500 -0.0191 -0.1737
 4438POPC   C2B53782   2.649   9.318   6.731 -0.2015  0.1433  0.2483
 4438POPC   C3B53783   2.460   9.087   6.373 -0.1209 -0.0453  0.3015
 4438POPC   C4B53784   2.548   9.025   5.927 -0.1526 -0.2208 -0.1080
 4439POPC   NC353785   6.709   5.418   7.306  0.1678 -0.3238 -0.0520
 4439POPC   PO453786   7.053   5.573   7.430 -0.1442 -0.0525 -0.1749
 4439POPC   GL153787   7.024   5.689   7.052 -0.1722 -0.1278 -0.0907
 4439POPC   GL253788   7.001   5.439   6.880 -0.3091 -0.1894  0.1285
 4439POPC   C1A53789   7.380   5.832   6.801  0.3378  0.1223  0.1668
 4439POPC   D2A53790   7.728   5.729   6.549 -0.3239 -0.0278 -0.2212
 4439POPC   C3A53791   7.719   5.507   6.109 -0.2869 -0.1145 -0.1657
 4439POPC   C4A53792   8.041   5.684   5.860 -0.3476 -0.0559  0.1504
 4439POPC   C1B53793   6.892   5.002   6.774 -0.1100 -0.1371  0.2505
 4439POPC   C2B53794   6.713   4.808   6.388  0.1978  0.1509 -0.1323
 4439POPC   C3B53795   6.545   4.559   6.075  0.2830  0.0958  0.2160
 4439POPC   C4B53796   6.456   4.615   5.645  0.1104  0.0226 -0.1744
 4440POPC   NC353797   0.385   8.725   7.806 -0.0679 -0.1739  0.0504
 4440POPC   PO453798   0.037   8.650   7.835  0.2224 -0.0484  0.1192
 4440POPC   GL153799  -0.033   8.449   7.469 -0.0158 -0.1088 -0.0334
 4440POPC   GL253800   0.252   8.539   7.354 -0.1685 -0.1208  0.1858
 4440POPC   C1A53801  -0.157   8.642   7.035 -0.2318 -0.0359  0.0229
 4440POPC   D2A53802  -0.464   8.715   6.767  0.4235  0.0520 -0.0215
 4440POPC   C3A53803  -0.452   8.724   6.350 -0.2695 -0.1333  0.2994
 4440POPC   C4A53804  -0.400   8.583   5.899  0.0865 -0.2468  0.1147
 4440POPC   C1B53805   0.339   8.465   6.929  0.1142  0.4539 -0.0743
 4440POPC   C2B53806   0.272   8.235   6.527 -0.0687  0.1339 -0.0698
 4440POPC   C3B53807   0.268   7.906   6.157  0.3179  0.0828  0.0384
 4440POPC   C4B53808   0.287   7.674   5.746 -0.1245  0.1386  0.3161
 4441POPC   NC353809  25.285  29.927   8.030 -0.4942 -0.1017 -0.4465
 4441POPC   PO453810  25.127  29.690   7.738 -0.2739 -0.0872  0.0125
 4441POPC   GL153811  24.950  29.468   7.474 -0.0819  0.2692  0.2054
 4441POPC   GL253812  25.174  29.530   7.245  0.1167 -0.3589 -0.1089
 4441POPC   C1A53813  24.739  29.758   7.118 -0.0879 -0.1116  0.1027
 4441POPC   D2A53814  24.680  29.915   6.656 -0.2834  0.0361 -0.0680
 4441POPC   C3A53815  25.000  30.169   6.526 -0.0531  0.5539  0.1949
 4441POPC   C4A53816  25.246  30.038   6.180 -0.3646 -0.0393 -0.1721
 4441POPC   C1B53817  25.030  29.335   6.832  0.2754  0.0682  0.0740
 4441POPC   C2B53818  25.102  29.518   6.384  0.2136  0.0215  0.2250
 4441POPC   C3B53819  25.012  29.393   5.982  0.1471  0.0852 -0.1210
 4441POPC   C4B53820  24.841  29.071   5.711  0.2787 -0.4406 -0.1900
 4442POPC   NC353821  14.417  17.426   7.500 -0.0981 -0.1152 -0.0693
 4442POPC   PO453822  14.527  17.094   7.625  0.0937  0.1788 -0.1440
 4442POPC   GL153823  14.486  17.022   7.352 -0.0564 -0.2413  0.0786
 4442POPC   GL253824  14.748  17.037   7.185  0.1395  0.1537 -0.0119
 4442POPC   C1A53825  14.405  16.765   6.947  0.3958 -0.1883  0.0522
 4442POPC   D2A53826  14.481  16.704   6.498  0.2353 -0.1671  0.2124
 4442POPC   C3A53827  14.447  16.568   6.033 -0.1624  0.0176 -0.4110
 4442POPC   C4A53828  14.387  16.514   5.568  0.1477  0.2571  0.0617
 4442POPC   C1B53829  14.714  17.014   6.734 -0.1129 -0.1336  0.0669
 4442POPC   C2B53830  14.823  17.099   6.339  0.2873  0.0639 -0.2157
 4442POPC   C3B53831  14.976  17.134   5.880  0.0259  0.0720 -0.3213
 4442POPC   C4B53832  15.165  16.870   5.643 -0.1049 -0.0221 -0.0689
 4443POPC   NC353833   1.370  14.481   8.075 -0.0323 -0.1951 -0.0672
 4443POPC   PO453834   1.450  14.116   8.163 -0.2482  0.0647  0.1407
 4443POPC   GL153835   1.423  14.133   7.748 -0.2271 -0.1810 -0.1389
 4443POPC   GL253836   1.228  14.149   7.504  0.0024  0.1238 -0.2116
 4443POPC   C1A53837   1.853  14.032   7.572 -0.0446 -0.2075 -0.2460
 4443POPC   D2A53838   2.289  14.116   7.537  0.0223 -0.0671  0.0076
 4443POPC   C3A53839   2.593  14.169   7.203 -0.2129  0.2569 -0.1243
 4443POPC   C4A53840   2.674  14.194   6.762  0.0987  0.2230 -0.1967
 4443POPC   C1B53841   1.560  14.217   7.155 -0.3462  0.1751 -0.0828
 4443POPC   C2B53842   1.671  14.289   6.730  0.0657  0.0123  0.0661
 4443POPC   C3B53843   1.891  14.142   6.322 -0.0144 -0.1350  0.1327
 4443POPC   C4B53844   2.131  13.823   5.996  0.1660  0.5059 -0.1454
 4444POPC   NC353845  26.338  13.493   7.593 -0.1570 -0.1743  0.0808
 4444POPC   PO453846  26.649  13.768   7.695 -0.1466  0.3256 -0.1191
 4444POPC   GL153847  26.470  13.840   7.271  0.0518  0.3340  0.1228
 4444POPC   GL253848  26.641  13.974   7.107 -0.3149  0.0915 -0.1317
 4444POPC   C1A53849  26.253  13.676   6.929  0.0746 -0.3820  0.2964
 4444POPC   D2A53850  25.857  13.832   6.775  0.0396  0.0258 -0.1106
 4444POPC   C3A53851  25.706  13.700   6.351  0.0854 -0.3342  0.2906
 4444POPC   C4A53852  25.477  13.807   5.907  0.2226 -0.1733  0.2956
 4444POPC   C1B53853  26.559  13.970   6.657 -0.2298 -0.1468 -0.1119
 4444POPC   C2B53854  26.260  13.807   6.402 -0.1673  0.2242 -0.1645
 4444POPC   C3B53855  26.141  13.504   6.060 -0.1063 -0.0307  0.2373
 4444POPC   C4B53856  26.190  13.273   5.671  0.2714  0.0314 -0.1078
 4445POPC   NC353857  29.565  26.491   8.121 -0.2877  0.1529 -0.2018
 4445POPC   PO453858  29.647  26.870   8.286 -0.1636 -0.1048 -0.0401
 4445POPC   GL153859  29.610  26.971   7.882  0.0249 -0.2089  0.0955
 4445POPC   GL253860  29.514  27.236   7.907  0.3352 -0.0831  0.0267
 4445POPC   C1A53861  29.774  27.019   7.458 -0.2068  0.0625 -0.0419
 4445POPC   D2A53862  29.721  27.321   7.095 -0.0872 -0.1804  0.2763
 4445POPC   C3A53863  30.054  27.492   6.778 -0.2657  0.0271 -0.2676
 4445POPC   C4A53864  30.320  27.804   6.571 -0.0625  0.2507  0.3423
 4445POPC   C1B53865  29.523  27.465   7.526  0.1715  0.0744 -0.0250
 4445POPC   C2B53866  29.791  27.791   7.334 -0.0730  0.2907 -0.2104
 4445POPC   C3B53867  30.192  27.846   7.123  0.1382 -0.1446 -0.0493
 4445POPC   C4B53868  30.421  28.187   6.868  0.2182 -0.0005  0.3004
 4446POPC   NC353869  21.935  16.485   7.732  0.2449 -0.0502  0.0163
 4446POPC   PO453870  21.590  16.414   7.588  0.0294  0.0605  0.0717
 4446POPC   GL153871  21.629  16.452   7.235 -0.3436  0.3028 -0.2424
 4446POPC   GL253872  21.932  16.453   7.196  0.0116  0.1207  0.0546
 4446POPC   C1A53873  21.490  16.247   6.848  0.3019  0.1732 -0.0465
 4446POPC   D2A53874  21.453  16.227   6.392  0.3178  0.0042  0.0996
 4446POPC   C3A53875  21.873  16.204   6.164 -0.0679  0.1417  0.2654
 4446POPC   C4A53876  22.044  15.766   6.089  0.0026 -0.3055 -0.1072
 4446POPC   C1B53877  22.245  16.480   6.792 -0.3438 -0.0952  0.0534
 4446POPC   C2B53878  22.325  16.614   6.377 -0.0045 -0.1025 -0.0599
 4446POPC   C3B53879  22.368  16.734   5.950 -0.0694 -0.1111 -0.1226
 4446POPC   C4B53880  22.458  16.629   5.450  0.0936  0.2180  0.1959
 4447POPC   NC353881  13.697  16.441   7.451 -0.1411  0.1590 -0.1555
 4447POPC   PO453882  13.575  16.821   7.537  0.1007 -0.0072  0.0222
 4447POPC   GL153883  13.439  16.680   7.135  0.0265  0.0599 -0.0148
 4447POPC   GL253884  13.485  16.441   7.028  0.2291 -0.0558  0.1321
 4447POPC   C1A53885  13.304  16.647   6.673  0.5139 -0.0180  0.0397
 4447POPC   D2A53886  13.041  16.677   6.302 -0.2806  0.1021 -0.2308
 4447POPC   C3A53887  13.100  16.362   5.956  0.0596  0.2033  0.0776
 4447POPC   C4A53888  13.154  16.009   5.653  0.3487  0.4114  0.0879
 4447POPC   C1B53889  13.044  16.486   7.065  0.0584  0.0132  0.3503
 4447POPC   C2B53890  12.805  16.401   6.716  0.1600  0.1444  0.3118
 4447POPC   C3B53891  12.618  16.261   6.327  0.2217  0.0827  0.1267
 4447POPC   C4B53892  12.321  16.312   5.997  0.0581 -0.2371 -0.2337
 4448POPC   NC353893  12.595  13.589   7.709  0.1467 -0.2669  0.1134
 4448POPC   PO453894  12.881  13.320   7.655  0.0312 -0.4772 -0.2148
 4448POPC   GL153895  12.817  13.436   7.232 -0.2818 -0.1144  0.0475
 4448POPC   GL253896  13.048  13.291   7.165  0.0406 -0.1468 -0.1713
 4448POPC   C1A53897  12.601  13.589   6.823 -0.1188 -0.1615 -0.3072
 4448POPC   D2A53898  12.200  13.469   6.754 -0.2082  0.1965  0.2427
 4448POPC   C3A53899  12.260  13.296   6.318 -0.0580 -0.4461  0.2383
 4448POPC   C4A53900  12.288  13.581   5.975  0.1160 -0.1453  0.1179
 4448POPC   C1B53901  12.833  13.167   6.739 -0.0125 -0.1247  0.2993
 4448POPC   C2B53902  12.707  13.023   6.286  0.2431 -0.0139  0.1138
 4448POPC   C3B53903  12.776  13.003   5.812  0.1073 -0.1720  0.0500
 4448POPC   C4B53904  12.983  13.244   5.488  0.0736 -0.0268  0.0053
 4449POPC   NC353905  17.225  13.850   7.660 -0.1391  0.0824  0.0041
 4449POPC   PO453906  17.592  13.912   7.736  0.0872  0.0518 -0.1274
 4449POPC   GL153907  17.627  13.921   7.388 -0.2235  0.0803 -0.4222
 4449POPC   GL253908  17.863  13.748   7.283 -0.2237 -0.2860  0.2585
 4449POPC   C1A53909  17.347  13.998   7.002  0.0189 -0.0082  0.1882
 4449POPC   D2A53910  17.049  14.096   6.666 -0.1352  0.0776  0.1391
 4449POPC   C3A53911  16.764  14.425   6.523 -0.2013  0.0220 -0.0130
 4449POPC   C4A53912  16.344  14.522   6.669 -0.1585 -0.0365  0.2409
 4449POPC   C1B53913  17.764  13.704   6.799  0.5262 -0.0930  0.2453
 4449POPC   C2B53914  17.996  13.751   6.370  0.0017  0.1053  0.0510
 4449POPC   C3B53915  18.176  13.630   5.961  0.1359  0.1385 -0.1492
 4449POPC   C4B53916  18.280  13.311   5.755 -0.0069 -0.1310 -0.0179
 4450POPC   NC353917   5.586   6.505   8.187 -0.0889  0.2016 -0.4523
 4450POPC   PO453918   5.229   6.700   8.273 -0.0338  0.1665  0.2074
 4450POPC   GL153919   5.444   6.991   8.103  0.4068  0.1800 -0.2576
 4450POPC   GL253920   5.446   7.251   8.196  0.0495  0.0749 -0.1952
 4450POPC   C1A53921   5.762   6.981   7.807 -0.0801  0.0328 -0.1977
 4450POPC   D2A53922   6.056   6.962   7.395 -0.0825 -0.0424 -0.4025
 4450POPC   C3A53923   5.865   7.169   7.006 -0.2610  0.0190 -0.1682
 4450POPC   C4A53924   5.867   7.548   6.742 -0.2462 -0.2946  0.0598
 4450POPC   C1B53925   5.804   7.501   8.242  0.1480 -0.1043 -0.1792
 4450POPC   C2B53926   6.224   7.735   8.146  0.2667 -0.3049  0.2064
 4450POPC   C3B53927   6.562   7.555   7.821 -0.0430 -0.3251 -0.2099
 4450POPC   C4B53928   6.830   7.664   7.457  0.0704  0.0682 -0.0170
 4451POPC   NC353929  22.194   0.558   7.859 -0.0663  0.1551 -0.2272
 4451POPC   PO453930  22.191   0.312   7.537 -0.1716 -0.0736 -0.0271
 4451POPC   GL153931  22.385   0.312   7.221  0.3569  0.0429 -0.4127
 4451POPC   GL253932  22.178   0.409   7.004 -0.0028  0.2709  0.0346
 4451POPC   C1A53933  22.562  -0.030   6.921 -0.1975  0.2763 -0.0855
 4451POPC   D2A53934  22.835  -0.374   6.881 -0.1652 -0.2359  0.0723
 4451POPC   C3A53935  22.974  -0.512   6.497 -0.1778 -0.0591 -0.0769
 4451POPC   C4A53936  23.110  -0.606   6.047  0.2235 -0.0211 -0.1489
 4451POPC   C1B53937  22.375   0.247   6.592  0.2213 -0.2289  0.0975
 4451POPC   C2B53938  22.433   0.180   6.109 -0.0320 -0.1262  0.1039
 4451POPC   C3B53939  22.521   0.040   5.696  0.3358  0.1432  0.1787
 4451POPC   C4B53940  22.688  -0.197   5.349  0.1267  0.1148  0.1022
 4452POPC   NC353941   3.061  18.109   7.898 -0.1336  0.0930 -0.2221
 4452POPC   PO453942   3.410  17.851   7.881 -0.0385  0.0311  0.0193
 4452POPC   GL153943   3.466  17.910   7.468  0.0520 -0.2214 -0.0725
 4452POPC   GL253944   3.466  17.566   7.316 -0.0354 -0.1667 -0.1202
 4452POPC   C1A53945   3.473  18.279   7.130 -0.0660 -0.1200  0.1639
 4452POPC   D2A53946   3.296  18.645   6.898  0.0100 -0.2871  0.1612
 4452POPC   C3A53947   3.256  18.569   6.420 -0.2152  0.3649  0.0174
 4452POPC   C4A53948   3.270  18.178   6.201  0.3428 -0.0095 -0.3130
 4452POPC   C1B53949   3.504  17.751   6.890 -0.2855  0.3900  0.3846
 4452POPC   C2B53950   3.792  17.663   6.544  0.1950 -0.0630 -0.1567
 4452POPC   C3B53951   4.153  17.568   6.385 -0.0769  0.0958  0.4422
 4452POPC   C4B53952   4.351  17.187   6.307 -0.2471  0.4391 -0.2380
 4453POPC   NC353953  24.128  20.784   7.546 -0.0692  0.1299  0.2405
 4453POPC   PO453954  24.180  20.395   7.553  0.0840  0.0698 -0.0949
 4453POPC   GL153955  24.319  20.138   7.199  0.3287 -0.0075 -0.1408
 4453POPC   GL253956  24.411  20.416   7.101 -0.2576  0.2453  0.0446
 4453POPC   C1A53957  24.682  20.058   6.945 -0.0706  0.1088  0.1020
 4453POPC   D2A53958  24.806  19.645   6.839  0.3655  0.1822 -0.0331
 4453POPC   C3A53959  24.525  19.362   6.539  0.1599 -0.1950  0.1670
 4453POPC   C4A53960  24.622  18.912   6.492  0.1440 -0.1104 -0.0278
 4453POPC   C1B53961  24.233  20.302   6.724  0.1301  0.1476 -0.2297
 4453POPC   C2B53962  24.226  20.202   6.258 -0.1847 -0.0587  0.3628
 4453POPC   C3B53963  24.267  20.376   5.845  0.0838  0.2994  0.0249
 4453POPC   C4B53964  24.245  20.155   5.451 -0.1520 -0.1468 -0.2635
 4454POPC   NC353965  17.465   2.796   7.616 -0.2384 -0.1139  0.3680
 4454POPC   PO453966  17.089   2.803   7.736  0.1803  0.1925  0.0382
 4454POPC   GL153967  17.013   2.758   7.340  0.1721 -0.0319  0.1317
 4454POPC   GL253968  17.198   2.459   7.388  0.0743 -0.3853  0.2853
 4454POPC   C1A53969  16.925   2.557   6.916  0.2214 -0.2232  0.2465
 4454POPC   D2A53970  16.976   2.462   6.447  0.0510  0.0495 -0.1393
 4454POPC   C3A53971  16.977   2.659   6.055 -0.0380  0.0070  0.1697
 4454POPC   C4A53972  17.073   3.034   5.836 -0.0091  0.2287  0.0732
 4454POPC   C1B53973  17.060   2.125   7.142  0.0072  0.0907 -0.0784
 4454POPC   C2B53974  17.027   1.988   6.697 -0.0764  0.1007 -0.2540
 4454POPC   C3B53975  16.849   1.830   6.293  0.0944 -0.2047  0.2100
 4454POPC   C4B53976  16.703   1.805   5.842  0.1450 -0.1209  0.2904
 4455POPC   NC353977  23.879  23.641   7.813 -0.2094  0.0717 -0.0892
 4455POPC   PO453978  23.910  24.000   7.719  0.0704 -0.3181  0.0312
 4455POPC   GL153979  24.041  24.019   7.318  0.0548 -0.3204  0.1392
 4455POPC   GL253980  23.730  24.194   7.313  0.0342 -0.0156  0.0622
 4455POPC   C1A53981  24.059  23.824   6.941 -0.0378 -0.0798 -0.0647
 4455POPC   D2A53982  24.416  23.796   6.642 -0.0826 -0.2880 -0.0749
 4455POPC   C3A53983  24.114  23.759   6.262 -0.2339 -0.1730  0.0440
 4455POPC   C4A53984  24.050  23.636   5.817 -0.2357 -0.0507 -0.1336
 4455POPC   C1B53985  23.779  24.319   6.900 -0.3360 -0.1394 -0.2356
 4455POPC   C2B53986  23.712  24.034   6.523 -0.0337 -0.1208 -0.2144
 4455POPC   C3B53987  23.584  23.980   6.099 -0.0032 -0.2685 -0.1259
 4455POPC   C4B53988  23.418  23.871   5.697 -0.0536 -0.1430  0.3145
 4456POPC   NC353989  30.216  11.088   7.863  0.2032  0.0304 -0.2246
 4456POPC   PO453990  30.574  10.900   7.933 -0.0140 -0.0799 -0.0620
 4456POPC   GL153991  30.490  10.933   7.503 -0.2249  0.0030 -0.1985
 4456POPC   GL253992  30.324  11.207   7.381 -0.0969  0.2184 -0.0946
 4456POPC   C1A53993  30.651  10.867   7.061  0.0838  0.1018  0.0793
 4456POPC   D2A53994  31.065  10.883   6.857 -0.0422 -0.0426  0.0343
 4456POPC   C3A53995  31.150  10.906   6.439  0.1004  0.3849 -0.0829
 4456POPC   C4A53996  31.210  10.743   6.002 -0.0637  0.0883 -0.1529
 4456POPC   C1B53997  30.316  11.305   6.920 -0.1992  0.0820 -0.0795
 4456POPC   C2B53998  30.327  11.300   6.423  0.1665  0.1052 -0.0568
 4456POPC   C3B53999  30.273  11.091   6.031 -0.2094 -0.0420  0.0040
 4456POPC   C4B54000  30.415  10.984   5.618  0.0786 -0.2079 -0.1798
 4457POPC   NC354001  20.899  15.190   7.489 -0.0181 -0.0013 -0.0987
 4457POPC   PO454002  21.246  15.124   7.390  0.3046 -0.1276  0.1213
 4457POPC   GL154003  21.429  15.346   7.111  0.3534  0.2037  0.5062
 4457POPC   GL254004  21.659  15.458   7.256  0.0667 -0.0533  0.1494
 4457POPC   C1A54005  21.357  15.262   6.650  0.4406  0.0756 -0.5374
 4457POPC   D2A54006  21.277  14.936   6.342  0.3273  0.1753 -0.3232
 4457POPC   C3A54007  21.587  14.932   6.011 -0.3124 -0.0521 -0.2685
 4457POPC   C4A54008  21.754  14.982   5.568 -0.1830  0.0500 -0.0734
 4457POPC   C1B54009  21.790  15.419   6.831 -0.1090 -0.0595  0.0002
 4457POPC   C2B54010  22.086  15.488   6.489  0.1630  0.3465 -0.0944
 4457POPC   C3B54011  22.435  15.446   6.158  0.0466  0.2971 -0.1588
 4457POPC   C4B54012  22.787  15.478   5.853 -0.1865  0.1048  0.1824
 4458POPC   NC354013  21.851  23.565   7.696  0.0195 -0.1918  0.2163
 4458POPC   PO454014  21.884  23.204   7.913 -0.0992 -0.1793 -0.4135
 4458POPC   GL154015  21.490  23.372   7.921  0.1012 -0.0642  0.3186
 4458POPC   GL254016  21.448  23.274   7.638  0.0767  0.0410  0.0819
 4458POPC   C1A54017  21.019  23.438   7.877  0.2707  0.4070  0.0727
 4458POPC   D2A54018  20.789  23.563   7.480 -0.1921 -0.1239 -0.1082
 4458POPC   C3A54019  20.596  23.268   7.198 -0.0312  0.1140  0.0176
 4458POPC   C4A54020  20.330  23.236   6.819  0.0097 -0.1901  0.0357
 4458POPC   C1B54021  21.089  23.212   7.392  0.0031  0.3279  0.1209
 4458POPC   C2B54022  21.077  23.258   6.962  0.0277  0.1213 -0.0124
 4458POPC   C3B54023  20.741  23.395   6.683 -0.0452 -0.2707 -0.0578
 4458POPC   C4B54024  20.545  23.162   6.372 -0.0276  0.0700  0.2163
 4459POPC   NC354025  26.178   0.609   7.522 -0.1912  0.0848  0.1864
 4459POPC   PO454026  26.149   0.204   7.473  0.0758 -0.3489  0.2431
 4459POPC   GL154027  25.826   0.208   7.210 -0.2640 -0.0585  0.0881
 4459POPC   GL254028  25.672  -0.009   7.262 -0.1808 -0.1089 -0.0887
 4459POPC   C1A54029  25.733   0.077   6.748 -0.1661 -0.2983 -0.1834
 4459POPC   D2A54030  25.877  -0.007   6.321  0.0824  0.3488  0.1187
 4459POPC   C3A54031  26.322  -0.133   6.289  0.1215  0.0006  0.2739
 4459POPC   C4A54032  26.680  -0.156   5.955 -0.3480 -0.2313  0.0949
 4459POPC   C1B54033  25.983  -0.299   7.018 -0.0476  0.1005 -0.1422
 4459POPC   C2B54034  25.950  -0.386   6.581 -0.1109  0.2158  0.0865
 4459POPC   C3B54035  25.727  -0.476   6.153 -0.0409 -0.0406  0.5360
 4459POPC   C4B54036  25.785  -0.220   5.764  0.0614  0.0167 -0.3435
 4460POPC   NC354037  26.194   8.351   8.263  0.0350 -0.0346  0.2174
 4460POPC   PO454038  26.458   8.516   8.025 -0.2123  0.1335 -0.0078
 4460POPC   GL154039  26.565   8.797   7.714 -0.3367 -0.2087  0.2456
 4460POPC   GL254040  26.269   8.820   7.668 -0.1987 -0.0191  0.4312
 4460POPC   C1A54041  26.844   8.735   7.365  0.1187  0.3415  0.2647
 4460POPC   D2A54042  26.784   8.508   6.960  0.2640  0.0230  0.0203
 4460POPC   C3A54043  26.864   8.768   6.538 -0.2307  0.0169  0.0407
 4460POPC   C4A54044  26.858   8.651   6.088 -0.0108 -0.1180  0.3703
 4460POPC   C1B54045  26.360   8.816   7.206 -0.2003 -0.0416  0.0194
 4460POPC   C2B54046  26.283   8.548   6.904  0.1180 -0.1480  0.3321
 4460POPC   C3B54047  26.519   8.381   6.506  0.2665 -0.0402 -0.0143
 4460POPC   C4B54048  26.700   8.168   6.096 -0.3366 -0.3934  0.0135
 4461POPC   NC354049   1.423   6.767   7.889 -0.0636 -0.3276  0.1838
 4461POPC   PO454050   1.660   6.993   7.669 -0.0522 -0.1545 -0.2706
 4461POPC   GL154051   1.356   6.964   7.451 -0.2070  0.0185  0.2666
 4461POPC   GL254052   1.276   6.692   7.274  0.1656 -0.1357 -0.0886
 4461POPC   C1A54053   1.345   7.157   6.982 -0.0991  0.0056  0.0590
 4461POPC   D2A54054   1.405   7.163   6.564 -0.0334 -0.0746  0.1397
 4461POPC   C3A54055   1.357   7.493   6.186  0.2368  0.0373  0.1350
 4461POPC   C4A54056   1.628   7.608   5.841  0.1317  0.0837 -0.1291
 4461POPC   C1B54057   1.489   6.643   6.846 -0.0658  0.4339  0.0047
 4461POPC   C2B54058   1.488   6.681   6.353 -0.0990  0.1146 -0.1286
 4461POPC   C3B54059   1.395   6.995   6.019 -0.1008  0.4450 -0.2293
 4461POPC   C4B54060   1.520   7.086   5.564 -0.1105 -0.1343  0.3028
 4462POPC   NC354061  13.870  20.316   7.623  0.0460 -0.0638  0.1985
 4462POPC   PO454062  13.959  19.945   7.549 -0.0066 -0.1074  0.1413
 4462POPC   GL154063  14.190  20.021   7.148 -0.1626  0.1705 -0.2206
 4462POPC   GL254064  14.262  19.752   7.063 -0.2213 -0.3154  0.0458
 4462POPC   C1A54065  14.056  20.165   6.755 -0.1625 -0.2700  0.0060
 4462POPC   D2A54066  13.955  20.215   6.316  0.0078  0.1794 -0.0616
 4462POPC   C3A54067  14.078  20.017   5.917 -0.0996  0.3047  0.1361
 4462POPC   C4A54068  14.059  19.869   5.493 -0.1039  0.2896 -0.1073
 4462POPC   C1B54069  14.182  19.693   6.576  0.1789  0.2826  0.1334
 4462POPC   C2B54070  14.294  19.714   6.175 -0.1994 -0.0328 -0.0787
 4462POPC   C3B54071  14.466  19.731   5.715  0.0180 -0.0120 -0.0084
 4462POPC   C4B54072  14.832  19.566   5.555 -0.0820 -0.1782  0.0456
 4463POPC   NC354073   7.715  30.022   7.938  0.0979  0.1190  0.0345
 4463POPC   PO454074   7.402  29.996   7.691  0.0132 -0.0178  0.0323
 4463POPC   GL154075   7.384  30.116   7.331 -0.5008 -0.0889 -0.0550
 4463POPC   GL254076   7.495  29.872   7.231  0.2476 -0.2519 -0.0193
 4463POPC   C1A54077   7.240  30.216   6.898 -0.4224  0.0622  0.2398
 4463POPC   D2A54078   7.123  30.392   6.462 -0.1531 -0.2465 -0.3296
 4463POPC   C3A54079   7.034  30.402   6.022  0.1545  0.1599 -0.0132
 4463POPC   C4A54080   6.932  30.391   5.573  0.0826  0.1767  0.1951
 4463POPC   C1B54081   7.424  29.791   6.808  0.2589 -0.1495 -0.1191
 4463POPC   C2B54082   7.220  29.952   6.420 -0.1761  0.1665 -0.1366
 4463POPC   C3B54083   7.434  29.788   6.000  0.1301 -0.1436 -0.1124
 4463POPC   C4B54084   7.588  29.708   5.574  0.1397  0.0991 -0.1818
 4464POPC   NC354085  22.804  19.196   7.433  0.1639  0.2285 -0.4477
 4464POPC   PO454086  23.179  19.198   7.559  0.1953  0.1952 -0.0603
 4464POPC   GL154087  23.318  19.119   7.282  0.0886  0.0525  0.1635
 4464POPC   GL254088  23.394  19.322   7.137 -0.0163  0.0284 -0.0118
 4464POPC   C1A54089  23.541  18.901   6.907 -0.2803 -0.0095  0.2815
 4464POPC   D2A54090  23.697  18.878   6.477  0.0196 -0.1460  0.2465
 4464POPC   C3A54091  23.409  18.596   6.201 -0.0605  0.3302 -0.1185
 4464POPC   C4A54092  23.239  18.330   5.859  0.0798 -0.1504 -0.2728
 4464POPC   C1B54093  23.425  19.386   6.690  0.3978 -0.2572 -0.2181
 4464POPC   C2B54094  23.583  19.473   6.255 -0.2079 -0.1612  0.0685
 4464POPC   C3B54095  23.788  19.417   5.883  0.2937 -0.1031  0.1800
 4464POPC   C4B54096  23.982  19.243   5.462  0.4184 -0.1575  0.1307
 4465POPC   NC354097   2.671   9.016   7.772  0.1629  0.0296  0.0030
 4465POPC   PO454098   2.519   8.646   7.832 -0.1227  0.1669  0.0339
 4465POPC   GL154099   2.399   8.549   7.479 -0.1063  0.3120 -0.0796
 4465POPC   GL254100   2.524   8.698   7.302 -0.0589 -0.1705 -0.0282
 4465POPC   C1A54101   2.109   8.523   7.130 -0.0961 -0.0466 -0.0302
 4465POPC   D2A54102   2.092   8.278   6.741 -0.1726  0.3094  0.1168
 4465POPC   C3A54103   1.820   8.398   6.459  0.0875 -0.0399 -0.3352
 4465POPC   C4A54104   1.414   8.305   6.200  0.1913  0.5521  0.0542
 4465POPC   C1B54105   2.499   8.556   6.860 -0.2790 -0.1426 -0.1364
 4465POPC   C2B54106   2.438   8.513   6.391 -0.1640 -0.1561 -0.0081
 4465POPC   C3B54107   2.515   8.516   5.941  0.1091 -0.1734 -0.0517
 4465POPC   C4B54108   2.581   8.301   5.503  0.1179  0.1170  0.0361
 4466POPC   NC354109  14.827   6.720   7.932 -0.2218 -0.0646 -0.2070
 4466POPC   PO454110  14.762   7.116   7.995  0.0339  0.1883 -0.0404
 4466POPC   GL154111  14.696   7.063   7.526  0.2811 -0.2570 -0.0723
 4466POPC   GL254112  14.390   7.042   7.608  0.0562  0.0497 -0.1550
 4466POPC   C1A54113  14.686   7.306   7.103 -0.1064  0.2754  0.0316
 4466POPC   D2A54114  14.704   7.603   6.771 -0.0010 -0.3166  0.0574
 4466POPC   C3A54115  15.023   7.484   6.412  0.4918  0.0859 -0.0546
 4466POPC   C4A54116  15.312   7.698   6.110  0.1408  0.0303  0.0680
 4466POPC   C1B54117  14.233   7.129   7.199 -0.2567  0.1249 -0.4086
 4466POPC   C2B54118  14.194   7.176   6.758 -0.2290 -0.0401 -0.3571
 4466POPC   C3B54119  14.058   7.204   6.303 -0.0384 -0.1023 -0.1374
 4466POPC   C4B54120  14.162   7.223   5.895 -0.0631 -0.0295 -0.0055
 4467POPC   NC354121   4.591  18.110   7.546 -0.1347 -0.0725  0.0319
 4467POPC   PO454122   4.282  17.922   7.593 -0.1821  0.5215  0.0155
 4467POPC   GL154123   4.528  17.641   7.381 -0.1210 -0.0718  0.1921
 4467POPC   GL254124   4.478  17.374   7.370  0.5688  0.0753  0.0431
 4467POPC   C1A54125   4.782  17.856   7.059  0.0277  0.1609  0.1180
 4467POPC   D2A54126   5.137  17.858   6.723  0.0325 -0.0093  0.0422
 4467POPC   C3A54127   4.978  17.872   6.262 -0.0105 -0.2113 -0.0636
 4467POPC   C4A54128   5.107  17.817   5.782  0.0735  0.0478  0.1162
 4467POPC   C1B54129   4.469  17.516   6.918  0.0319 -0.1349 -0.1789
 4467POPC   C2B54130   4.688  17.481   6.499 -0.0206 -0.1432 -0.1931
 4467POPC   C3B54131   4.758  17.475   6.034 -0.2096  0.1812  0.0582
 4467POPC   C4B54132   4.643  17.728   5.638  0.1124  0.1514 -0.1874
 4468POPC   NC354133  18.498  19.986   8.476  0.1472  0.2679 -0.0939
 4468POPC   PO454134  18.523  20.144   8.116 -0.1503 -0.2248  0.1292
 4468POPC   GL154135  18.366  20.132   7.767 -0.2770 -0.1321 -0.3345
 4468POPC   GL254136  18.606  20.167   7.584  0.2530  0.0381  0.2344
 4468POPC   C1A54137  18.100  20.216   7.432  0.1845  0.1227 -0.1192
 4468POPC   D2A54138  17.825  19.903   7.323  0.0704  0.0042  0.0079
 4468POPC   C3A54139  18.034  19.733   6.942 -0.2695 -0.0240 -0.4092
 4468POPC   C4A54140  18.324  19.758   6.581  0.1675  0.2919  0.0337
 4468POPC   C1B54141  18.578  20.531   7.364 -0.4203  0.0498  0.3287
 4468POPC   C2B54142  18.313  20.663   6.978 -0.1540  0.0372  0.0517
 4468POPC   C3B54143  18.150  20.783   6.538 -0.1098 -0.0873  0.0211
 4468POPC   C4B54144  17.979  21.127   6.220  0.2058  0.1827  0.0553
 4469POPC   NC354145  19.300  31.342   7.746  0.0412 -0.1581  0.0744
 4469POPC   PO454146  19.571  31.520   7.525 -0.0786  0.0243 -0.1385
 4469POPC   GL154147  19.531  31.320   7.135  0.3163  0.4298  0.1347
 4469POPC   GL254148  19.510  31.586   6.941  0.2495  0.0796 -0.3293
 4469POPC   C1A54149  19.639  30.955   6.827  0.1045 -0.0657  0.1641
 4469POPC   D2A54150  19.704  30.712   6.419 -0.0796  0.3094 -0.1117
 4469POPC   C3A54151  19.722  30.531   6.018  0.1311  0.3035 -0.1638
 4469POPC   C4A54152  19.607  30.083   5.943  0.1448  0.2454 -0.4512
 4469POPC   C1B54153  19.561  31.783   6.504 -0.1520  0.3721  0.1108
 4469POPC   C2B54154  19.776  31.610   6.163 -0.1372 -0.1343  0.1032
 4469POPC   C3B54155  19.751  31.781   5.747  0.1933 -0.0738  0.0365
 4469POPC   C4B54156  19.612  32.140   5.475  0.0918  0.1104 -0.0997
 4470POPC   NC354157  18.667  28.084   7.966 -0.2678  0.0205  0.3801
 4470POPC   PO454158  18.331  28.010   7.871 -0.1264  0.0932  0.0387
 4470POPC   GL154159  18.406  27.750   7.541 -0.3031  0.3015  0.0512
 4470POPC   GL254160  18.645  27.695   7.407 -0.2869 -0.1338  0.2376
 4470POPC   C1A54161  18.134  27.525   7.192  0.2299  0.0320  0.1641
 4470POPC   D2A54162  17.839  27.347   6.864 -0.1720 -0.0212 -0.0335
 4470POPC   C3A54163  18.039  27.131   6.531  0.1055  0.0661  0.1179
 4470POPC   C4A54164  18.341  26.909   6.301 -0.0500  0.0666  0.1041
 4470POPC   C1B54165  18.552  27.584   6.926  0.0200 -0.4242  0.1153
 4470POPC   C2B54166  18.502  27.457   6.469 -0.0128 -0.0590  0.0529
 4470POPC   C3B54167  18.245  27.428   6.076 -0.2952 -0.1217 -0.0057
 4470POPC   C4B54168  17.721  27.378   6.023  0.1065  0.0551 -0.1250
 4471POPC   NC354169  30.471  10.417   7.910 -0.0918  0.2006 -0.1054
 4471POPC   PO454170  30.403  10.077   7.711  0.1358  0.0251  0.1768
 4471POPC   GL154171  30.549  10.137   7.414 -0.2098 -0.2429 -0.3430
 4471POPC   GL254172  30.479  10.495   7.428  0.1039  0.2254 -0.0838
 4471POPC   C1A54173  30.293   9.954   7.025  0.1296 -0.0657 -0.1922
 4471POPC   D2A54174  30.094  10.210   6.665  0.1268  0.0018  0.0556
 4471POPC   C3A54175  30.445  10.261   6.361  0.0469  0.1018 -0.0544
 4471POPC   C4A54176  30.568  10.207   5.886  0.1881 -0.0908 -0.2182
 4471POPC   C1B54177  30.483  10.448   6.930  0.5028  0.1329 -0.0229
 4471POPC   C2B54178  30.621  10.655   6.603  0.0596 -0.1455 -0.3132
 4471POPC   C3B54179  30.703  10.867   6.204 -0.2793 -0.2316  0.2602
 4471POPC   C4B54180  30.847  11.146   5.832  0.1331 -0.0606 -0.2527
 4472POPC   NC354181   4.381  28.625   7.802 -0.1855  0.0592  0.0317
 4472POPC   PO454182   4.723  28.625   7.628 -0.0269 -0.0819  0.0347
 4472POPC   GL154183   4.593  28.867   7.272 -0.1579  0.1827  0.1240
 4472POPC   GL254184   4.873  28.920   7.120 -0.0730  0.0714  0.1404
 4472POPC   C1A54185   4.457  28.710   6.840 -0.2197 -0.1089  0.0072
 4472POPC   D2A54186   4.342  28.595   6.438  0.2097 -0.2933  0.2130
 4472POPC   C3A54187   4.068  28.235   6.300 -0.1946 -0.1299 -0.3272
 4472POPC   C4A54188   4.226  27.954   5.967  0.2411 -0.0589  0.0950
 4472POPC   C1B54189   4.935  29.202   6.733 -0.2528 -0.2453 -0.1452
 4472POPC   C2B54190   4.868  29.273   6.250 -0.1708  0.1926  0.2902
 4472POPC   C3B54191   4.831  29.559   5.895 -0.1286  0.0236  0.1314
 4472POPC   C4B54192   4.460  29.762   5.599 -0.2263  0.2016  0.1159
 4473POPC   NC354193  25.312   0.296   7.505 -0.4315 -0.1441 -0.1365
 4473POPC   PO454194  25.653   0.447   7.608  0.1466  0.2346 -0.2089
 4473POPC   GL154195  25.711   0.615   7.279  0.2965 -0.2204  0.0745
 4473POPC   GL254196  25.516   0.488   7.108  0.0718 -0.0133  0.1430
 4473POPC   C1A54197  26.019   0.568   6.891  0.0134  0.3180  0.0607
 4473POPC   D2A54198  26.424   0.731   6.691 -0.1400 -0.1974 -0.2578
 4473POPC   C3A54199  26.487   0.934   6.303  0.1953  0.3352 -0.0436
 4473POPC   C4A54200  26.581   0.909   5.847  0.1688 -0.3483 -0.0459
 4473POPC   C1B54201  25.583   0.741   6.717 -0.3267  0.0893 -0.3593
 4473POPC   C2B54202  25.565   0.897   6.306  0.0071  0.1893 -0.0081
 4473POPC   C3B54203  25.828   1.201   6.146 -0.0638  0.0872  0.0054
 4473POPC   C4B54204  26.212   1.436   6.256  0.0327  0.0757 -0.4076
 4474POPC   NC354205   1.310  30.370   7.984 -0.1487 -0.0681 -0.4840
 4474POPC   PO454206   1.025  30.557   7.780 -0.1361 -0.0085  0.0685
 4474POPC   GL154207   1.032  30.625   7.408 -0.0557  0.3905 -0.1190
 4474POPC   GL254208   0.775  30.613   7.318 -0.0863 -0.0664 -0.1216
 4474POPC   C1A54209   1.366  30.779   7.133  0.1245 -0.1812  0.1629
 4474POPC   D2A54210   1.515  30.772   6.669 -0.0439  0.2889  0.0675
 4474POPC   C3A54211   1.278  30.727   6.237  0.2259 -0.1714 -0.0544
 4474POPC   C4A54212   1.033  30.849   5.879  0.0159 -0.1294  0.1087
 4474POPC   C1B54213   0.504  30.474   6.936 -0.2777 -0.2589 -0.0233
 4474POPC   C2B54214   0.523  30.221   6.528  0.2182  0.2099 -0.1718
 4474POPC   C3B54215   0.485  30.214   6.057 -0.0887  0.1274 -0.2225
 4474POPC   C4B54216   0.146  30.038   5.800 -0.0828  0.1435 -0.0345
 4475POPC   NC354217   0.956  25.481   8.103  0.0779 -0.0656 -0.0714
 4475POPC   PO454218   0.982  25.833   7.953 -0.0397  0.1326  0.0884
 4475POPC   GL154219   0.869  25.946   7.496 -0.2606 -0.2709 -0.1957
 4475POPC   GL254220   1.182  25.932   7.391  0.1055  0.1601  0.1200
 4475POPC   C1A54221   0.710  26.299   7.269  0.0029  0.5031 -0.0868
 4475POPC   D2A54222   0.676  26.362   6.746  0.1216 -0.0924 -0.2279
 4475POPC   C3A54223   0.501  26.325   6.309  0.1485  0.2772  0.1360
 4475POPC   C4A54224   0.520  26.396   5.867  0.1575 -0.0665 -0.0360
 4475POPC   C1B54225   1.039  26.053   6.994  0.2102  0.0558  0.1981
 4475POPC   C2B54226   1.084  26.216   6.556  0.1589  0.0873  0.2345
 4475POPC   C3B54227   1.363  25.962   6.236  0.0635 -0.2417  0.1190
 4475POPC   C4B54228   1.659  26.046   5.881  0.1982  0.0789  0.0861
 4476POPC   NC354229   8.650  23.785   7.602  0.0730 -0.1697  0.2566
 4476POPC   PO454230   9.057  23.827   7.544 -0.1215 -0.0375  0.1722
 4476POPC   GL154231   9.124  24.081   7.310 -0.0253 -0.1760 -0.3243
 4476POPC   GL254232   8.969  24.071   7.093  0.0076 -0.3452  0.0646
 4476POPC   C1A54233   9.471  24.042   6.973 -0.1349 -0.0696 -0.0146
 4476POPC   D2A54234   9.548  23.944   6.497 -0.2672 -0.2614  0.0489
 4476POPC   C3A54235   9.541  24.169   6.101 -0.0896  0.2247  0.0601
 4476POPC   C4A54236   9.236  24.154   5.755 -0.3202 -0.0955 -0.2904
 4476POPC   C1B54237   9.124  24.345   6.682 -0.0788  0.0115 -0.0400
 4476POPC   C2B54238   8.972  24.284   6.288  0.1507  0.2507 -0.2415
 4476POPC   C3B54239   8.736  24.017   5.939 -0.0741  0.0044  0.4221
 4476POPC   C4B54240   8.440  23.834   5.582  0.1173 -0.2576  0.0293
 4477POPC   NC354241  12.741  25.088   7.831  0.2125  0.2714 -0.0048
 4477POPC   PO454242  12.475  24.832   8.021  0.2213  0.3042 -0.1545
 4477POPC   GL154243  12.300  24.801   7.677 -0.0684 -0.1004 -0.4712
 4477POPC   GL254244  12.449  24.809   7.511 -0.2052  0.2018  0.0744
 4477POPC   C1A54245  11.939  24.703   7.354  0.4580 -0.3185  0.1004
 4477POPC   D2A54246  11.714  24.688   6.968 -0.0414 -0.1821 -0.3504
 4477POPC   C3A54247  11.938  25.021   6.724  0.2865  0.0528 -0.1000
 4477POPC   C4A54248  12.105  25.197   6.349  0.0473  0.1849 -0.0950
 4477POPC   C1B54249  12.393  24.822   7.057  0.2459 -0.0087  0.0389
 4477POPC   C2B54250  12.525  24.881   6.601 -0.1442  0.1354 -0.1748
 4477POPC   C3B54251  12.781  24.938   6.242  0.1018  0.0772 -0.0403
 4477POPC   C4B54252  12.841  24.522   5.957 -0.0857  0.0356  0.0054
 4478POPC   NC354253  11.994  28.140   7.871 -0.2135  0.0215  0.1729
 4478POPC   PO454254  11.760  27.909   7.699 -0.4145 -0.0491 -0.2348
 4478POPC   GL154255  11.699  27.703   7.423 -0.1691 -0.0395  0.2028
 4478POPC   GL254256  11.978  27.720   7.261 -0.1231  0.1376  0.0224
 4478POPC   C1A54257  11.477  27.601   7.078  0.0866 -0.1285  0.0863
 4478POPC   D2A54258  11.310  27.520   6.654  0.1885 -0.0866  0.0238
 4478POPC   C3A54259  11.366  27.353   6.251  0.0170 -0.1013 -0.1754
 4478POPC   C4A54260  11.195  27.342   5.859  0.1760  0.0741 -0.0509
 4478POPC   C1B54261  11.971  27.710   6.795  0.0476 -0.2727  0.1439
 4478POPC   C2B54262  12.300  27.668   6.476 -0.0124 -0.0018  0.2902
 4478POPC   C3B54263  12.716  27.658   6.290 -0.0407 -0.4743  0.1306
 4478POPC   C4B54264  13.022  27.473   6.043  0.2054  0.1246  0.1030
 4479POPC   NC354265  31.435   9.035   7.737 -0.0172  0.0463 -0.1030
 4479POPC   PO454266  31.043   9.108   7.732 -0.2215 -0.0703 -0.1089
 4479POPC   GL154267  31.074   9.268   7.380  0.1342  0.0305  0.2553
 4479POPC   GL254268  30.879   9.022   7.283  0.0222 -0.1333  0.0943
 4479POPC   C1A54269  31.537   9.237   7.217 -0.1918 -0.0852 -0.2202
 4479POPC   D2A54270  32.004   9.440   7.170 -0.1646  0.1476  0.0987
 4479POPC   C3A54271  32.167   9.740   6.873 -0.1373  0.0191 -0.0266
 4479POPC   C4A54272  32.602   9.835   6.792 -0.0039  0.0017  0.0225
 4479POPC   C1B54273  31.092   9.175   6.920 -0.1561  0.1627  0.1385
 4479POPC   C2B54274  31.335   9.241   6.507  0.2829 -0.0557  0.0856
 4479POPC   C3B54275  31.287   9.147   6.073  0.1017 -0.1127  0.1387
 4479POPC   C4B54276  31.193   9.485   5.829 -0.0076  0.1676  0.0519
 4480POPC   NC354277  17.428  10.568   8.150 -0.0723 -0.1333 -0.4799
 4480POPC   PO454278  17.149  10.339   8.272  0.1327  0.0420 -0.1599
 4480POPC   GL154279  17.082  10.337   7.856  0.2207 -0.1020 -0.2106
 4480POPC   GL254280  16.991  10.046   7.809  0.1799 -0.2963  0.2134
 4480POPC   C1A54281  17.429  10.246   7.598 -0.1227  0.1299 -0.0059
 4480POPC   D2A54282  17.652  10.469   7.222 -0.1054  0.2878 -0.0300
 4480POPC   C3A54283  17.711  10.267   6.840  0.1745  0.0875  0.0181
 4480POPC   C4A54284  17.615   9.816   6.786 -0.2644  0.2992  0.0078
 4480POPC   C1B54285  17.009   9.981   7.333 -0.0166 -0.3890  0.0612
 4480POPC   C2B54286  17.158   9.754   6.938  0.0758  0.2523  0.3530
 4480POPC   C3B54287  17.283   9.629   6.485 -0.0497  0.0768  0.2830
 4480POPC   C4B54288  17.018   9.313   6.207  0.0446  0.1621  0.0097
 4481POPC   NC354289  31.489   5.974   7.695 -0.1508  0.0498 -0.2656
 4481POPC   PO454290  31.096   5.979   7.688  0.4355 -0.0548  0.0070
 4481POPC   GL154291  30.871   6.040   7.342 -0.5467  0.1161  0.0789
 4481POPC   GL254292  31.083   6.035   7.165 -0.1892  0.0845  0.0220
 4481POPC   C1A54293  30.647   5.722   7.133 -0.1195 -0.3067 -0.2439
 4481POPC   D2A54294  30.633   5.244   7.151 -0.2657  0.0147 -0.0057
 4481POPC   C3A54295  30.531   4.985   6.778  0.1282 -0.1805  0.1429
 4481POPC   C4A54296  30.467   4.920   6.349 -0.0903 -0.0118 -0.0311
 4481POPC   C1B54297  31.047   5.880   6.732 -0.0804 -0.0959  0.3961
 4481POPC   C2B54298  30.898   6.050   6.295  0.4097 -0.0161 -0.1486
 4481POPC   C3B54299  30.895   6.177   5.899 -0.2532  0.0690 -0.0930
 4481POPC   C4B54300  30.931   6.099   5.441  0.0619 -0.0502  0.0847
 4482POPC   NC354301  11.427   3.569   8.087 -0.3060  0.2601  0.2699
 4482POPC   PO454302  11.586   3.454   7.734 -0.1239  0.0438  0.0783
 4482POPC   GL154303  11.518   3.253   7.394 -0.0684  0.2876 -0.3629
 4482POPC   GL254304  11.620   3.029   7.211 -0.0006  0.4124  0.2131
 4482POPC   C1A54305  11.245   3.326   7.016  0.3414 -0.0872 -0.1246
 4482POPC   D2A54306  10.798   3.290   6.889  0.0921  0.1476  0.0149
 4482POPC   C3A54307  10.655   3.382   6.421 -0.0365 -0.1557  0.0546
 4482POPC   C4A54308  10.522   3.330   5.977  0.1212  0.3034 -0.0347
 4482POPC   C1B54309  11.539   2.990   6.765  0.0591  0.1192 -0.0296
 4482POPC   C2B54310  11.621   3.175   6.323 -0.2808 -0.0338  0.3878
 4482POPC   C3B54311  11.943   3.252   5.910  0.2003 -0.1536 -0.1696
 4482POPC   C4B54312  12.261   3.569   5.719  0.2455 -0.1076  0.1814
 4483POPC   NC354313  27.413  30.149   7.339 -0.1164  0.0303  0.1152
 4483POPC   PO454314  27.412  29.865   7.591  0.2071  0.2407 -0.0218
 4483POPC   GL154315  27.354  29.597   7.252 -0.1917 -0.1694  0.6059
 4483POPC   GL254316  27.281  29.305   7.255  0.2258  0.1040  0.1405
 4483POPC   C1A54317  27.054  29.508   6.876 -0.0072  0.0928  0.1096
 4483POPC   D2A54318  27.061  29.684   6.484 -0.1999 -0.1520  0.2613
 4483POPC   C3A54319  27.014  29.480   6.032 -0.1626 -0.4947  0.0034
 4483POPC   C4A54320  26.827  29.517   5.581 -0.2467  0.0484  0.1981
 4483POPC   C1B54321  27.527  29.356   6.835 -0.2379  0.2205 -0.0789
 4483POPC   C2B54322  27.712  29.130   6.503  0.0398 -0.0791  0.1111
 4483POPC   C3B54323  27.625  29.131   6.070 -0.0887  0.0563 -0.0273
 4483POPC   C4B54324  27.598  28.885   5.672 -0.1220  0.0338  0.1894
 4484POPC   NC354325  20.664   7.953   8.022  0.2241  0.1326 -0.0844
 4484POPC   PO454326  20.915   7.674   7.942  0.0278 -0.3659  0.0001
 4484POPC   GL154327  20.951   7.639   7.546 -0.2208 -0.0896  0.1975
 4484POPC   GL254328  20.695   7.649   7.440 -0.0228  0.1399 -0.0182
 4484POPC   C1A54329  21.094   7.278   7.320 -0.0880 -0.0197 -0.1765
 4484POPC   D2A54330  21.052   7.090   6.946 -0.3882  0.1485 -0.1160
 4484POPC   C3A54331  20.852   7.157   6.583  0.1949 -0.2180 -0.0714
 4484POPC   C4A54332  20.846   6.972   6.167  0.0293  0.4443  0.1952
 4484POPC   C1B54333  20.928   7.701   7.082 -0.2713 -0.0428  0.1004
 4484POPC   C2B54334  21.154   7.563   6.734 -0.0937 -0.0158 -0.1276
 4484POPC   C3B54335  21.229   7.357   6.292  0.1022 -0.2906 -0.2861
 4484POPC   C4B54336  21.431   7.440   5.939 -0.1906 -0.1611  0.4021
 4485POPC   NC354337   2.742  17.107   7.518 -0.0683 -0.3362 -0.1033
 4485POPC   PO454338   3.118  17.117   7.489  0.0972 -0.2566  0.1240
 4485POPC   GL154339   3.022  17.262   7.104 -0.1822 -0.3892 -0.1817
 4485POPC   GL254340   3.277  17.259   6.972  0.1993  0.2882 -0.0721
 4485POPC   C1A54341   2.783  17.090   6.729  0.0526 -0.0750  0.1713
 4485POPC   D2A54342   2.753  17.270   6.302 -0.0107 -0.1448  0.0308
 4485POPC   C3A54343   2.502  17.388   5.906  0.1866  0.0304  0.0664
 4485POPC   C4A54344   2.267  17.652   5.632 -0.0443 -0.2821  0.2303
 4485POPC   C1B54345   3.394  17.237   6.520 -0.1778  0.0189 -0.0256
 4485POPC   C2B54346   3.260  17.311   6.109  0.2742 -0.0368  0.0015
 4485POPC   C3B54347   2.953  17.309   5.737 -0.4228 -0.1413 -0.2901
 4485POPC   C4B54348   2.962  17.514   5.317  0.1454 -0.0448 -0.1379
 4486POPC   NC354349  29.798  23.651   8.137  0.1119  0.2037 -0.0207
 4486POPC   PO454350  29.471  23.866   8.048  0.1193 -0.0458  0.0613
 4486POPC   GL154351  29.227  23.767   7.657  0.4241 -0.1092  0.1361
 4486POPC   GL254352  29.376  23.996   7.577 -0.1043  0.0986 -0.0607
 4486POPC   C1A54353  29.103  23.433   7.324 -0.0003  0.0045  0.0279
 4486POPC   D2A54354  28.819  23.081   7.529 -0.3523 -0.0967  0.2571
 4486POPC   C3A54355  28.594  22.732   7.323  0.2890 -0.1313 -0.2630
 4486POPC   C4A54356  28.269  22.466   7.130 -0.0223 -0.1837  0.2636
 4486POPC   C1B54357  29.683  23.918   7.233 -0.0804  0.0018 -0.3328
 4486POPC   C2B54358  29.730  23.511   7.039  0.1096 -0.0141 -0.2277
 4486POPC   C3B54359  29.887  23.137   6.813  0.1984 -0.0612  0.0343
 4486POPC   C4B54360  30.095  22.813   6.829  0.0555 -0.0984  0.0745
 4487POPC   NC354361   3.638   4.706   8.124  0.2025  0.1023  0.2201
 4487POPC   PO454362   3.790   4.741   7.734  0.1839  0.0537  0.0986
 4487POPC   GL154363   3.783   4.525   7.420  0.1264  0.3287  0.1615
 4487POPC   GL254364   3.506   4.330   7.431  0.2179  0.2123 -0.0589
 4487POPC   C1A54365   3.605   4.701   7.075 -0.1698  0.0941 -0.0459
 4487POPC   D2A54366   3.662   4.859   6.650 -0.0042  0.2341 -0.0391
 4487POPC   C3A54367   3.595   4.560   6.221 -0.0672 -0.2802  0.1742
 4487POPC   C4A54368   3.298   4.486   5.908  0.0449  0.0106 -0.2574
 4487POPC   C1B54369   3.052   4.340   7.303  0.0127  0.1822  0.1383
 4487POPC   C2B54370   2.619   4.473   7.118  0.2309 -0.0554 -0.2114
 4487POPC   C3B54371   2.382   4.723   6.827  0.2899 -0.1362  0.1266
 4487POPC   C4B54372   1.983   4.835   6.607 -0.1058  0.1702 -0.2883
 4488POPC   NC354373  17.386  30.510   7.584 -0.1094 -0.0513 -0.1236
 4488POPC   PO454374  17.443  30.903   7.647  0.0806  0.0775  0.1915
 4488POPC   GL154375  17.030  30.895   7.361  0.2032 -0.1229  0.1739
 4488POPC   GL254376  17.134  30.684   7.187 -0.2029 -0.1579 -0.0923
 4488POPC   C1A54377  16.969  31.035   6.893 -0.2047  0.0083 -0.1140
 4488POPC   D2A54378  16.896  30.884   6.466 -0.0528 -0.2446 -0.3665
 4488POPC   C3A54379  17.283  30.668   6.354 -0.0254  0.0193  0.1174
 4488POPC   C4A54380  17.352  30.235   6.459  0.0371  0.1533 -0.1018
 4488POPC   C1B54381  17.451  30.690   6.842  0.0010 -0.0518  0.1711
 4488POPC   C2B54382  17.778  30.561   6.526 -0.1894  0.0451  0.2504
 4488POPC   C3B54383  18.074  30.483   6.142  0.1925 -0.0438  0.0999
 4488POPC   C4B54384  18.339  30.473   5.807 -0.1117  0.0046 -0.0239
 4489POPC   NC354385  16.737   5.850   7.571 -0.2060 -0.2930  0.1228
 4489POPC   PO454386  16.926   6.168   7.629  0.0204 -0.1643 -0.2546
 4489POPC   GL154387  16.945   6.131   7.228  0.7341  0.0282  0.1808
 4489POPC   GL254388  16.734   5.987   7.063 -0.0667 -0.0547  0.2636
 4489POPC   C1A54389  17.141   6.091   6.819 -0.2028 -0.0308 -0.2173
 4489POPC   D2A54390  17.293   6.076   6.354  0.0427 -0.2665 -0.0312
 4489POPC   C3A54391  17.138   6.107   5.948 -0.0379  0.0305 -0.0498
 4489POPC   C4A54392  16.946   6.046   5.513  0.2258  0.0392  0.1727
 4489POPC   C1B54393  16.582   6.388   7.053 -0.0366 -0.5762 -0.0529
 4489POPC   C2B54394  16.361   6.640   6.756 -0.3118  0.2231  0.0175
 4489POPC   C3B54395  16.322   6.925   6.402 -0.0132 -0.0290  0.0872
 4489POPC   C4B54396  16.629   6.808   6.017  0.1206 -0.4688  0.1054
 4490POPC   NC354397  19.319  28.753   8.122 -0.0975  0.3393  0.0617
 4490POPC   PO454398  19.549  28.454   8.025  0.1603 -0.1110 -0.2436
 4490POPC   GL154399  19.339  28.596   7.644 -0.1416 -0.0862  0.0204
 4490POPC   GL254400  19.102  28.467   7.752  0.1997  0.1675 -0.1237
 4490POPC   C1A54401  19.616  28.523   7.271 -0.3218 -0.0364  0.0132
 4490POPC   D2A54402  19.611  28.490   6.780  0.3539 -0.1322 -0.1761
 4490POPC   C3A54403  19.225  28.320   6.514  0.1154  0.3023 -0.1405
 4490POPC   C4A54404  18.769  28.294   6.420 -0.2047 -0.1166  0.2050
 4490POPC   C1B54405  19.056  28.139   7.466  0.0314 -0.0372  0.2475
 4490POPC   C2B54406  18.806  28.034   7.057 -0.1756 -0.0863  0.2020
 4490POPC   C3B54407  18.910  27.872   6.618  0.2099  0.0461 -0.0805
 4490POPC   C4B54408  18.910  27.876   6.168  0.4243 -0.0953  0.2146
 4491POPC   NC354409  13.553   8.345   7.498  0.1733  0.4512  0.1300
 4491POPC   PO454410  13.872   8.443   7.670 -0.1341  0.0280  0.1884
 4491POPC   GL154411  13.840   8.286   7.160 -0.0861  0.0097 -0.1246
 4491POPC   GL254412  14.065   8.565   7.183  0.1292 -0.1198  0.0317
 4491POPC   C1A54413  14.268   8.152   7.059 -0.3158 -0.0630 -0.1309
 4491POPC   D2A54414  14.626   8.056   6.766 -0.2305 -0.0571  0.0833
 4491POPC   C3A54415  14.599   7.867   6.358 -0.3479  0.4029 -0.2302
 4491POPC   C4A54416  14.834   7.738   5.983 -0.0891  0.0957  0.2516
 4491POPC   C1B54417  14.085   8.510   6.772  0.1175  0.0302  0.1770
 4491POPC   C2B54418  13.815   8.591   6.336  0.0640 -0.0410  0.0665
 4491POPC   C3B54419  13.708   8.416   5.896 -0.1657 -0.0023  0.0380
 4491POPC   C4B54420  13.438   8.384   5.522  0.1213  0.0147  0.1757
 4492POPC   NC354421  25.113   6.124   7.682  0.1477 -0.1757 -0.1173
 4492POPC   PO454422  24.870   5.830   7.592  0.0516  0.0046  0.1204
 4492POPC   GL154423  24.904   5.804   7.192 -0.3623 -0.2525 -0.1088
 4492POPC   GL254424  24.920   5.548   7.148  0.0778  0.0412 -0.2157
 4492POPC   C1A54425  24.739   5.998   6.818  0.0068 -0.1062 -0.2479
 4492POPC   D2A54426  24.842   5.931   6.386 -0.1243  0.2347  0.3366
 4492POPC   C3A54427  24.980   6.108   5.963  0.0565  0.2063 -0.3660
 4492POPC   C4A54428  24.989   6.429   5.617  0.1321 -0.0563  0.1858
 4492POPC   C1B54429  24.774   5.504   6.673  0.0410 -0.1117  0.1202
 4492POPC   C2B54430  24.850   5.443   6.239  0.1324 -0.1754 -0.0878
 4492POPC   C3B54431  24.720   5.636   5.809 -0.0386  0.0234 -0.1637
 4492POPC   C4B54432  24.632   6.027   5.563 -0.0275 -0.1372  0.2522
 4493POPC   NC354433  17.187  27.901   7.812  0.2176  0.1782  0.0692
 4493POPC   PO454434  17.176  28.320   7.715 -0.3557  0.2151 -0.1177
 4493POPC   GL154435  17.145  28.412   7.369  0.1325  0.1443 -0.1886
 4493POPC   GL254436  17.353  28.621   7.342  0.1573  0.0166  0.1361
 4493POPC   C1A54437  16.957  28.701   7.031  0.0446  0.3262  0.1450
 4493POPC   D2A54438  16.967  28.961   6.645 -0.0340  0.0595 -0.0773
 4493POPC   C3A54439  16.568  28.924   6.462 -0.0159 -0.4711 -0.1026
 4493POPC   C4A54440  16.358  28.878   6.125  0.2040 -0.0213 -0.3511
 4493POPC   C1B54441  17.662  28.684   7.007 -0.0743  0.1249 -0.1995
 4493POPC   C2B54442  17.918  28.913   6.771  0.1628  0.0029 -0.0700
 4493POPC   C3B54443  18.239  28.944   6.445 -0.1568  0.0751 -0.1479
 4493POPC   C4B54444  18.153  29.168   6.045 -0.1300  0.2363 -0.1754
 4494POPC   NC354445  12.581  31.146   7.678 -0.0377 -0.0245  0.0669
 4494POPC   PO454446  12.692  31.506   7.668 -0.4829 -0.0574 -0.3339
 4494POPC   GL154447  12.446  31.402   7.335  0.1831 -0.1866  0.1730
 4494POPC   GL254448  12.573  31.745   7.182 -0.1664  0.3587  0.0119
 4494POPC   C1A54449  12.073  31.625   7.104 -0.0110  0.0751 -0.0424
 4494POPC   D2A54450  11.758  31.628   6.737 -0.4100 -0.1940  0.0924
 4494POPC   C3A54451  11.613  31.943   6.426 -0.1116  0.1691  0.0305
 4494POPC   C4A54452  11.428  31.929   6.019 -0.0570  0.2195 -0.3207
 4494POPC   C1B54453  12.397  31.600   6.731 -0.0343 -0.2026 -0.2890
 4494POPC   C2B54454  12.325  31.431   6.267 -0.1945 -0.0184 -0.1329
 4494POPC   C3B54455  12.149  31.312   5.875  0.2788 -0.0585 -0.1420
 4494POPC   C4B54456  11.944  31.136   5.495 -0.0978  0.2566 -0.0971
 4495POPC   NC354457  30.056  18.851   7.506 -0.1051 -0.2501 -0.0753
 4495POPC   PO454458  30.306  18.947   7.799 -0.0511 -0.0309 -0.0680
 4495POPC   GL154459  30.237  19.271   7.476  0.0298 -0.0781  0.3694
 4495POPC   GL254460  30.382  19.157   7.279  0.0526 -0.1717  0.2210
 4495POPC   C1A54461  30.641  19.557   7.383  0.2323  0.0900  0.2292
 4495POPC   D2A54462  30.768  19.916   7.096  0.0282  0.0598  0.0082
 4495POPC   C3A54463  31.015  19.766   6.736 -0.1312 -0.1333 -0.1785
 4495POPC   C4A54464  31.049  19.806   6.323 -0.0532  0.0027 -0.1479
 4495POPC   C1B54465  30.650  19.391   6.921 -0.0099  0.0466  0.1376
 4495POPC   C2B54466  30.974  19.317   6.611 -0.1871 -0.3597  0.1804
 4495POPC   C3B54467  30.907  19.347   6.168 -0.2074 -0.0331 -0.1585
 4495POPC   C4B54468  31.232  19.512   5.829  0.1065 -0.0375 -0.2292
 4496POPC   NC354469  25.082  30.464   7.614  0.0350 -0.1329  0.1907
 4496POPC   PO454470  24.903  30.154   7.803  0.1656  0.2365  0.1306
 4496POPC   GL154471  25.023  30.038   7.385 -0.3358 -0.1281 -0.2066
 4496POPC   GL254472  24.785  30.234   7.319  0.1532  0.1036 -0.1434
 4496POPC   C1A54473  25.203  29.916   6.940 -0.0475  0.2801  0.0505
 4496POPC   D2A54474  25.596  29.747   6.722 -0.1181 -0.0565  0.1618
 4496POPC   C3A54475  25.677  29.970   6.329 -0.0880 -0.0694 -0.1289
 4496POPC   C4A54476  25.713  29.983   5.920  0.0559  0.3620 -0.0900
 4496POPC   C1B54477  24.968  30.450   6.944 -0.1492 -0.1079 -0.4145
 4496POPC   C2B54478  24.783  30.655   6.581 -0.0183 -0.0151 -0.2844
 4496POPC   C3B54479  24.823  30.862   6.166  0.1926 -0.3631  0.1249
 4496POPC   C4B54480  24.959  30.762   5.756  0.0586  0.1352  0.4391
 4497POPC   NC354481  26.408  15.187   8.248 -0.0061 -0.1231 -0.2321
 4497POPC   PO454482  26.555  15.121   7.929  0.1848  0.1371  0.0433
 4497POPC   GL154483  26.391  15.162   7.486  0.4136 -0.0369 -0.0180
 4497POPC   GL254484  26.652  15.185   7.357 -0.0577  0.2089  0.1805
 4497POPC   C1A54485  26.178  14.823   7.252  0.0047 -0.4231  0.2043
 4497POPC   D2A54486  26.304  14.721   6.841 -0.3964 -0.1257 -0.2781
 4497POPC   C3A54487  26.231  15.017   6.497  0.2865  0.1764  0.0989
 4497POPC   C4A54488  26.143  15.117   6.012 -0.1362 -0.0559 -0.2201
 4497POPC   C1B54489  26.397  15.214   6.943  0.1762 -0.1152  0.1586
 4497POPC   C2B54490  26.023  15.489   6.744 -0.1450  0.2006  0.0247
 4497POPC   C3B54491  25.860  15.404   6.322 -0.1461  0.0411  0.1498
 4497POPC   C4B54492  25.521  15.145   6.130 -0.1387  0.1514  0.0037
 4498POPC   NC354493   6.889   4.116   7.371  0.2075  0.0703 -0.3081
 4498POPC   PO454494   6.511   4.214   7.393 -0.1299 -0.2538  0.2214
 4498POPC   GL154495   6.403   4.307   7.086  0.0842 -0.3595 -0.0865
 4498POPC   GL254496   6.458   4.137   6.906 -0.2590 -0.2211  0.1680
 4498POPC   C1A54497   6.297   4.711   6.892 -0.0687  0.0897 -0.3604
 4498POPC   D2A54498   5.997   4.955   6.560  0.1617  0.1867  0.3564
 4498POPC   C3A54499   5.949   5.380   6.457  0.0194 -0.0432 -0.2366
 4498POPC   C4A54500   6.025   5.538   6.044 -0.1890  0.1611 -0.0942
 4498POPC   C1B54501   6.498   4.267   6.473  0.0806 -0.0853 -0.1863
 4498POPC   C2B54502   6.535   4.045   6.040 -0.0196  0.1244 -0.0893
 4498POPC   C3B54503   6.187   3.757   5.847  0.0029 -0.0823  0.1942
 4498POPC   C4B54504   6.033   3.384   5.588 -0.0108  0.1220  0.0679
 4499POPC   NC354505   1.737  25.342   8.057  0.3829 -0.2826 -0.0620
 4499POPC   PO454506   1.825  25.205   7.707 -0.0199  0.1413  0.0303
 4499POPC   GL154507   1.830  25.075   7.270 -0.2816 -0.2438  0.2302
 4499POPC   GL254508   2.184  25.059   7.243  0.2968  0.0845  0.0288
 4499POPC   C1A54509   1.901  24.680   7.037  0.0480 -0.1530  0.0078
 4499POPC   D2A54510   1.909  24.347   6.723 -0.0841 -0.0896 -0.0527
 4499POPC   C3A54511   2.071  24.365   6.234 -0.1851  0.1419 -0.4694
 4499POPC   C4A54512   2.135  24.060   5.948 -0.2166  0.0112  0.3031
 4499POPC   C1B54513   1.988  25.256   6.864  0.3154 -0.0403 -0.2492
 4499POPC   C2B54514   1.714  25.087   6.500 -0.2104  0.2407 -0.0306
 4499POPC   C3B54515   1.344  24.996   6.262  0.0050  0.1381 -0.1289
 4499POPC   C4B54516   1.395  24.805   5.866  0.1004  0.0850 -0.1561
 4500POPC   NC354517  27.663   2.222   7.809  0.1714  0.1924  0.0155
 4500POPC   PO454518  27.630   1.847   7.888  0.0585  0.3310  0.2243
 4500POPC   GL154519  27.605   1.782   7.470 -0.0668  0.0419 -0.2539
 4500POPC   GL254520  27.234   1.746   7.430 -0.1836  0.0670  0.2394
 4500POPC   C1A54521  27.551   1.800   7.039 -0.0445 -0.0694 -0.1635
 4500POPC   D2A54522  27.563   1.489   6.670 -0.1825 -0.1591  0.1402
 4500POPC   C3A54523  27.703   1.801   6.277  0.0735  0.0713 -0.3977
 4500POPC   C4A54524  27.482   1.916   5.903  0.0452 -0.0892 -0.2190
 4500POPC   C1B54525  27.086   2.085   7.081  0.0741  0.0623  0.0228
 4500POPC   C2B54526  27.024   2.269   6.703 -0.2972 -0.1605 -0.1998
 4500POPC   C3B54527  26.911   2.513   6.339 -0.1860 -0.0317  0.3826
 4500POPC   C4B54528  26.794   2.908   6.148  0.0104 -0.3132 -0.2822
 4501POPC   NC354529   2.456  11.988   8.083  0.1276 -0.0543 -0.2931
 4501POPC   PO454530   2.345  11.590   8.096 -0.0516  0.0413 -0.1083
 4501POPC   GL154531   2.406  11.725   7.742 -0.3023 -0.0700  0.0657
 4501POPC   GL254532   2.171  11.650   7.614 -0.0168 -0.0359 -0.1927
 4501POPC   C1A54533   2.555  12.148   7.573 -0.1526 -0.2365  0.0635
 4501POPC   D2A54534   2.642  12.548   7.351 -0.3265  0.1694  0.1633
 4501POPC   C3A54535   2.819  12.442   6.928  0.3278 -0.0089  0.0638
 4501POPC   C4A54536   2.873  12.557   6.480  0.1419 -0.0310 -0.0073
 4501POPC   C1B54537   2.067  11.829   7.177 -0.1475 -0.1227  0.1918
 4501POPC   C2B54538   2.174  11.944   6.715 -0.1130  0.0435 -0.1739
 4501POPC   C3B54539   2.071  11.955   6.213 -0.2848 -0.3083 -0.0755
 4501POPC   C4B54540   1.931  12.433   6.154 -0.0455 -0.1661  0.0170
 4502POPC   NC354541  24.070  18.762   8.909  0.2520 -0.1757 -0.1299
 4502POPC   PO454542  24.030  18.789   8.525 -0.3267  0.2239  0.2971
 4502POPC   GL154543  23.931  18.424   8.311 -0.0457 -0.1378 -0.2264
 4502POPC   GL254544  24.058  18.342   8.070  0.1421 -0.1171  0.0876
 4502POPC   C1A54545  23.545  18.460   8.033  0.0307  0.0817  0.2149
 4502POPC   D2A54546  23.252  18.328   7.700  0.2004 -0.3178  0.2147
 4502POPC   C3A54547  23.454  17.934   7.610  0.0462 -0.0224  0.1767
 4502POPC   C4A54548  23.701  17.578   7.559 -0.2093  0.1625 -0.0403
 4502POPC   C1B54549  23.894  18.289   7.662 -0.3332  0.2097 -0.1183
 4502POPC   C2B54550  23.778  18.044   7.292 -0.0444  0.3058 -0.0604
 4502POPC   C3B54551  23.448  17.746   7.111  0.1044  0.2200  0.1752
 4502POPC   C4B54552  23.282  17.363   7.086 -0.0740  0.1993  0.2298
 4503POPC   NC354553  13.682  14.340   7.846  0.1344  0.1982  0.0774
 4503POPC   PO454554  13.807  14.313   7.478 -0.1302  0.0035  0.1208
 4503POPC   GL154555  13.750  14.360   7.121 -0.1048 -0.1177  0.1698
 4503POPC   GL254556  13.590  14.593   6.992  0.1585 -0.2226 -0.1938
 4503POPC   C1A54557  13.509  14.084   6.828 -0.0707  0.2179 -0.0967
 4503POPC   D2A54558  13.546  13.857   6.414 -0.0359  0.1098  0.0118
 4503POPC   C3A54559  13.518  14.038   5.990  0.1351  0.1557 -0.3764
 4503POPC   C4A54560  13.215  14.260   5.761  0.0216 -0.2361 -0.2342
 4503POPC   C1B54561  13.593  14.506   6.504 -0.1686 -0.1274 -0.2990
 4503POPC   C2B54562  13.540  14.504   6.060  0.2129 -0.1079 -0.2441
 4503POPC   C3B54563  13.333  14.761   5.687  0.1048 -0.0429  0.0331
 4503POPC   C4B54564  13.187  15.139   5.457 -0.1445 -0.2410  0.1995
 4504POPC   NC354565  11.501   2.128   7.871  0.3180 -0.1076  0.0388
 4504POPC   PO454566  11.788   2.307   7.688  0.1506 -0.1186  0.0646
 4504POPC   GL154567  11.903   2.412   7.309  0.0304  0.2503 -0.0793
 4504POPC   GL254568  12.054   2.208   7.174  0.0136  0.0238 -0.1778
 4504POPC   C1A54569  11.924   2.505   6.836  0.1059 -0.1562  0.1123
 4504POPC   D2A54570  11.829   2.763   6.466 -0.1202  0.1877  0.3015
 4504POPC   C3A54571  11.917   2.649   6.001 -0.3013  0.1257  0.1903
 4504POPC   C4A54572  12.348   2.462   5.879  0.0298  0.1331 -0.0896
 4504POPC   C1B54573  12.415   2.284   6.960  0.0971 -0.0164 -0.0694
 4504POPC   C2B54574  12.655   2.301   6.596  0.1888  0.1710  0.2795
 4504POPC   C3B54575  12.658   2.122   6.178 -0.0732  0.1668  0.0457
 4504POPC   C4B54576  12.584   2.062   5.698  0.0297  0.0076  0.0932
 4505POPC   NC354577  31.593  17.662   8.117 -0.0077 -0.0475 -0.0439
 4505POPC   PO454578  31.366  17.761   7.824  0.1995 -0.1801  0.2711
 4505POPC   GL154579  31.317  18.093   7.682  0.1870 -0.1499  0.2890
 4505POPC   GL254580  31.366  18.041   7.400  0.2694 -0.1384 -0.0491
 4505POPC   C1A54581  31.116  18.519   7.560  0.0903 -0.3228 -0.4310
 4505POPC   D2A54582  30.972  18.968   7.615 -0.1279 -0.2191 -0.0950
 4505POPC   C3A54583  30.965  19.393   7.670 -0.1232 -0.2433  0.0054
 4505POPC   C4A54584  31.235  19.665   7.974  0.0068  0.3136  0.1324
 4505POPC   C1B54585  31.467  18.461   7.249 -0.0011  0.1396 -0.1898
 4505POPC   C2B54586  31.531  18.796   6.910  0.5147  0.0429 -0.5241
 4505POPC   C3B54587  31.581  19.223   6.970 -0.0921  0.0398 -0.0908
 4505POPC   C4B54588  31.430  19.489   6.678 -0.0622 -0.1193  0.0593
 4506POPC   NC354589  11.864  11.634   7.968 -0.0020 -0.3630  0.0958
 4506POPC   PO454590  12.113  11.922   7.928 -0.0231  0.2169 -0.3623
 4506POPC   GL154591  11.971  12.151   7.652  0.1273 -0.2187 -0.0380
 4506POPC   GL254592  11.747  12.319   7.829  0.0957 -0.0056  0.3849
 4506POPC   C1A54593  11.793  12.509   7.373  0.0631 -0.2501 -0.2673
 4506POPC   D2A54594  11.415  12.603   7.175 -0.2165  0.1833 -0.1053
 4506POPC   C3A54595  11.298  12.858   6.820  0.0589  0.0113  0.0325
 4506POPC   C4A54596  11.056  12.766   6.406  0.0354  0.1101  0.0853
 4506POPC   C1B54597  11.565  12.082   7.454  0.0725  0.1815  0.1072
 4506POPC   C2B54598  11.239  11.948   7.148  0.1224 -0.1241  0.1526
 4506POPC   C3B54599  10.901  11.993   6.836  0.0978 -0.1356 -0.0595
 4506POPC   C4B54600  10.522  11.971   6.573 -0.1511  0.0211  0.3481
 4507POPC   NC354601  29.894  22.177   7.519  0.0561 -0.0796  0.0658
 4507POPC   PO454602  30.222  21.988   7.633 -0.5641  0.1827 -0.1966
 4507POPC   GL154603  30.462  21.925   7.318  0.1375 -0.0538  0.0738
 4507POPC   GL254604  30.413  21.599   7.356 -0.0720  0.0285 -0.2667
 4507POPC   C1A54605  30.163  21.799   6.951  0.1841  0.1426  0.0463
 4507POPC   D2A54606  30.184  21.350   6.768 -0.5351 -0.1660 -0.0994
 4507POPC   C3A54607  30.477  21.231   6.410 -0.0295  0.0209 -0.1120
 4507POPC   C4A54608  30.752  21.371   6.094  0.0528  0.0249  0.0245
 4507POPC   C1B54609  30.628  21.560   6.944 -0.0492 -0.3354  0.0634
 4507POPC   C2B54610  30.935  21.821   6.651 -0.0329  0.2696  0.0650
 4507POPC   C3B54611  31.276  22.088   6.480  0.0992  0.1795  0.0891
 4507POPC   C4B54612  31.559  22.220   6.155 -0.1097 -0.3106 -0.2932
 4508POPC   NC354613  18.565  16.776   7.869 -0.0160 -0.0233 -0.2317
 4508POPC   PO454614  18.882  17.027   8.018 -0.0182  0.0079 -0.1506
 4508POPC   GL154615  19.005  17.164   7.663 -0.0352 -0.0389 -0.0893
 4508POPC   GL254616  18.779  17.230   7.555  0.2126 -0.1361 -0.2361
 4508POPC   C1A54617  19.218  17.147   7.280  0.1132  0.0255 -0.1413
 4508POPC   D2A54618  19.563  17.226   6.922  0.3271 -0.0554  0.1543
 4508POPC   C3A54619  19.469  17.371   6.518 -0.0187  0.1104  0.1669
 4508POPC   C4A54620  19.313  17.592   6.113  0.2180  0.3827 -0.4964
 4508POPC   C1B54621  18.726  17.426   7.141  0.0600 -0.3749  0.0052
 4508POPC   C2B54622  18.494  17.579   6.738 -0.2541  0.0052 -0.0189
 4508POPC   C3B54623  18.342  17.806   6.386  0.0869 -0.0341 -0.1020
 4508POPC   C4B54624  17.983  17.884   6.096 -0.0551 -0.3069  0.2238
 4509POPC   NC354625  12.259  25.751   7.881  0.3363 -0.0949 -0.0725
 4509POPC   PO454626  12.605  25.556   7.796  0.1804  0.0276  0.2008
 4509POPC   GL154627  12.431  25.564   7.503 -0.1084  0.2516  0.0528
 4509POPC   GL254628  12.581  25.287   7.338 -0.3511  0.0480 -0.0652
 4509POPC   C1A54629  12.533  25.805   7.131 -0.1065 -0.3286 -0.0444
 4509POPC   D2A54630  12.490  25.874   6.652  0.1166 -0.0710  0.0361
 4509POPC   C3A54631  12.228  25.790   6.303 -0.0791  0.1318  0.3016
 4509POPC   C4A54632  11.884  25.540   6.012 -0.1985 -0.0005 -0.1422
 4509POPC   C1B54633  12.847  25.229   6.970 -0.3180  0.1553  0.0310
 4509POPC   C2B54634  13.082  25.149   6.562  0.1406 -0.1466  0.1583
 4509POPC   C3B54635  13.288  25.042   6.199 -0.1999 -0.0408  0.1368
 4509POPC   C4B54636  13.126  25.051   5.766  0.0748 -0.1758  0.0277
 4510POPC   NC354637  11.130  16.376   7.867 -0.2181 -0.0093 -0.0433
 4510POPC   PO454638  11.007  16.622   7.532  0.2006 -0.0192 -0.1588
 4510POPC   GL154639  10.911  16.865   7.220 -0.1571 -0.1291 -0.3827
 4510POPC   GL254640  10.692  16.636   7.087  0.0135  0.0399  0.2304
 4510POPC   C1A54641  11.112  16.777   6.824 -0.0705  0.2398  0.3013
 4510POPC   D2A54642  11.027  16.584   6.378 -0.1129  0.0136 -0.2122
 4510POPC   C3A54643  10.763  16.803   6.043  0.1576 -0.1897  0.1763
 4510POPC   C4A54644  10.443  16.862   5.654  0.0639 -0.3250  0.0076
 4510POPC   C1B54645  10.614  16.738   6.660  0.0817 -0.1208  0.0233
 4510POPC   C2B54646  10.399  16.587   6.305  0.1870 -0.1199  0.1099
 4510POPC   C3B54647  10.164  16.583   5.923  0.3452 -0.2336  0.2407
 4510POPC   C4B54648   9.877  16.860   5.668 -0.0571  0.0026  0.0455
 4511POPC   NC354649  18.561   9.951   8.723 -0.0665  0.1009 -0.1241
 4511POPC   PO454650  18.553   9.984   8.308  0.1809  0.2288 -0.2605
 4511POPC   GL154651  18.573   9.698   7.944 -0.0055  0.3966 -0.0056
 4511POPC   GL254652  18.324   9.488   7.847  0.0777 -0.3327 -0.1193
 4511POPC   C1A54653  18.963   9.449   7.774  0.0721  0.0575  0.1610
 4511POPC   D2A54654  19.375   9.412   7.544 -0.1608 -0.2336  0.0366
 4511POPC   C3A54655  19.500   9.536   7.103  0.0719 -0.0662 -0.2494
 4511POPC   C4A54656  19.318   9.483   6.732  0.3191  0.1596  0.1757
 4511POPC   C1B54657  18.006   9.430   7.505 -0.3560  0.1019 -0.1269
 4511POPC   C2B54658  17.769   9.398   7.102 -0.0583  0.1121  0.1472
 4511POPC   C3B54659  17.671   9.343   6.602 -0.1284  0.0825 -0.2083
 4511POPC   C4B54660  17.481   9.027   6.326 -0.1479  0.0312 -0.0272
 4512POPC   NC354661  13.976  25.227   7.721  0.0479 -0.2323 -0.0177
 4512POPC   PO454662  14.328  25.360   7.714 -0.0734  0.2100  0.3044
 4512POPC   GL154663  14.251  25.358   7.330  0.2989  0.0462  0.1184
 4512POPC   GL254664  13.935  25.331   7.207  0.0252 -0.0054 -0.0808
 4512POPC   C1A54665  14.333  25.543   6.891  0.0992  0.2853  0.0408
 4512POPC   D2A54666  14.695  25.798   6.687 -0.0353  0.1871 -0.0101
 4512POPC   C3A54667  14.789  25.442   6.479 -0.1309 -0.3508  0.1149
 4512POPC   C4A54668  14.738  25.128   6.152  0.0813 -0.0074  0.0344
 4512POPC   C1B54669  13.860  25.272   6.801 -0.3473 -0.1843 -0.0116
 4512POPC   C2B54670  13.754  25.203   6.356 -0.0277  0.2567  0.1705
 4512POPC   C3B54671  13.746  25.041   5.968 -0.2599 -0.0039 -0.2078
 4512POPC   C4B54672  13.539  25.266   5.612 -0.2847 -0.0324  0.1384
 4513POPC   NC354673   7.106  11.915   7.668  0.0982 -0.1379  0.0357
 4513POPC   PO454674   6.760  11.820   7.518  0.1828  0.1281  0.0458
 4513POPC   GL154675   6.977  11.989   7.198 -0.1773 -0.0702  0.0063
 4513POPC   GL254676   6.838  11.760   6.963  0.1501 -0.2078 -0.0903
 4513POPC   C1A54677   7.081  12.037   6.750 -0.1776 -0.2956  0.2150
 4513POPC   D2A54678   7.134  12.185   6.324 -0.0531 -0.0317 -0.1800
 4513POPC   C3A54679   6.990  12.029   5.984 -0.2076  0.0172 -0.0476
 4513POPC   C4A54680   6.666  11.923   5.729  0.1982 -0.2361  0.0927
 4513POPC   C1B54681   6.774  11.566   6.504 -0.4017  0.2274  0.0128
 4513POPC   C2B54682   6.770  11.568   6.044 -0.2741  0.2000  0.3316
 4513POPC   C3B54683   6.641  11.435   5.633 -0.1551 -0.1149 -0.0352
 4513POPC   C4B54684   6.509  11.026   5.420  0.0748  0.0116  0.2861
 4514POPC   NC354685  22.740  11.705   8.189 -0.0308 -0.0297 -0.1442
 4514POPC   PO454686  22.458  11.590   7.980 -0.0886  0.0430  0.2198
 4514POPC   GL154687  22.285  11.439   7.582 -0.2325 -0.3588  0.2222
 4514POPC   GL254688  22.425  11.294   7.434 -0.2805  0.2872  0.0434
 4514POPC   C1A54689  22.214  11.655   7.160  0.0150  0.2266 -0.2123
 4514POPC   D2A54690  22.063  11.999   6.930  0.0634 -0.3017 -0.1811
 4514POPC   C3A54691  22.061  12.280   6.562  0.0348 -0.0008  0.0156
 4514POPC   C4A54692  22.342  12.595   6.410 -0.0372  0.1368  0.2199
 4514POPC   C1B54693  22.573  11.201   6.983 -0.4183 -0.1351 -0.1380
 4514POPC   C2B54694  22.525  11.217   6.528 -0.1473 -0.2919  0.1044
 4514POPC   C3B54695  22.312  11.281   6.116  0.4176 -0.2495 -0.2701
 4514POPC   C4B54696  22.494  11.341   5.664 -0.0856 -0.0605 -0.1525
 4515POPC   NC354697  19.644  16.086   7.719  0.1776 -0.0785  0.4726
 4515POPC   PO454698  19.814  15.893   7.392  0.0026 -0.0959  0.0600
 4515POPC   GL154699  19.599  15.855   7.035  0.0778 -0.0425 -0.0005
 4515POPC   GL254700  19.300  16.061   7.027  0.1377 -0.3891 -0.1787
 4515POPC   C1A54701  19.444  15.961   6.597  0.2544 -0.1177  0.1039
 4515POPC   D2A54702  19.327  16.205   6.211 -0.1824  0.0947 -0.1887
 4515POPC   C3A54703  18.861  16.101   6.309  0.0289 -0.3525 -0.1968
 4515POPC   C4A54704  18.531  16.286   6.552 -0.0442  0.0695  0.2429
 4515POPC   C1B54705  19.125  16.359   6.750 -0.3283  0.2239  0.1389
 4515POPC   C2B54706  18.824  16.691   6.602  0.1700 -0.1805 -0.1123
 4515POPC   C3B54707  18.611  16.839   6.207  0.1209 -0.0293 -0.2127
 4515POPC   C4B54708  18.623  16.815   5.725 -0.0221 -0.2247  0.0949
 4516POPC   NC354709   0.389  23.034   7.472  0.1138  0.1722 -0.2921
 4516POPC   PO454710   0.718  23.245   7.594  0.1700  0.0268  0.1954
 4516POPC   GL154711   0.722  23.353   7.166  0.1404 -0.0264 -0.2677
 4516POPC   GL254712   0.426  23.460   7.222 -0.0554 -0.0278  0.1148
 4516POPC   C1A54713   0.975  23.507   6.824 -0.3961 -0.1943 -0.2835
 4516POPC   D2A54714   0.994  23.799   6.433 -0.1293 -0.1577  0.3186
 4516POPC   C3A54715   1.269  23.863   6.044  0.1370  0.2173 -0.0712
 4516POPC   C4A54716   1.462  23.686   5.657 -0.1249  0.2866 -0.2693
 4516POPC   C1B54717   0.394  23.680   6.806 -0.0395 -0.0046  0.0116
 4516POPC   C2B54718   0.509  23.922   6.363  0.1765  0.2530 -0.0055
 4516POPC   C3B54719   0.298  23.979   5.976 -0.0836 -0.1715 -0.2688
 4516POPC   C4B54720   0.025  23.810   5.676  0.0979 -0.1135 -0.2296
 4517POPC   NC354721   9.988   4.468   7.573 -0.3695 -0.2094 -0.2698
 4517POPC   PO454722   9.985   4.871   7.600 -0.2467  0.1494  0.1345
 4517POPC   GL154723   9.843   4.942   7.146  0.2959 -0.6984 -0.2774
 4517POPC   GL254724   9.624   4.813   7.022  0.0802 -0.0127  0.1760
 4517POPC   C1A54725   9.992   4.970   6.699 -0.4051  0.2516 -0.1314
 4517POPC   D2A54726  10.067   5.326   6.448  0.0253  0.1390 -0.1193
 4517POPC   C3A54727  10.138   5.182   6.047  0.0404 -0.1038 -0.0264
 4517POPC   C4A54728  10.508   4.923   5.947  0.4106  0.1607 -0.1475
 4517POPC   C1B54729   9.356   4.589   6.708 -0.0517 -0.1735  0.0518
 4517POPC   C2B54730   9.094   4.788   6.363  0.0684  0.0858 -0.0300
 4517POPC   C3B54731   8.697   4.641   6.088 -0.3038  0.0066 -0.1027
 4517POPC   C4B54732   8.393   4.267   5.975 -0.1667  0.3313 -0.0455
 4518POPC   NC354733  22.711   2.318   7.810 -0.0074 -0.0953 -0.0449
 4518POPC   PO454734  22.697   2.722   7.909 -0.3541  0.1099  0.1175
 4518POPC   GL154735  22.654   2.724   7.491 -0.1172 -0.1347  0.0045
 4518POPC   GL254736  22.914   2.917   7.373  0.1546 -0.2860  0.1325
 4518POPC   C1A54737  22.605   2.691   7.006  0.0421  0.0828 -0.6790
 4518POPC   D2A54738  22.385   2.751   6.646  0.0777 -0.0673  0.0530
 4518POPC   C3A54739  22.411   2.649   6.250  0.1827 -0.3830  0.0564
 4518POPC   C4A54740  22.372   2.385   5.882 -0.1010 -0.0490  0.0291
 4518POPC   C1B54741  23.071   2.669   6.938 -0.1000  0.2806 -0.1134
 4518POPC   C2B54742  22.811   2.580   6.582 -0.0519  0.0406 -0.0442
 4518POPC   C3B54743  22.557   2.226   6.342 -0.1177 -0.0810 -0.0928
 4518POPC   C4B54744  22.220   1.913   6.398 -0.1096  0.0548 -0.1095
 4519POPC   NC354745  30.433  15.187   7.824  0.1738 -0.0522  0.3591
 4519POPC   PO454746  30.229  15.516   7.910 -0.2011  0.1178  0.2021
 4519POPC   GL154747  30.196  15.695   7.587  0.1107 -0.0667  0.2222
 4519POPC   GL254748  30.377  15.552   7.367  0.1540 -0.1264 -0.4153
 4519POPC   C1A54749  29.823  15.681   7.332 -0.2724 -0.1254  0.1288
 4519POPC   D2A54750  29.747  15.647   6.887 -0.0408 -0.1798  0.1127
 4519POPC   C3A54751  30.010  15.515   6.505  0.2698  0.0022 -0.1570
 4519POPC   C4A54752  30.058  15.402   6.026  0.0517  0.0612 -0.4243
 4519POPC   C1B54753  30.213  15.493   6.906  0.2997  0.0222 -0.2931
 4519POPC   C2B54754  30.480  15.538   6.556  0.1847  0.1180 -0.0291
 4519POPC   C3B54755  30.516  15.259   6.155  0.2708 -0.0703 -0.0430
 4519POPC   C4B54756  30.882  15.057   5.999 -0.0373  0.1894  0.1489
 4520POPC   NC354757  18.392  10.512   8.268 -0.0700 -0.1926  0.1427
 4520POPC   PO454758  18.801  10.429   8.317  0.0124 -0.2718  0.1914
 4520POPC   GL154759  18.727  10.259   7.897  0.1784 -0.2901  0.1606
 4520POPC   GL254760  18.420  10.157   7.849  0.3437  0.1557  0.0558
 4520POPC   C1A54761  18.783   9.952   7.578 -0.2894  0.1840  0.1348
 4520POPC   D2A54762  18.864   9.641   7.269 -0.2570  0.0385  0.4299
 4520POPC   C3A54763  18.852   9.629   6.786  0.0946  0.1370 -0.0903
 4520POPC   C4A54764  18.935   9.848   6.366 -0.2176  0.1480  0.0488
 4520POPC   C1B54765  18.537  10.396   7.508  0.1062  0.0248  0.0410
 4520POPC   C2B54766  18.737  10.562   7.083  0.1745  0.0624  0.0740
 4520POPC   C3B54767  18.724  10.770   6.654  0.0529 -0.1685 -0.1119
 4520POPC   C4B54768  18.905  10.712   6.222 -0.0567  0.1958  0.1217
 4521POPC   NC354769   2.635  22.855   7.405 -0.0007  0.2036  0.0907
 4521POPC   PO454770   2.675  22.592   7.659 -0.1740 -0.1640 -0.1830
 4521POPC   GL154771   2.981  22.485   7.421 -0.1525  0.1180  0.2075
 4521POPC   GL254772   2.819  22.389   7.196  0.0397 -0.0439 -0.1145
 4521POPC   C1A54773   3.087  22.666   6.962 -0.1416 -0.0536  0.1463
 4521POPC   D2A54774   3.489  22.499   6.699  0.3430  0.0352 -0.1171
 4521POPC   C3A54775   3.326  22.703   6.313  0.1592 -0.0860  0.1506
 4521POPC   C4A54776   3.359  22.633   5.859 -0.0030 -0.0170  0.0102
 4521POPC   C1B54777   2.868  22.288   6.788 -0.1958  0.0755  0.1020
 4521POPC   C2B54778   2.835  22.429   6.341 -0.2951  0.1248  0.1840
 4521POPC   C3B54779   2.820  22.190   5.896 -0.0537 -0.1984  0.0578
 4521POPC   C4B54780   2.711  22.365   5.477 -0.0374 -0.2349 -0.3882
 4522POPC   NC354781  25.866  24.319   7.417  0.2910  0.0241  0.1697
 4522POPC   PO454782  26.141  24.540   7.483 -0.3315  0.0981 -0.3988
 4522POPC   GL154783  26.099  24.742   7.149 -0.1624 -0.5090  0.2717
 4522POPC   GL254784  25.983  24.522   6.942  0.0100 -0.0777  0.1706
 4522POPC   C1A54785  26.209  24.963   6.772  0.3122 -0.0586 -0.2166
 4522POPC   D2A54786  26.488  24.898   6.405 -0.0920  0.2484  0.3079
 4522POPC   C3A54787  26.634  24.605   6.070 -0.0588 -0.2410 -0.1780
 4522POPC   C4A54788  26.876  24.383   5.730  0.0389 -0.0328 -0.0195
 4522POPC   C1B54789  26.135  24.518   6.453 -0.0062 -0.3856 -0.2320
 4522POPC   C2B54790  26.203  24.283   6.086  0.0074 -0.0658 -0.0634
 4522POPC   C3B54791  26.265  23.972   5.740 -0.2496  0.4411  0.1475
 4522POPC   C4B54792  26.634  23.919   5.436 -0.0513 -0.0437 -0.0631
 4523POPC   NC354793  24.716  22.983   7.805 -0.3494  0.1173  0.0305
 4523POPC   PO454794  24.630  22.655   7.737  0.1435  0.0976  0.1005
 4523POPC   GL154795  25.093  22.803   7.616 -0.2061 -0.2969 -0.0552
 4523POPC   GL254796  25.168  23.096   7.687  0.1296 -0.0922  0.1277
 4523POPC   C1A54797  25.541  22.628   7.712  0.1404  0.0093 -0.0867
 4523POPC   D2A54798  25.779  22.381   7.392  0.0529  0.1534  0.0164
 4523POPC   C3A54799  25.924  22.352   6.922  0.0076 -0.1012  0.1684
 4523POPC   C4A54800  26.232  22.409   6.555 -0.3385  0.1325  0.1111
 4523POPC   C1B54801  25.345  23.107   7.312 -0.1969  0.1891  0.0518
 4523POPC   C2B54802  25.152  23.281   6.960 -0.3172 -0.2912  0.2304
 4523POPC   C3B54803  24.889  23.507   6.691  0.2035  0.0468 -0.4519
 4523POPC   C4B54804  24.897  23.562   6.229  0.0516  0.0028 -0.1103
 4524POPC   NC354805  27.494   6.324   8.153 -0.0353 -0.0008  0.3891
 4524POPC   PO454806  27.641   6.049   7.953 -0.0735 -0.4067 -0.2867
 4524POPC   GL154807  27.795   6.017   7.579  0.0104  0.3149  0.1599
 4524POPC   GL254808  28.033   5.866   7.657 -0.0612  0.1323  0.0799
 4524POPC   C1A54809  27.914   6.137   7.127 -0.0529 -0.1886  0.0125
 4524POPC   D2A54810  27.723   5.895   6.815 -0.0689 -0.0794  0.3168
 4524POPC   C3A54811  27.614   6.105   6.387 -0.0447  0.1623  0.4457
 4524POPC   C4A54812  27.641   6.007   5.939 -0.2251 -0.0838  0.1240
 4524POPC   C1B54813  28.024   5.655   7.219 -0.2391 -0.1664 -0.2260
 4524POPC   C2B54814  27.853   5.373   6.964  0.0517 -0.3083 -0.1322
 4524POPC   C3B54815  27.986   5.222   6.559  0.1151 -0.2541 -0.3352
 4524POPC   C4B54816  28.115   5.046   6.089 -0.3286 -0.2374  0.0136
 4525POPC   NC354817  15.995   0.541   7.503 -0.2434  0.2449 -0.0119
 4525POPC   PO454818  16.166   0.179   7.571 -0.0192 -0.3047 -0.2817
 4525POPC   GL154819  15.981  -0.072   7.250 -0.1624 -0.3881 -0.1315
 4525POPC   GL254820  15.853   0.106   7.071  0.1354 -0.2236  0.0674
 4525POPC   C1A54821  16.032  -0.285   6.812  0.0392 -0.3706  0.1216
 4525POPC   D2A54822  16.135  -0.255   6.394 -0.2436  0.0303  0.1609
 4525POPC   C3A54823  16.173   0.182   6.229 -0.4123  0.0379  0.1243
 4525POPC   C4A54824  16.299   0.315   5.801  0.1121  0.1908  0.1191
 4525POPC   C1B54825  15.884   0.168   6.648 -0.1171 -0.3918 -0.2255
 4525POPC   C2B54826  15.653   0.203   6.246 -0.1071  0.2700 -0.2944
 4525POPC   C3B54827  15.759   0.070   5.847  0.0123  0.1064  0.2196
 4525POPC   C4B54828  15.813   0.175   5.377  0.0255  0.3358 -0.1397
 4526POPC   NC354829   3.703  29.110   8.293  0.1408 -0.2316  0.0408
 4526POPC   PO454830   3.558  29.213   7.940  0.0461 -0.1749 -0.1038
 4526POPC   GL154831   3.713  29.125   7.656 -0.1630  0.2621 -0.1339
 4526POPC   GL254832   4.005  28.945   7.642  0.2216  0.0776  0.0980
 4526POPC   C1A54833   3.575  29.199   7.257  0.0223  0.1582  0.1537
 4526POPC   D2A54834   3.501  29.395   6.882  0.1278 -0.0351  0.1836
 4526POPC   C3A54835   3.536  29.220   6.511 -0.0073 -0.1635  0.0558
 4526POPC   C4A54836   3.792  29.246   6.133 -0.1463 -0.1342 -0.1768
 4526POPC   C1B54837   3.841  28.719   7.290 -0.2206  0.0812 -0.1520
 4526POPC   C2B54838   3.581  28.596   6.907  0.2131  0.4219  0.0595
 4526POPC   C3B54839   3.257  28.703   6.577 -0.0519  0.0631  0.0461
 4526POPC   C4B54840   3.153  28.663   6.097  0.2135  0.2305  0.1272
 4527POPC   NC354841  19.971  30.832   7.223  0.0120 -0.4124 -0.1587
 4527POPC   PO454842  19.892  31.183   7.402 -0.1648 -0.1901  0.3237
 4527POPC   GL154843  19.935  31.516   7.203  0.5836 -0.0765  0.0275
 4527POPC   GL254844  20.142  31.734   7.177 -0.0896  0.3406 -0.0924
 4527POPC   C1A54845  19.919  31.419   6.751 -0.1282 -0.0546 -0.1861
 4527POPC   D2A54846  20.069  31.257   6.341 -0.1685  0.0145  0.1120
 4527POPC   C3A54847  20.151  31.270   5.959 -0.1334  0.0129  0.2772
 4527POPC   C4A54848  20.541  31.012   5.709 -0.1237  0.1382  0.1394
 4527POPC   C1B54849  20.014  31.984   6.812 -0.0278 -0.1499 -0.0079
 4527POPC   C2B54850  19.939  32.196   6.334  0.0567  0.1603  0.0264
 4527POPC   C3B54851  20.192  32.071   5.947 -0.3027  0.1078 -0.2064
 4527POPC   C4B54852  20.419  32.177   5.545  0.1971  0.1376 -0.0885
 4528POPC   NC354853  29.092  24.216   7.940 -0.0286 -0.0004 -0.1768
 4528POPC   PO454854  29.092  24.463   7.652 -0.2760  0.0648  0.1666
 4528POPC   GL154855  28.937  24.558   7.302  0.2388 -0.0373  0.0301
 4528POPC   GL254856  29.042  24.408   7.079  0.1033  0.0843  0.2585
 4528POPC   C1A54857  28.595  24.780   7.059  0.1187 -0.1813 -0.0799
 4528POPC   D2A54858  28.309  24.720   6.747  0.0344  0.4956 -0.1048
 4528POPC   C3A54859  28.402  24.482   6.335  0.4096 -0.1896 -0.0289
 4528POPC   C4A54860  28.379  24.156   6.013  0.1487  0.0199  0.1199
 4528POPC   C1B54861  28.815  24.487   6.690 -0.0555 -0.0701  0.3924
 4528POPC   C2B54862  28.938  24.688   6.275 -0.0777 -0.2060  0.0441
 4528POPC   C3B54863  29.195  24.602   5.934  0.0689 -0.0340 -0.0322
 4528POPC   C4B54864  29.285  24.253   5.638  0.1526  0.3594  0.1540
 4529POPC   NC354865   4.318   1.834   7.876 -0.0621  0.0167 -0.0976
 4529POPC   PO454866   4.631   1.641   7.782 -0.1131  0.2716  0.0718
 4529POPC   GL154867   4.522   1.746   7.452  0.2033  0.2363  0.0124
 4529POPC   GL254868   4.487   1.988   7.403  0.0852  0.0244 -0.1620
 4529POPC   C1A54869   4.400   1.394   7.133  0.2406 -0.2388  0.1000
 4529POPC   D2A54870   4.455   0.933   7.046  0.3530 -0.0677 -0.4903
 4529POPC   C3A54871   4.733   0.816   6.679 -0.1156 -0.2906 -0.2382
 4529POPC   C4A54872   4.998   0.662   6.309 -0.0199 -0.0649  0.0809
 4529POPC   C1B54873   4.620   1.790   6.985 -0.0803 -0.1108  0.0719
 4529POPC   C2B54874   4.561   1.843   6.493 -0.1148  0.0512 -0.2182
 4529POPC   C3B54875   4.400   1.915   6.031 -0.2021  0.0619 -0.3482
 4529POPC   C4B54876   4.382   2.110   5.638  0.0290 -0.0271 -0.1205
 4530POPC   NC354877  14.152  27.044   7.363 -0.1192  0.0052 -0.3671
 4530POPC   PO454878  14.494  26.949   7.488  0.3742 -0.2413 -0.2658
 4530POPC   GL154879  14.665  27.037   7.157  0.3729 -0.2243 -0.2043
 4530POPC   GL254880  14.740  26.825   7.069  0.1097  0.1035 -0.0280
 4530POPC   C1A54881  14.290  27.063   6.835 -0.0615  0.0885  0.1003
 4530POPC   D2A54882  13.968  27.126   6.478  0.1104  0.1530  0.2849
 4530POPC   C3A54883  13.594  27.052   6.319  0.2354  0.2000  0.0907
 4530POPC   C4A54884  13.109  27.010   6.252 -0.3645  0.0919 -0.1785
 4530POPC   C1B54885  14.674  26.820   6.664  0.1095  0.1233  0.1158
 4530POPC   C2B54886  14.600  26.863   6.191  0.0125 -0.0443 -0.0877
 4530POPC   C3B54887  14.515  26.809   5.771 -0.2562 -0.0605 -0.0236
 4530POPC   C4B54888  14.405  26.961   5.305  0.1656  0.3340 -0.3277
 4531POPC   NC354889  12.393   6.992   7.830 -0.0438  0.3251  0.2336
 4531POPC   PO454890  12.630   7.228   7.636 -0.0043 -0.0004  0.0854
 4531POPC   GL154891  12.489   7.211   7.275  0.1513 -0.3169  0.3574
 4531POPC   GL254892  12.420   7.540   7.240 -0.1291 -0.1405  0.4431
 4531POPC   C1A54893  12.154   7.150   6.945 -0.2342 -0.2187  0.0555
 4531POPC   D2A54894  11.836   6.933   6.618 -0.0786  0.3275 -0.2514
 4531POPC   C3A54895  11.671   6.832   6.149  0.1018  0.0284 -0.4746
 4531POPC   C4A54896  11.510   7.094   5.805  0.0689  0.0284 -0.5226
 4531POPC   C1B54897  12.091   7.683   6.948  0.1565  0.1717  0.2198
 4531POPC   C2B54898  11.785   7.810   6.592 -0.1897  0.0989 -0.2017
 4531POPC   C3B54899  11.628   7.768   6.119 -0.1436  0.1801 -0.5710
 4531POPC   C4B54900  11.450   7.685   5.735  0.0993  0.1989  0.0474
 4532POPC   NC354901  13.972   1.951   7.628  0.1483 -0.1906  0.2029
 4532POPC   PO454902  13.756   2.226   7.725  0.1258 -0.4787 -0.0799
 4532POPC   GL154903  13.600   2.220   7.410 -0.1487  0.2010 -0.1560
 4532POPC   GL254904  13.269   2.147   7.366 -0.0061  0.0454  0.0960
 4532POPC   C1A54905  13.660   2.114   6.937  0.1882 -0.3833 -0.0144
 4532POPC   D2A54906  13.772   2.360   6.515  0.1044 -0.0485 -0.1186
 4532POPC   C3A54907  13.932   2.293   6.093  0.2768  0.0941  0.1131
 4532POPC   C4A54908  14.376   2.195   5.919  0.0991 -0.0989  0.1822
 4532POPC   C1B54909  13.195   1.896   6.960  0.2563 -0.2196 -0.1146
 4532POPC   C2B54910  13.022   1.747   6.533  0.0785  0.1231 -0.0701
 4532POPC   C3B54911  13.097   1.945   6.140  0.1239  0.0395 -0.0349
 4532POPC   C4B54912  13.408   2.308   6.160 -0.2755  0.1259 -0.0852
 4533POPC   NC354913   8.837   6.552   7.610 -0.0612 -0.0079  0.2398
 4533POPC   PO454914   8.526   6.380   7.563 -0.3412  0.0939 -0.2003
 4533POPC   GL154915   8.422   6.705   7.368  0.0986 -0.0934 -0.5398
 4533POPC   GL254916   8.626   6.916   7.296  0.3618 -0.1287 -0.0294
 4533POPC   C1A54917   8.139   6.917   7.105 -0.1051 -0.0561  0.0419
 4533POPC   D2A54918   7.827   6.985   6.759  0.1283 -0.1336  0.1178
 4533POPC   C3A54919   7.944   6.967   6.311 -0.0195  0.0305 -0.6127
 4533POPC   C4A54920   7.827   7.047   5.864  0.1181 -0.4755 -0.2207
 4533POPC   C1B54921   8.691   6.968   6.854 -0.2015 -0.3733 -0.2145
 4533POPC   C2B54922   8.617   6.738   6.434 -0.1270  0.3498 -0.4648
 4533POPC   C3B54923   8.688   6.330   6.252  0.0881 -0.2044  0.0007
 4533POPC   C4B54924   9.012   6.077   5.968  0.1971  0.3084 -0.1496
 4534POPC   NC354925  14.356   6.811   8.075 -0.1115 -0.0869  0.3904
 4534POPC   PO454926  13.996   6.769   8.025  0.3713  0.1297  0.0814
 4534POPC   GL154927  14.036   6.653   7.643  0.1478  0.2835  0.0157
 4534POPC   GL254928  13.884   6.874   7.455  0.1538  0.0179 -0.4768
 4534POPC   C1A54929  13.719   6.464   7.333 -0.1809 -0.0499  0.1953
 4534POPC   D2A54930  13.634   6.406   6.876 -0.0468  0.2500 -0.2540
 4534POPC   C3A54931  13.586   6.441   6.421  0.1472  0.1816 -0.2227
 4534POPC   C4A54932  13.462   6.559   5.997 -0.4763  0.0631  0.2038
 4534POPC   C1B54933  13.806   6.880   7.038  0.2018 -0.3625 -0.1632
 4534POPC   C2B54934  13.995   6.707   6.717 -0.1767 -0.2798  0.1128
 4534POPC   C3B54935  14.037   6.655   6.261 -0.0587 -0.0566  0.0116
 4534POPC   C4B54936  14.015   6.540   5.834  0.0143 -0.1370  0.1419
 4535POPC   NC354937   6.560  24.200   8.442 -0.3568 -0.0332 -0.4114
 4535POPC   PO454938   6.252  24.291   8.211  0.1422  0.0626 -0.0625
 4535POPC   GL154939   6.105  24.098   7.850 -0.0124 -0.0060 -0.1216
 4535POPC   GL254940   5.902  24.260   7.711  0.0191 -0.5386 -0.1598
 4535POPC   C1A54941   6.038  23.803   7.462  0.1015 -0.1408 -0.0939
 4535POPC   D2A54942   6.066  23.725   7.006 -0.0102  0.3081 -0.1186
 4535POPC   C3A54943   5.946  24.049   6.722  0.0134 -0.0138 -0.1834
 4535POPC   C4A54944   5.825  24.411   6.424 -0.1328  0.0966  0.2605
 4535POPC   C1B54945   5.613  23.934   7.939 -0.1172 -0.1282  0.0692
 4535POPC   C2B54946   5.166  23.863   7.943 -0.0418  0.2431  0.1434
 4535POPC   C3B54947   4.763  23.971   7.987 -0.0164  0.0039 -0.0318
 4535POPC   C4B54948   4.366  23.854   8.060  0.0888 -0.2592  0.4204
 4536POPC   NC354949   7.592   4.582   7.497  0.0514  0.0488 -0.0695
 4536POPC   PO454950   7.189   4.635   7.538  0.0406 -0.2321 -0.0506
 4536POPC   GL154951   7.155   4.492   7.198 -0.0809 -0.1505  0.0471
 4536POPC   GL254952   7.253   4.714   6.963 -0.0079 -0.0573 -0.2695
 4536POPC   C1A54953   7.163   4.056   7.000 -0.0456 -0.0686 -0.1433
 4536POPC   D2A54954   7.126   3.837   6.560 -0.1390 -0.2584  0.1308
 4536POPC   C3A54955   6.921   3.780   6.126  0.3345  0.2819  0.1027
 4536POPC   C4A54956   7.007   3.818   5.673  0.0637  0.3530  0.1887
 4536POPC   C1B54957   7.188   4.684   6.474  0.3348 -0.1924  0.0645
 4536POPC   C2B54958   7.083   4.878   6.013 -0.2706  0.0592 -0.0971
 4536POPC   C3B54959   6.705   5.021   5.894  0.0940 -0.3137 -0.1196
 4536POPC   C4B54960   6.389   5.272   5.741 -0.1438  0.1563  0.1315
 4537POPC   NC354961  25.615  20.566   7.857 -0.1863  0.2224  0.3479
 4537POPC   PO454962  25.459  20.199   7.841  0.1400 -0.0129  0.1199
 4537POPC   GL154963  25.333  20.125   7.406 -0.1312 -0.2596 -0.1686
 4537POPC   GL254964  25.483  19.981   7.232 -0.2483  0.3795  0.0810
 4537POPC   C1A54965  25.198  20.328   7.033  0.1238  0.0843 -0.1907
 4537POPC   D2A54966  25.130  20.382   6.579  0.1542 -0.2983  0.1752
 4537POPC   C3A54967  25.162  20.056   6.339 -0.4759 -0.1092 -0.1328
 4537POPC   C4A54968  25.070  19.610   6.400  0.1919 -0.0136 -0.0188
 4537POPC   C1B54969  25.894  20.009   7.025 -0.0431  0.0554  0.1718
 4537POPC   C2B54970  26.186  19.839   6.747 -0.0513 -0.1949 -0.1230
 4537POPC   C3B54971  26.402  19.471   6.550 -0.0445  0.2207 -0.0272
 4537POPC   C4B54972  26.540  19.059   6.593 -0.1912 -0.2053 -0.0597
 4538POPC   NC354973  29.415   5.507   7.320 -0.0090 -0.3071 -0.1417
 4538POPC   PO454974  29.186   5.773   7.541  0.0998 -0.5220 -0.1089
 4538POPC   GL154975  29.292   6.012   7.194  0.0469  0.1077  0.1377
 4538POPC   GL254976  29.575   6.051   7.141 -0.0134 -0.1425  0.0503
 4538POPC   C1A54977  29.303   5.830   6.797  0.0918 -0.0844 -0.0453
 4538POPC   D2A54978  29.281   5.756   6.364  0.2807 -0.1568  0.0010
 4538POPC   C3A54979  29.574   5.934   6.221  0.1414 -0.4866 -0.1412
 4538POPC   C4A54980  29.749   5.979   5.802  0.0994  0.1438  0.1789
 4538POPC   C1B54981  29.716   6.214   6.734 -0.3404  0.0345  0.0555
 4538POPC   C2B54982  29.955   6.231   6.332 -0.0355  0.4219 -0.0113
 4538POPC   C3B54983  30.324   6.072   6.056 -0.3113  0.2054  0.0043
 4538POPC   C4B54984  30.447   5.997   5.620  0.3624 -0.1601  0.0572
 4539POPC   NC354985   6.316  26.035   8.267 -0.3395  0.0115 -0.2888
 4539POPC   PO454986   6.429  26.116   7.918  0.1023 -0.1177 -0.0232
 4539POPC   GL154987   6.251  26.263   7.641  0.0796 -0.2640  0.3317
 4539POPC   GL254988   6.010  26.305   7.779 -0.0045 -0.4185 -0.2859
 4539POPC   C1A54989   6.432  26.586   7.341 -0.0640  0.2625  0.1752
 4539POPC   D2A54990   6.692  26.683   6.934  0.3426  0.0264 -0.1064
 4539POPC   C3A54991   6.505  26.590   6.508  0.3577 -0.1130 -0.0475
 4539POPC   C4A54992   6.477  26.375   6.104 -0.0399 -0.0775 -0.0280
 4539POPC   C1B54993   5.942  26.609   7.464  0.1435 -0.0225 -0.2791
 4539POPC   C2B54994   6.103  26.796   7.090 -0.0544  0.1735 -0.0024
 4539POPC   C3B54995   6.356  27.012   6.830 -0.0561  0.0655 -0.0944
 4539POPC   C4B54996   6.738  27.003   6.535  0.1323  0.2704 -0.0462
 4540POPC   NC354997  21.241  18.303   7.491 -0.0724  0.0524  0.3169
 4540POPC   PO454998  21.057  18.139   7.175 -0.0294  0.0356  0.4297
 4540POPC   GL154999  21.073  18.067   6.793 -0.0625 -0.3752 -0.0319
 4540POPC   GL255000  21.334  18.166   6.680  0.1214  0.0240 -0.1246
 4540POPC   C1A55001  20.942  17.936   6.326  0.0726 -0.1786  0.0923
 4540POPC   D2A55002  21.110  17.823   5.898  0.0656  0.1140  0.2208
 4540POPC   C3A55003  21.465  17.553   5.858 -0.1217 -0.1207 -0.1500
 4540POPC   C4A55004  21.893  17.497   5.592  0.1359 -0.1199  0.3235
 4540POPC   C1B55005  21.173  18.344   6.270 -0.0432 -0.3131 -0.4212
 4540POPC   C2B55006  21.028  18.369   5.809  0.0996 -0.2461  0.0368
 4540POPC   C3B55007  21.177  18.079   5.440  0.0355  0.1251  0.0804
 4540POPC   C4B55008  21.290  17.668   5.379 -0.2107 -0.1192 -0.1707
 4541POPC   NC355009  24.120  28.911   8.121  0.0295  0.1017 -0.0625
 4541POPC   PO455010  23.943  28.541   8.109 -0.2384  0.0733  0.0857
 4541POPC   GL155011  23.796  28.478   7.742  0.0745  0.0593 -0.0260
 4541POPC   GL255012  23.534  28.328   7.906  0.0013  0.0434  0.1181
 4541POPC   C1A55013  23.951  28.312   7.340  0.1441 -0.2503  0.2548
 4541POPC   D2A55014  24.154  28.358   6.953  0.0813  0.1961  0.2562
 4541POPC   C3A55015  24.007  28.286   6.575  0.3042  0.2601 -0.2857
 4541POPC   C4A55016  23.960  27.931   6.259  0.2074  0.2568 -0.0831
 4541POPC   C1B55017  23.455  28.469   7.450 -0.0819  0.0670 -0.1114
 4541POPC   C2B55018  23.508  28.438   6.969  0.1702  0.0059 -0.0294
 4541POPC   C3B55019  23.391  28.566   6.573  0.0993  0.0295  0.6232
 4541POPC   C4B55020  23.244  28.815   6.196 -0.0097  0.1726  0.0334
 4542POPC   NC355021  30.880  21.023   7.904 -0.2528 -0.3962 -0.0276
 4542POPC   PO455022  30.955  21.409   7.863  0.0828  0.1419  0.2252
 4542POPC   GL155023  30.959  21.237   7.492 -0.0558  0.0864 -0.1100
 4542POPC   GL255024  30.862  21.468   7.372 -0.2123  0.0451  0.1861
 4542POPC   C1A55025  31.312  20.965   7.456 -0.1476 -0.3593 -0.2345
 4542POPC   D2A55026  31.460  20.543   7.296  0.2850  0.2599 -0.2827
 4542POPC   C3A55027  31.509  20.564   6.843  0.0816  0.0991  0.0608
 4542POPC   C4A55028  31.636  20.471   6.415 -0.4149  0.2766 -0.2929
 4542POPC   C1B55029  31.121  21.296   7.065 -0.2724 -0.4021 -0.0717
 4542POPC   C2B55030  31.351  21.108   6.777 -0.2317  0.1600 -0.0840
 4542POPC   C3B55031  31.281  20.779   6.422  0.0571 -0.0608  0.0089
 4542POPC   C4B55032  31.374  20.579   5.993 -0.0362  0.0830 -0.0187
 4543POPC   NC355033   7.800   8.078   8.692  0.2172  0.2570 -0.1940
 4543POPC   PO455034   7.589   8.344   8.477  0.2045  0.2137 -0.0710
 4543POPC   GL155035   7.456   8.486   8.086  0.1129  0.1413  0.3497
 4543POPC   GL255036   7.486   8.339   7.756  0.0634 -0.0980  0.0317
 4543POPC   C1A55037   7.042   8.385   7.936 -0.0653  0.1329  0.1341
 4543POPC   D2A55038   7.057   8.260   7.461 -0.1632  0.1092  0.1032
 4543POPC   C3A55039   7.113   8.521   7.117  0.0834 -0.1163  0.0840
 4543POPC   C4A55040   7.019   8.837   6.793  0.1258 -0.2171 -0.0172
 4543POPC   C1B55041   7.625   8.477   7.333 -0.0748  0.5306 -0.2813
 4543POPC   C2B55042   7.567   8.554   6.883 -0.0514 -0.0790  0.0088
 4543POPC   C3B55043   7.467   8.416   6.451  0.2253 -0.2806  0.1948
 4543POPC   C4B55044   7.221   8.135   6.168  0.0827  0.0269 -0.1517
 4544POPC   NC355045   6.141  14.422   7.870  0.0060  0.2053  0.2366
 4544POPC   PO455046   6.077  14.029   7.931  0.2942 -0.1324  0.2107
 4544POPC   GL155047   6.140  13.993   7.572 -0.1016 -0.0782  0.1060
 4544POPC   GL255048   6.321  14.157   7.479 -0.1803  0.0155  0.2229
 4544POPC   C1A55049   5.971  13.744   7.234  0.0261 -0.0509 -0.2056
 4544POPC   D2A55050   5.860  13.501   6.794 -0.3707 -0.0194 -0.4331
 4544POPC   C3A55051   5.763  13.592   6.321  0.0013  0.0721  0.2137
 4544POPC   C4A55052   5.804  13.304   5.928  0.1326 -0.0140 -0.1512
 4544POPC   C1B55053   6.372  13.999   7.031 -0.1543  0.1406  0.1499
 4544POPC   C2B55054   6.192  13.883   6.564 -0.0129  0.2543  0.0073
 4544POPC   C3B55055   6.108  14.097   6.156  0.0510  0.1685 -0.0085
 4544POPC   C4B55056   5.927  14.384   5.813 -0.4235 -0.0062  0.1725
 4545POPC   NC355057  29.046   4.071   7.294 -0.1704  0.0749 -0.0210
 4545POPC   PO455058  28.683   4.061   7.471 -0.0959  0.2620 -0.1905
 4545POPC   GL155059  28.363   3.995   7.253  0.3085 -0.2775  0.2372
 4545POPC   GL255060  28.265   4.231   7.056 -0.0464  0.3173  0.0008
 4545POPC   C1A55061  28.378   3.857   6.791 -0.2158  0.1066  0.1025
 4545POPC   D2A55062  28.556   3.717   6.375 -0.0239 -0.2290  0.1364
 4545POPC   C3A55063  29.016   3.565   6.482 -0.0521  0.2098 -0.5355
 4545POPC   C4A55064  29.343   3.416   6.282 -0.0020  0.1869  0.3485
 4545POPC   C1B55065  27.993   4.322   6.679 -0.0021 -0.4561  0.0219
 4545POPC   C2B55066  27.880   4.408   6.252  0.0708  0.1730 -0.1716
 4545POPC   C3B55067  28.086   4.487   5.845  0.0644  0.3495 -0.0354
 4545POPC   C4B55068  28.359   4.557   5.495 -0.0003 -0.0112 -0.2136
 4546POPC   NC355069   0.497  13.536   8.184 -0.4346  0.2237  0.0557
 4546POPC   PO455070   0.517  13.906   8.061  0.0282 -0.1515 -0.3330
 4546POPC   GL155071   0.472  14.030   7.656 -0.0437  0.3363  0.2500
 4546POPC   GL255072   0.705  14.246   7.574 -0.2527 -0.0033  0.1792
 4546POPC   C1A55073   0.748  13.801   7.390 -0.0412  0.1131 -0.0806
 4546POPC   D2A55074   1.061  13.904   7.005 -0.3138 -0.0262 -0.1904
 4546POPC   C3A55075   1.112  13.670   6.574 -0.1115 -0.0177 -0.1739
 4546POPC   C4A55076   1.419  13.617   6.271  0.0836  0.0507 -0.3897
 4546POPC   C1B55077   0.564  14.321   7.213  0.2423  0.0347  0.2783
 4546POPC   C2B55078   0.532  14.414   6.763  0.1071 -0.0619 -0.0642
 4546POPC   C3B55079   0.588  14.334   6.289 -0.0388  0.0223 -0.0543
 4546POPC   C4B55080   0.639  14.352   5.833  0.1784 -0.1585  0.0140
 4547POPC   NC355081  30.750   1.593   7.631 -0.0578 -0.0006  0.1524
 4547POPC   PO455082  31.096   1.729   7.651  0.2672  0.0165  0.2578
 4547POPC   GL155083  31.136   1.826   7.340 -0.1530  0.0523  0.5418
 4547POPC   GL255084  31.117   2.165   7.264  0.0610 -0.1288  0.1111
 4547POPC   C1A55085  30.837   1.750   6.979  0.0746  0.2451 -0.1286
 4547POPC   D2A55086  30.789   1.844   6.509  0.1590 -0.0122  0.2773
 4547POPC   C3A55087  30.626   2.235   6.297  0.0543 -0.0695  0.1215
 4547POPC   C4A55088  30.216   2.268   6.029 -0.2098  0.0583  0.0590
 4547POPC   C1B55089  30.979   2.275   6.790  0.0978  0.0128  0.2993
 4547POPC   C2B55090  30.886   2.611   6.509  0.2969 -0.0367 -0.1388
 4547POPC   C3B55091  30.832   2.617   6.020 -0.0790  0.0058  0.1067
 4547POPC   C4B55092  30.903   2.905   5.702 -0.2591 -0.0815 -0.3732
 4548POPC   NC355093  22.370  23.204   7.900 -0.0542  0.0951  0.3158
 4548POPC   PO455094  22.303  22.971   7.548  0.2054  0.3272  0.1026
 4548POPC   GL155095  22.084  23.115   7.228 -0.1322  0.0131  0.3670
 4548POPC   GL255096  21.818  23.131   7.336 -0.1433 -0.1387 -0.0200
 4548POPC   C1A55097  22.028  23.298   6.834 -0.1192 -0.0937  0.2018
 4548POPC   D2A55098  21.859  23.708   6.718 -0.1889  0.1164  0.2179
 4548POPC   C3A55099  21.672  23.920   6.310 -0.0393  0.3446  0.2326
 4548POPC   C4A55100  21.339  24.159   6.070 -0.2222  0.0760 -0.0051
 4548POPC   C1B55101  21.601  23.452   7.092 -0.0254 -0.3641  0.0741
 4548POPC   C2B55102  21.407  23.885   6.910 -0.0383  0.2041 -0.2671
 4548POPC   C3B55103  21.314  24.255   6.635  0.1919  0.0113 -0.1092
 4548POPC   C4B55104  21.474  24.592   6.375  0.0521 -0.0026  0.1809
 4549POPC   NC355105   2.764   7.093   7.612 -0.0311  0.0347  0.1308
 4549POPC   PO455106   3.009   6.850   7.798 -0.2399  0.3534 -0.0049
 4549POPC   GL155107   2.952   6.621   7.471  0.1298 -0.0331  0.1530
 4549POPC   GL255108   3.011   6.835   7.244  0.0456  0.0583  0.3218
 4549POPC   C1A55109   2.795   6.399   7.081  0.0576  0.0042  0.0052
 4549POPC   D2A55110   2.807   6.413   6.657  0.0949  0.1005 -0.0239
 4549POPC   C3A55111   2.792   6.724   6.323  0.1953  0.3326 -0.0348
 4549POPC   C4A55112   2.623   6.963   5.911 -0.3774 -0.1748  0.2557
 4549POPC   C1B55113   3.100   6.779   6.807  0.1350 -0.0787 -0.1791
 4549POPC   C2B55114   3.243   6.908   6.390  0.3826  0.1180  0.1331
 4549POPC   C3B55115   3.241   6.743   5.928  0.0294 -0.0763 -0.2441
 4549POPC   C4B55116   2.837   6.597   5.683 -0.5812 -0.1202 -0.0102
 4550POPC   NC355117   5.544   2.248   7.809 -0.0213  0.1183 -0.0719
 4550POPC   PO455118   5.331   1.890   7.786 -0.0553  0.0905  0.0345
 4550POPC   GL155119   5.421   1.799   7.420 -0.0495 -0.1339  0.2621
 4550POPC   GL255120   5.724   2.010   7.424  0.1346 -0.1548 -0.1937
 4550POPC   C1A55121   5.342   1.455   7.060  0.1682  0.1586 -0.1189
 4550POPC   D2A55122   5.309   1.524   6.607 -0.2891  0.2109 -0.0074
 4550POPC   C3A55123   5.719   1.377   6.435  0.0858  0.0837 -0.0155
 4550POPC   C4A55124   5.951   1.620   6.128  0.0642 -0.1338  0.2995
 4550POPC   C1B55125   5.986   1.974   7.071  0.1477 -0.1235 -0.1370
 4550POPC   C2B55126   5.862   2.120   6.648  0.1022  0.1413 -0.0564
 4550POPC   C3B55127   5.596   1.885   6.398 -0.0099 -0.5005  0.0712
 4550POPC   C4B55128   5.452   1.644   6.009 -0.0336 -0.0954 -0.0140
 4551POPC   NC355129   3.183   3.206   7.855  0.1964 -0.1517 -0.2610
 4551POPC   PO455130   3.367   3.017   8.124 -0.1304 -0.0529 -0.0520
 4551POPC   GL155131   3.519   2.883   7.804  0.4595 -0.0643 -0.0082
 4551POPC   GL255132   3.347   2.775   7.631 -0.0271 -0.1217 -0.0037
 4551POPC   C1A55133   3.876   2.873   7.530  0.1586  0.1049 -0.0109
 4551POPC   D2A55134   4.186   2.757   7.219 -0.0139  0.4352  0.2356
 4551POPC   C3A55135   4.232   2.523   6.784  0.0261 -0.1024 -0.1264
 4551POPC   C4A55136   4.464   2.756   6.439  0.1179  0.0105 -0.1041
 4551POPC   C1B55137   3.061   2.978   7.403  0.1075 -0.2254 -0.0640
 4551POPC   C2B55138   2.780   3.056   7.087 -0.0834  0.0419 -0.1786
 4551POPC   C3B55139   2.878   3.102   6.656  0.0442  0.2848  0.1439
 4551POPC   C4B55140   2.662   3.262   6.246  0.0759 -0.2256 -0.3844
 4552POPC   NC355141   1.524  25.830   7.694 -0.0943  0.1741  0.1754
 4552POPC   PO455142   1.631  26.170   7.705 -0.1234  0.1845  0.0348
 4552POPC   GL155143   1.786  26.208   7.383  0.0993  0.0031  0.1294
 4552POPC   GL255144   1.999  26.355   7.461  0.0064  0.3879 -0.0888
 4552POPC   C1A55145   1.878  26.421   6.945  0.0191  0.1220 -0.1323
 4552POPC   D2A55146   2.044  26.571   6.547  0.1723 -0.4744 -0.0297
 4552POPC   C3A55147   2.037  26.333   6.147  0.2058  0.1749 -0.1172
 4552POPC   C4A55148   2.284  25.907   6.145 -0.0118 -0.2047  0.2555
 4552POPC   C1B55149   2.348  26.360   7.097 -0.3621  0.2421 -0.1065
 4552POPC   C2B55150   2.512  26.721   6.831  0.0667 -0.0100 -0.1054
 4552POPC   C3B55151   2.864  26.778   6.536  0.2535 -0.2459 -0.0699
 4552POPC   C4B55152   2.939  26.945   6.106 -0.1435  0.1571  0.0148
 4553POPC   NC355153   4.562  12.696   7.808 -0.3192  0.1647 -0.3129
 4553POPC   PO455154   4.870  12.949   7.851 -0.1968 -0.0820  0.0425
 4553POPC   GL155155   4.663  13.036   7.524  0.1354 -0.0760  0.1192
 4553POPC   GL255156   4.806  12.901   7.308  0.2390  0.4780  0.1202
 4553POPC   C1A55157   4.614  13.387   7.265  0.0965 -0.0985  0.0456
 4553POPC   D2A55158   4.268  13.665   6.999  0.1466  0.4383 -0.0746
 4553POPC   C3A55159   4.269  13.681   6.551  0.1489 -0.1486  0.0519
 4553POPC   C4A55160   4.200  13.851   6.169  0.1303  0.1355 -0.2380
 4553POPC   C1B55161   5.016  13.209   7.024  0.1468 -0.0056 -0.0702
 4553POPC   C2B55162   5.260  13.391   6.672  0.0026 -0.1789  0.0326
 4553POPC   C3B55163   5.163  13.741   6.386 -0.0240 -0.0721  0.0999
 4553POPC   C4B55164   5.130  13.913   5.955 -0.0314  0.1542 -0.3166
 4554POPC   NC355165  23.175  22.950   7.306  0.2145 -0.1851  0.0117
 4554POPC   PO455166  23.258  23.282   7.555 -0.0908 -0.0506  0.2262
 4554POPC   GL155167  23.187  23.415   7.150  0.1939  0.3614  0.2610
 4554POPC   GL255168  23.073  23.629   7.256 -0.0125  0.2537  0.0957
 4554POPC   C1A55169  23.317  23.212   6.697 -0.2121  0.1977 -0.0584
 4554POPC   D2A55170  23.370  23.030   6.262  0.1130  0.1163 -0.0942
 4554POPC   C3A55171  23.518  23.372   5.972 -0.0715 -0.2376  0.0879
 4554POPC   C4A55172  23.204  23.451   5.583 -0.1351  0.0318 -0.4060
 4554POPC   C1B55173  22.930  23.499   6.849  0.5292 -0.0519  0.1784
 4554POPC   C2B55174  22.919  23.386   6.389 -0.4728 -0.2763  0.0994
 4554POPC   C3B55175  23.003  23.222   5.968 -0.0748 -0.5715  0.2806
 4554POPC   C4B55176  23.266  22.998   5.646  0.3526  0.0452 -0.2093
 4555POPC   NC355177   2.865  28.708   7.889  0.0234  0.1194  0.0671
 4555POPC   PO455178   2.576  28.953   7.959 -0.1541 -0.1252 -0.1314
 4555POPC   GL155179   2.701  29.118   7.584 -0.2798  0.4310 -0.4335
 4555POPC   GL255180   2.926  28.986   7.481  0.2555  0.1009 -0.1377
 4555POPC   C1A55181   2.443  29.134   7.197  0.1823 -0.2225 -0.1194
 4555POPC   D2A55182   2.578  29.026   6.764 -0.1640 -0.2540 -0.2504
 4555POPC   C3A55183   2.500  29.409   6.509 -0.0816  0.0377 -0.2322
 4555POPC   C4A55184   2.339  29.735   6.235 -0.0228  0.0502 -0.1403
 4555POPC   C1B55185   3.111  29.379   7.419 -0.2193 -0.1529  0.2018
 4555POPC   C2B55186   3.279  29.741   7.111  0.0694 -0.1450 -0.1022
 4555POPC   C3B55187   3.568  29.906   6.815  0.1501 -0.0958 -0.0558
 4555POPC   C4B55188   3.791  30.176   6.547  0.0068 -0.0818  0.1628
 4556POPC   NC355189  13.118  15.795   7.914  0.0781  0.0303 -0.1474
 4556POPC   PO455190  12.886  16.093   7.808 -0.1045 -0.0394  0.0331
 4556POPC   GL155191  12.779  15.875   7.469  0.1618 -0.2402 -0.1146
 4556POPC   GL255192  12.510  15.802   7.575  0.3302  0.1492 -0.0185
 4556POPC   C1A55193  12.717  15.896   7.002  0.0312  0.0594  0.1539
 4556POPC   D2A55194  12.870  15.841   6.581  0.1257  0.1358 -0.0666
 4556POPC   C3A55195  12.790  15.889   6.091 -0.0515  0.2685  0.0311
 4556POPC   C4A55196  12.651  15.939   5.649  0.3158  0.2562  0.0447
 4556POPC   C1B55197  12.710  15.419   7.393 -0.1004 -0.0548  0.0492
 4556POPC   C2B55198  12.654  15.306   6.932  0.2271  0.1730 -0.1322
 4556POPC   C3B55199  12.795  15.127   6.521 -0.1817 -0.2652  0.0365
 4556POPC   C4B55200  13.022  15.473   6.270  0.0608  0.0377 -0.0364
 4557POPC   NC355201   6.449  25.367   7.548  0.3593 -0.1019 -0.3200
 4557POPC   PO455202   6.413  25.601   7.876  0.4252  0.0308  0.1348
 4557POPC   GL155203   6.214  25.809   7.604 -0.1549 -0.1555  0.2925
 4557POPC   GL255204   6.404  25.889   7.431  0.1878  0.1475 -0.2398
 4557POPC   C1A55205   5.996  25.668   7.191 -0.3001  0.1593  0.0857
 4557POPC   D2A55206   5.768  25.626   6.795  0.3383 -0.0233  0.2857
 4557POPC   C3A55207   5.809  25.521   6.343 -0.0666 -0.2999  0.2244
 4557POPC   C4A55208   5.733  25.920   6.048  0.1436 -0.1693 -0.2177
 4557POPC   C1B55209   6.228  26.170   7.204  0.0140  0.0873 -0.0624
 4557POPC   C2B55210   6.056  26.409   6.792  0.0435  0.1254 -0.0906
 4557POPC   C3B55211   6.029  26.490   6.309  0.2424  0.1314 -0.2296
 4557POPC   C4B55212   5.991  26.331   5.858  0.0650 -0.2839 -0.0641
 4558POPC   NC355213  28.587  22.737   7.959  0.0766 -0.2395 -0.2765
 4558POPC   PO455214  28.640  23.105   7.998  0.2259 -0.1023 -0.2312
 4558POPC   GL155215  28.326  23.045   7.723 -0.1659 -0.1365 -0.1299
 4558POPC   GL255216  28.104  23.122   7.729 -0.0279 -0.0905 -0.0536
 4558POPC   C1A55217  28.277  23.058   7.228 -0.0473  0.0439  0.3794
 4558POPC   D2A55218  28.233  22.833   6.784  0.2508  0.1374 -0.1536
 4558POPC   C3A55219  28.286  22.699   6.349 -0.0707  0.1558  0.4577
 4558POPC   C4A55220  28.243  22.401   5.999  0.1319 -0.1021 -0.0867
 4558POPC   C1B55221  28.189  22.674   7.553  0.0856  0.1899  0.2629
 4558POPC   C2B55222  28.034  22.259   7.508  0.0719 -0.3201  0.2362
 4558POPC   C3B55223  28.150  21.771   7.438 -0.0260  0.1024  0.0491
 4558POPC   C4B55224  28.298  21.379   7.203  0.0272  0.0129 -0.2607
 4559POPC   NC355225   5.246  28.762   7.573 -0.2575 -0.0330 -0.1101
 4559POPC   PO455226   5.254  29.140   7.465  0.1214  0.1349 -0.0078
 4559POPC   GL155227   5.382  29.119   7.072 -0.0228  0.1645 -0.0200
 4559POPC   GL255228   5.462  28.841   7.054  0.0272 -0.2272  0.0064
 4559POPC   C1A55229   5.722  29.339   6.861  0.2166 -0.0654  0.2416
 4559POPC   D2A55230   5.836  29.356   6.364 -0.0900  0.1462 -0.2305
 4559POPC   C3A55231   5.789  29.738   6.082  0.0299  0.1598 -0.0157
 4559POPC   C4A55232   5.654  29.858   5.629  0.0478  0.1468 -0.0611
 4559POPC   C1B55233   5.348  28.919   6.664  0.0252  0.2280 -0.0051
 4559POPC   C2B55234   5.238  28.828   6.256  0.4044  0.0596  0.3229
 4559POPC   C3B55235   5.037  29.035   5.819 -0.1569  0.2519 -0.3127
 4559POPC   C4B55236   4.804  29.158   5.391 -0.2012 -0.2169 -0.2278
 4560POPC   NC355237  16.698  12.051   8.030  0.1685 -0.0676 -0.3333
 4560POPC   PO455238  17.024  11.903   8.123 -0.0690 -0.1195  0.0860
 4560POPC   GL155239  16.966  11.674   7.798 -0.1499 -0.1244 -0.0678
 4560POPC   GL255240  16.978  11.893   7.580 -0.1154  0.1913 -0.1214
 4560POPC   C1A55241  17.120  11.302   7.546 -0.0260  0.0582 -0.0289
 4560POPC   D2A55242  17.068  11.362   7.059  0.1470  0.1078  0.0491
 4560POPC   C3A55243  17.038  11.218   6.599 -0.0358 -0.5254  0.0241
 4560POPC   C4A55244  17.185  10.943   6.253  0.0839  0.3103  0.0882
 4560POPC   C1B55245  17.308  11.787   7.240  0.2226 -0.1462 -0.1399
 4560POPC   C2B55246  17.394  11.646   6.767  0.1288  0.0572 -0.0929
 4560POPC   C3B55247  17.447  11.655   6.295  0.2539  0.0188  0.0424
 4560POPC   C4B55248  17.597  11.853   5.928 -0.0975 -0.1822  0.0358
 4561POPC   NC355249  26.164  26.781   8.295  0.0344 -0.0552 -0.2148
 4561POPC   PO455250  26.029  26.846   7.904 -0.0681  0.0117 -0.0255
 4561POPC   GL155251  25.943  26.892   7.611  0.1446 -0.2830 -0.0168
 4561POPC   GL255252  26.142  26.957   7.397 -0.2045  0.1272  0.2197
 4561POPC   C1A55253  25.667  27.225   7.405  0.1530  0.1682  0.0355
 4561POPC   D2A55254  25.622  27.594   7.056 -0.2969 -0.0064  0.0226
 4561POPC   C3A55255  25.637  27.299   6.710 -0.1657  0.1142 -0.0332
 4561POPC   C4A55256  25.238  27.183   6.498  0.0295 -0.1821 -0.1898
 4561POPC   C1B55257  26.173  27.386   7.186 -0.1266  0.0016  0.2817
 4561POPC   C2B55258  26.046  27.718   6.821 -0.4095  0.0741 -0.2508
 4561POPC   C3B55259  25.804  27.725   6.443 -0.1495 -0.2496  0.1595
 4561POPC   C4B55260  25.629  28.111   6.261 -0.1559 -0.1659  0.1405
 4562POPC   NC355261  21.588  22.214   7.593 -0.1854  0.0778 -0.1649
 4562POPC   PO455262  21.971  22.167   7.496 -0.0515 -0.0253  0.0886
 4562POPC   GL155263  21.992  22.421   7.202  0.0876  0.1219 -0.1866
 4562POPC   GL255264  21.977  22.662   7.211  0.2026  0.0283 -0.1067
 4562POPC   C1A55265  21.564  22.447   7.071  0.1940 -0.2148 -0.1477
 4562POPC   D2A55266  21.158  22.373   6.846  0.0674 -0.4815  0.0024
 4562POPC   C3A55267  20.884  22.396   6.489  0.2183 -0.0586  0.4344
 4562POPC   C4A55268  20.465  22.350   6.241  0.1135 -0.0578  0.1179
 4562POPC   C1B55269  21.832  22.836   6.828 -0.0249  0.0329 -0.2940
 4562POPC   C2B55270  21.609  23.142   6.495 -0.0026 -0.1426 -0.2263
 4562POPC   C3B55271  21.306  23.531   6.526 -0.3350 -0.0163  0.0787
 4562POPC   C4B55272  20.964  23.830   6.530 -0.6627  0.0381 -0.1242
 4563POPC   NC355273   6.748  16.022   8.118  0.2301  0.1209 -0.3306
 4563POPC   PO455274   6.507  16.216   7.899  0.0391  0.1557 -0.1781
 4563POPC   GL155275   6.571  16.593   7.768 -0.3591  0.0706 -0.1333
 4563POPC   GL255276   6.464  16.577   7.523 -0.1092  0.3668 -0.0933
 4563POPC   C1A55277   6.540  17.067   7.585 -0.2367  0.0485  0.1624
 4563POPC   D2A55278   6.610  17.263   7.147  0.2651  0.2458 -0.1040
 4563POPC   C3A55279   6.350  17.610   6.967 -0.1112  0.0872  0.2030
 4563POPC   C4A55280   6.173  17.445   6.581 -0.1589  0.0837  0.1872
 4563POPC   C1B55281   6.646  16.797   7.105  0.2155 -0.1489  0.1043
 4563POPC   C2B55282   6.436  17.017   6.772 -0.0701  0.0086 -0.0039
 4563POPC   C3B55283   6.473  17.135   6.316  0.1151 -0.0199  0.1132
 4563POPC   C4B55284   6.539  17.355   5.958  0.1650 -0.0626 -0.2170
 4564POPC   NC355285   8.483  14.459   8.400 -0.1618  0.1454  0.0227
 4564POPC   PO455286   8.509  14.168   8.185  0.1059  0.0434 -0.2452
 4564POPC   GL155287   8.530  14.049   7.800  0.2190  0.1668  0.2110
 4564POPC   GL255288   8.611  14.317   7.700 -0.0021  0.1976 -0.3441
 4564POPC   C1A55289   8.565  13.919   7.317 -0.1385  0.1498 -0.1626
 4564POPC   D2A55290   8.948  13.956   7.063 -0.0687  0.1832 -0.0748
 4564POPC   C3A55291   8.954  13.970   6.621  0.2514  0.1583 -0.0639
 4564POPC   C4A55292   8.870  13.954   6.126  0.0307  0.1077  0.0373
 4564POPC   C1B55293   8.423  14.392   7.286 -0.1106 -0.1552 -0.0569
 4564POPC   C2B55294   8.028  14.585   7.133 -0.3248  0.1138  0.1281
 4564POPC   C3B55295   7.651  14.729   7.095  0.0365 -0.2595 -0.1912
 4564POPC   C4B55296   7.328  14.511   6.934 -0.0073  0.3351 -0.2107
 4565POPC   NC355297  13.237  24.477   8.105  0.1762 -0.0034  0.2271
 4565POPC   PO455298  13.197  24.877   8.095  0.1293  0.0449 -0.1210
 4565POPC   GL155299  13.192  24.888   7.660  0.0731  0.1890 -0.5826
 4565POPC   GL255300  13.497  24.981   7.641  0.0994  0.0605  0.1083
 4565POPC   C1A55301  13.329  24.664   7.283 -0.2115  0.0805  0.0980
 4565POPC   D2A55302  13.353  24.321   6.905 -0.1229  0.1361  0.0204
 4565POPC   C3A55303  12.957  24.238   6.729  0.3848  0.4181  0.1913
 4565POPC   C4A55304  12.663  24.396   6.437 -0.1027 -0.1563  0.1110
 4565POPC   C1B55305  13.432  25.109   7.141  0.0731  0.1364 -0.2153
 4565POPC   C2B55306  13.494  24.905   6.748 -0.0138  0.1691  0.0373
 4565POPC   C3B55307  13.595  24.688   6.356 -0.1239  0.0667  0.2046
 4565POPC   C4B55308  13.952  24.426   6.207 -0.3911  0.0420 -0.0077
 4566POPC   NC355309  13.183  22.790   7.863 -0.0031  0.0907 -0.0276
 4566POPC   PO455310  13.552  22.802   7.817  0.0158 -0.0831  0.1758
 4566POPC   GL155311  13.749  22.734   7.508 -0.1425 -0.3671 -0.1077
 4566POPC   GL255312  13.916  22.964   7.408  0.1479 -0.1868 -0.0138
 4566POPC   C1A55313  13.829  22.454   7.206  0.2227  0.2181 -0.0074
 4566POPC   D2A55314  13.935  22.429   6.748  0.1214  0.1048 -0.3607
 4566POPC   C3A55315  14.210  22.328   6.455 -0.0648 -0.1724 -0.3259
 4566POPC   C4A55316  14.187  22.000   6.136  0.3163 -0.1089 -0.0445
 4566POPC   C1B55317  13.993  22.873   6.943  0.0577  0.0357  0.4641
 4566POPC   C2B55318  13.989  22.811   6.441 -0.2588  0.0580  0.1634
 4566POPC   C3B55319  13.991  22.583   6.035  0.2498 -0.0936  0.0742
 4566POPC   C4B55320  14.111  22.402   5.622 -0.1683 -0.2560 -0.2103
 4567POPC   NC355321  23.841   7.755   7.787  0.1715  0.1676 -0.0010
 4567POPC   PO455322  23.664   7.426   7.955 -0.1110 -0.0492 -0.3887
 4567POPC   GL155323  23.537   7.348   7.546  0.3206  0.1306 -0.3898
 4567POPC   GL255324  23.339   7.593   7.639 -0.0221 -0.1105  0.1979
 4567POPC   C1A55325  23.692   7.224   7.091  0.3926  0.2796 -0.2046
 4567POPC   D2A55326  23.891   7.325   6.685  0.1782  0.3962 -0.0945
 4567POPC   C3A55327  23.651   7.583   6.461  0.4219  0.2049 -0.1001
 4567POPC   C4A55328  23.476   7.981   6.216  0.2731 -0.0455 -0.1203
 4567POPC   C1B55329  23.181   7.526   7.194 -0.3338  0.2380  0.1425
 4567POPC   C2B55330  22.907   7.453   6.845 -0.1166  0.2451  0.0761
 4567POPC   C3B55331  22.712   7.653   6.444  0.2168  0.0969 -0.1163
 4567POPC   C4B55332  22.806   7.827   6.006 -0.1079  0.0779  0.2544
 4568POPC   NC355333  26.598  25.662   7.809 -0.1373 -0.1683  0.0174
 4568POPC   PO455334  26.379  25.972   7.734 -0.0686 -0.2418 -0.3386
 4568POPC   GL155335  26.586  25.989   7.495  0.1985  0.1712  0.0507
 4568POPC   GL255336  26.719  25.763   7.298  0.3041 -0.1688 -0.1651
 4568POPC   C1A55337  26.589  26.246   7.127  0.2365 -0.0946  0.0309
 4568POPC   D2A55338  26.390  26.546   6.832  0.1749 -0.4501  0.0495
 4568POPC   C3A55339  26.041  26.423   6.466  0.0383 -0.2211 -0.1168
 4568POPC   C4A55340  25.904  26.166   6.103  0.3419 -0.0725  0.2135
 4568POPC   C1B55341  26.954  25.741   6.869  0.0035  0.1396  0.0693
 4568POPC   C2B55342  27.190  25.753   6.422  0.0751  0.3122  0.0438
 4568POPC   C3B55343  27.299  25.452   6.129  0.0844  0.2201 -0.0097
 4568POPC   C4B55344  27.516  25.140   5.891 -0.1554 -0.1945 -0.0062
 4569POPC   NC355345   3.026  10.801   8.183  0.1642 -0.0236 -0.1269
 4569POPC   PO455346   3.091  10.564   7.908 -0.1956 -0.2915  0.1978
 4569POPC   GL155347   3.010  10.556   7.525  0.0526  0.3287 -0.2046
 4569POPC   GL255348   3.178  10.222   7.453 -0.2705 -0.2106 -0.0327
 4569POPC   C1A55349   2.807  10.568   7.079 -0.2243 -0.0103 -0.2632
 4569POPC   D2A55350   2.519  10.546   6.706  0.1534 -0.0551  0.0560
 4569POPC   C3A55351   2.605  10.845   6.389 -0.0282  0.0123  0.0077
 4569POPC   C4A55352   2.567  10.834   5.900  0.0731 -0.3592 -0.1240
 4569POPC   C1B55353   3.322  10.221   6.979 -0.1052 -0.0160  0.0123
 4569POPC   C2B55354   3.040  10.353   6.707 -0.1747 -0.1995  0.0618
 4569POPC   C3B55355   2.885  10.426   6.279  0.0435  0.0829  0.1361
 4569POPC   C4B55356   2.638  10.170   5.924 -0.1531 -0.1619 -0.0012
 4570POPC   NC355357  12.904   7.498   7.318  0.0006  0.1680  0.0015
 4570POPC   PO455358  13.221   7.704   7.450  0.1520 -0.0064  0.0222
 4570POPC   GL155359  13.067   7.962   7.162 -0.1489 -0.2942  0.0406
 4570POPC   GL255360  13.341   8.105   7.108 -0.2137  0.0485  0.2865
 4570POPC   C1A55361  12.883   7.769   6.790  0.3683 -0.2671  0.1132
 4570POPC   D2A55362  12.556   7.464   6.704 -0.1216 -0.2884  0.5026
 4570POPC   C3A55363  12.689   7.285   6.315 -0.3872  0.1970  0.1869
 4570POPC   C4A55364  12.512   7.119   5.910  0.0702  0.2509  0.0196
 4570POPC   C1B55365  13.393   7.696   6.800 -0.0730 -0.1073  0.2669
 4570POPC   C2B55366  13.653   7.619   6.465 -0.0800 -0.0206 -0.1299
 4570POPC   C3B55367  13.715   7.585   6.008 -0.0409  0.3495  0.3689
 4570POPC   C4B55368  13.559   7.803   5.624 -0.2094  0.0355 -0.3267
 4571POPC   NC355369  20.262  31.436   7.627 -0.1826  0.0139  0.0415
 4571POPC   PO455370  20.480  31.733   7.519  0.3527  0.3871 -0.0895
 4571POPC   GL155371  20.485  31.456   7.221 -0.1813 -0.1632  0.0515
 4571POPC   GL255372  20.752  31.323   7.185 -0.3868 -0.1924  0.0995
 4571POPC   C1A55373  20.421  31.638   6.797 -0.3749 -0.1816 -0.0596
 4571POPC   D2A55374  20.199  31.725   6.358 -0.0273 -0.0876 -0.1749
 4571POPC   C3A55375  20.465  31.599   5.963 -0.0629 -0.0624 -0.0905
 4571POPC   C4A55376  20.210  31.665   5.591  0.0699  0.0653  0.4019
 4571POPC   C1B55377  20.878  31.387   6.714  0.2143  0.2069  0.0122
 4571POPC   C2B55378  20.790  31.576   6.352  0.1541  0.2942 -0.2781
 4571POPC   C3B55379  21.018  31.535   6.002  0.0254  0.1007 -0.0494
 4571POPC   C4B55380  21.152  31.489   5.519  0.0103  0.2690 -0.1652
 4572POPC   NC355381   2.241  11.022   8.311  0.1935  0.0612 -0.1586
 4572POPC   PO455382   2.582  11.115   8.046  0.1571  0.2365 -0.1372
 4572POPC   GL155383   2.704  11.264   7.687 -0.1252  0.0630  0.0886
 4572POPC   GL255384   2.458  11.232   7.539 -0.1014  0.1865  0.1471
 4572POPC   C1A55385   2.811  11.699   7.502 -0.1723 -0.0737 -0.1378
 4572POPC   D2A55386   3.062  12.030   7.390  0.3800  0.0616 -0.0187
 4572POPC   C3A55387   3.155  12.109   6.916 -0.0502 -0.2222 -0.0550
 4572POPC   C4A55388   3.287  12.166   6.484  0.0455 -0.1067  0.2095
 4572POPC   C1B55389   2.580  11.434   7.137  0.1209  0.1711 -0.1828
 4572POPC   C2B55390   2.453  11.503   6.714 -0.0337 -0.0402  0.2125
 4572POPC   C3B55391   2.558  11.690   6.316  0.3454 -0.1296 -0.1243
 4572POPC   C4B55392   2.960  11.781   6.074 -0.1836  0.2551  0.0708
 4573POPC   NC355393   9.414   0.628   8.078 -0.4727  0.2749  0.0792
 4573POPC   PO455394   9.607   0.283   8.180  0.2743 -0.0580 -0.0094
 4573POPC   GL155395   9.798   0.392   7.885 -0.3530  0.0068 -0.4154
 4573POPC   GL255396   9.808   0.686   7.732 -0.0207 -0.4122 -0.0554
 4573POPC   C1A55397  10.045   0.290   7.493 -0.0688  0.0723  0.2808
 4573POPC   D2A55398  10.235   0.665   7.416 -0.0929  0.0352 -0.0393
 4573POPC   C3A55399  10.369   0.920   7.018  0.1432 -0.1612  0.0244
 4573POPC   C4A55400  10.729   0.838   6.718  0.1076 -0.2969  0.2797
 4573POPC   C1B55401   9.744   0.730   7.253 -0.0515 -0.0512  0.0693
 4573POPC   C2B55402   9.894   0.856   6.839  0.2772 -0.1083 -0.3046
 4573POPC   C3B55403  10.109   1.187   6.561 -0.3882 -0.1008  0.2780
 4573POPC   C4B55404  10.145   1.563   6.328 -0.0755  0.2452  0.1130
 4574POPC   NC355405  17.898   5.217   7.650 -0.1632 -0.0733 -0.3810
 4574POPC   PO455406  18.152   5.447   7.432 -0.1268  0.2121 -0.0541
 4574POPC   GL155407  18.099   5.548   7.044  0.0652  0.1644 -0.3048
 4574POPC   GL255408  18.272   5.629   6.956  0.1164 -0.2007 -0.1096
 4574POPC   C1A55409  18.037   5.242   6.678  0.0392  0.0438 -0.0712
 4574POPC   D2A55410  17.914   5.435   6.281  0.1243  0.0469  0.2056
 4574POPC   C3A55411  17.863   5.811   6.005 -0.0084  0.1353  0.0642
 4574POPC   C4A55412  17.797   5.982   5.591  0.3617 -0.0291 -0.2641
 4574POPC   C1B55413  18.303   5.732   6.482  0.1360  0.3893  0.0612
 4574POPC   C2B55414  18.387   5.803   6.016 -0.0947 -0.3353 -0.0147
 4574POPC   C3B55415  18.461   6.025   5.617  0.1322 -0.0415 -0.0847
 4574POPC   C4B55416  18.810   6.000   5.331 -0.0221  0.0272 -0.0203
 4575POPC   NC355417  30.229  19.904   8.019  0.0326  0.0936  0.0278
 4575POPC   PO455418  29.931  20.154   7.892 -0.2951  0.1003  0.0625
 4575POPC   GL155419  30.137  20.194   7.592 -0.2526 -0.0470 -0.0381
 4575POPC   GL255420  30.321  19.968   7.483  0.0568 -0.0908 -0.2340
 4575POPC   C1A55421  30.494  20.409   7.381 -0.2174 -0.1382  0.0392
 4575POPC   D2A55422  30.667  20.405   6.965 -0.3810 -0.3836  0.2917
 4575POPC   C3A55423  30.908  20.222   6.584 -0.2690 -0.0125  0.0426
 4575POPC   C4A55424  30.970  20.324   6.165 -0.4954  0.1746 -0.0622
 4575POPC   C1B55425  30.251  20.100   7.052 -0.1581 -0.1688 -0.1319
 4575POPC   C2B55426  30.192  20.156   6.606  0.1751 -0.0726 -0.0766
 4575POPC   C3B55427  30.045  19.983   6.257 -0.1461 -0.2844  0.1607
 4575POPC   C4B55428  30.105  19.780   5.847  0.1513 -0.1513  0.0627
 4576POPC   NC355429   9.166   8.352   7.880 -0.2351 -0.3052 -0.0518
 4576POPC   PO455430   8.822   8.086   7.854  0.0183 -0.2080  0.1034
 4576POPC   GL155431   8.810   8.147   7.476 -0.0097 -0.1902 -0.1312
 4576POPC   GL255432   9.014   8.231   7.351  0.2045 -0.3962  0.0453
 4576POPC   C1A55433   8.710   7.972   7.037 -0.0713  0.0742  0.1225
 4576POPC   D2A55434   8.821   7.574   6.769  0.2729  0.1649  0.1136
 4576POPC   C3A55435   8.674   7.603   6.337  0.0553 -0.1306 -0.0907
 4576POPC   C4A55436   8.737   7.587   5.870  0.1296 -0.0654  0.0859
 4576POPC   C1B55437   9.167   8.276   6.927 -0.0517 -0.1901  0.1768
 4576POPC   C2B55438   9.234   8.429   6.480 -0.0273  0.0386  0.2717
 4576POPC   C3B55439   9.347   8.189   6.085  0.0392  0.3096  0.0692
 4576POPC   C4B55440   9.134   8.206   5.689 -0.0853  0.0511  0.1142
 4577POPC   NC355441  24.607   0.233   7.554  0.1397 -0.0907  0.0738
 4577POPC   PO455442  24.911   0.040   7.627 -0.0232  0.2512 -0.0079
 4577POPC   GL155443  24.964   0.057   7.273  0.2368 -0.1052 -0.0874
 4577POPC   GL255444  24.879   0.343   7.170 -0.0220  0.2428 -0.3841
 4577POPC   C1A55445  25.270   0.010   6.931  0.0921 -0.1766 -0.1270
 4577POPC   D2A55446  25.342   0.137   6.494 -0.0151  0.2100  0.0331
 4577POPC   C3A55447  25.125   0.171   6.028 -0.0383 -0.0359  0.0119
 4577POPC   C4A55448  24.874   0.446   5.766  0.1358  0.2438 -0.1910
 4577POPC   C1B55449  25.065   0.510   6.800  0.0270  0.0635  0.0779
 4577POPC   C2B55450  25.088   0.568   6.344 -0.0199  0.2231  0.2587
 4577POPC   C3B55451  25.178   0.878   6.011  0.2102  0.0524  0.1114
 4577POPC   C4B55452  25.495   1.075   5.787 -0.2461 -0.0197 -0.1348
 4578POPC   NC355453  30.108  13.118   8.315 -0.3635 -0.3707 -0.0251
 4578POPC   PO455454  30.018  13.389   8.016  0.1905  0.2549  0.0773
 4578POPC   GL155455  30.299  13.536   7.747 -0.1688  0.0087 -0.0409
 4578POPC   GL255456  30.219  13.342   7.522  0.1424  0.1124 -0.2192
 4578POPC   C1A55457  30.342  13.998   7.622  0.0302  0.1197 -0.2650
 4578POPC   D2A55458  30.503  14.419   7.660  0.0244 -0.1571 -0.0156
 4578POPC   C3A55459  30.782  14.673   7.341  0.2136  0.1649 -0.0404
 4578POPC   C4A55460  31.065  14.965   7.186  0.0803 -0.2588 -0.1706
 4578POPC   C1B55461  30.213  13.675   7.258  0.2938 -0.0002 -0.3002
 4578POPC   C2B55462  30.279  13.727   6.848 -0.3474  0.2670  0.0930
 4578POPC   C3B55463  30.081  13.502   6.495 -0.0195  0.3513 -0.2622
 4578POPC   C4B55464  29.925  13.557   6.079 -0.3462  0.0390 -0.0634
 4579POPC   NC355465  23.186  19.635   7.851  0.0093  0.4108 -0.0250
 4579POPC   PO455466  22.794  19.602   7.732 -0.0224  0.2271  0.1683
 4579POPC   GL155467  23.027  19.578   7.385 -0.0031 -0.1435 -0.0285
 4579POPC   GL255468  22.886  19.889   7.330  0.1312 -0.1879 -0.1803
 4579POPC   C1A55469  22.958  19.555   6.907 -0.1854 -0.1252  0.1248
 4579POPC   D2A55470  22.930  19.724   6.474 -0.0570 -0.3148  0.0789
 4579POPC   C3A55471  23.118  19.479   6.187 -0.1174 -0.0000 -0.0248
 4579POPC   C4A55472  23.244  19.339   5.798 -0.1643 -0.1059 -0.1127
 4579POPC   C1B55473  22.858  20.069   6.897 -0.1098  0.3185  0.0802
 4579POPC   C2B55474  23.082  20.249   6.548  0.3069  0.0062 -0.3844
 4579POPC   C3B55475  23.459  20.419   6.336 -0.0148 -0.0975  0.1453
 4579POPC   C4B55476  23.742  20.384   5.992 -0.1301  0.1584  0.1451
 4580POPC   NC355477  26.756  10.509   7.606 -0.1880  0.1071 -0.3746
 4580POPC   PO455478  26.356  10.411   7.618 -0.2156  0.0827  0.2544
 4580POPC   GL155479  26.084  10.501   7.316  0.1605 -0.0394 -0.3906
 4580POPC   GL255480  25.903  10.639   7.373 -0.0604 -0.0015  0.1969
 4580POPC   C1A55481  26.016  10.233   6.917  0.0234  0.0259  0.0266
 4580POPC   D2A55482  26.098   9.893   6.581 -0.0777  0.0229 -0.2246
 4580POPC   C3A55483  25.833   9.942   6.175  0.1679  0.1076 -0.0023
 4580POPC   C4A55484  25.401   9.837   6.092 -0.2987  0.1353  0.1140
 4580POPC   C1B55485  25.686  10.621   6.980  0.1692  0.3637 -0.3004
 4580POPC   C2B55486  25.799  10.486   6.535  0.2781 -0.0931 -0.0871
 4580POPC   C3B55487  25.691  10.495   6.036 -0.3394 -0.1071 -0.1192
 4580POPC   C4B55488  25.487  10.413   5.669  0.0507 -0.0515  0.0160
 4581POPC   NC355489  22.463   9.756   7.872  0.1394  0.0015  0.2667
 4581POPC   PO455490  22.294   9.446   7.705 -0.1592  0.0081  0.0393
 4581POPC   GL155491  22.107   9.208   7.380  0.0253 -0.3274 -0.0652
 4581POPC   GL255492  21.821   9.096   7.403 -0.0917  0.2396 -0.0327
 4581POPC   C1A55493  21.994   9.529   7.040 -0.1618  0.1045 -0.0967
 4581POPC   D2A55494  21.773   9.974   6.972 -0.0413  0.0071 -0.1157
 4581POPC   C3A55495  21.772  10.071   6.527  0.0022 -0.3024 -0.1574
 4581POPC   C4A55496  21.791   9.899   6.109 -0.0076 -0.0800  0.2072
 4581POPC   C1B55497  21.656   9.107   6.969 -0.1671 -0.2209  0.1910
 4581POPC   C2B55498  21.504   9.076   6.518 -0.2100  0.0824 -0.1781
 4581POPC   C3B55499  21.208   9.006   6.199 -0.0398 -0.0923 -0.0198
 4581POPC   C4B55500  20.857   8.745   6.050 -0.1387 -0.0264  0.1651
 4582POPC   NC355501  18.002  25.014   7.429  0.2610 -0.2059 -0.0582
 4582POPC   PO455502  17.688  24.769   7.485  0.1788  0.1882 -0.0374
 4582POPC   GL155503  17.711  24.584   7.100 -0.1968  0.3944  0.1153
 4582POPC   GL255504  17.722  24.877   6.943 -0.3428 -0.1612 -0.1342
 4582POPC   C1A55505  17.946  24.405   6.778 -0.0343 -0.0605 -0.1376
 4582POPC   D2A55506  18.105  24.036   6.712 -0.2421  0.1308  0.1178
 4582POPC   C3A55507  18.189  23.837   6.309 -0.1925 -0.0476 -0.1241
 4582POPC   C4A55508  18.174  23.690   5.832 -0.0529 -0.1007 -0.0727
 4582POPC   C1B55509  17.884  24.946   6.548 -0.1839  0.2239 -0.0779
 4582POPC   C2B55510  17.932  24.606   6.281 -0.1884  0.0287  0.2503
 4582POPC   C3B55511  17.777  24.143   6.250  0.0281  0.1874 -0.0147
 4582POPC   C4B55512  17.760  23.715   6.141 -0.0008 -0.0349 -0.2052
 4583POPC   NC355513   1.028  13.993   7.961  0.0441  0.1968 -0.0190
 4583POPC   PO455514   0.916  14.363   7.990 -0.0203  0.1552 -0.1466
 4583POPC   GL155515   0.978  14.608   7.580  0.3455  0.1395  0.2755
 4583POPC   GL255516   1.298  14.624   7.491  0.0866 -0.1758  0.0591
 4583POPC   C1A55517   0.592  14.798   7.384  0.3038 -0.2730 -0.1389
 4583POPC   D2A55518   0.345  14.760   6.983 -0.0413 -0.0354  0.0476
 4583POPC   C3A55519   0.374  14.803   6.532  0.1448 -0.3188 -0.0575
 4583POPC   C4A55520   0.591  15.008   6.175 -0.2458 -0.0398  0.0607
 4583POPC   C1B55521   1.139  14.418   7.070  0.0538 -0.0614  0.2131
 4583POPC   C2B55522   1.003  14.269   6.638  0.1641  0.0007 -0.3358
 4583POPC   C3B55523   1.266  14.223   6.288  0.1404 -0.0516 -0.2296
 4583POPC   C4B55524   1.187  13.964   5.902 -0.1952  0.0473 -0.2066
 4584POPC   NC355525   1.249  31.384   8.145  0.0040  0.2949 -0.0381
 4584POPC   PO455526   1.475  31.309   7.847  0.1699 -0.0976 -0.0764
 4584POPC   GL155527   1.485  31.342   7.465  0.0392 -0.0446  0.0180
 4584POPC   GL255528   1.712  31.105   7.447  0.3369 -0.1480  0.0386
 4584POPC   C1A55529   1.512  31.256   7.026 -0.0782 -0.3504  0.1231
 4584POPC   D2A55530   1.361  31.238   6.628 -0.1803  0.1546  0.0950
 4584POPC   C3A55531   1.587  31.121   6.260  0.0367  0.0624 -0.1089
 4584POPC   C4A55532   1.653  30.910   5.787 -0.1359 -0.0124 -0.1108
 4584POPC   C1B55533   1.846  30.938   7.002 -0.0357 -0.2742 -0.0543
 4584POPC   C2B55534   2.073  31.088   6.591  0.1037  0.2405  0.1374
 4584POPC   C3B55535   2.148  31.102   6.157  0.2523 -0.1129  0.0952
 4584POPC   C4B55536   2.550  30.939   5.966  0.1169 -0.1569  0.1763
 4585POPC   NC355537  23.948  21.956   7.415 -0.1305  0.3512  0.0341
 4585POPC   PO455538  23.991  21.969   7.795  0.0248 -0.4270  0.1947
 4585POPC   GL155539  24.374  22.077   7.552 -0.0223 -0.2957  0.3136
 4585POPC   GL255540  24.259  22.381   7.428  0.0771  0.1009  0.1657
 4585POPC   C1A55541  24.811  22.015   7.323  0.0543  0.2265 -0.0861
 4585POPC   D2A55542  25.044  21.748   6.987  0.0977  0.1073  0.1901
 4585POPC   C3A55543  25.319  21.365   7.114 -0.0213 -0.0178 -0.2638
 4585POPC   C4A55544  25.514  20.906   7.269 -0.0869  0.0984 -0.0530
 4585POPC   C1B55545  24.416  22.442   6.936  0.1171 -0.0911 -0.2167
 4585POPC   C2B55546  24.733  22.618   6.659 -0.1609  0.2080 -0.2365
 4585POPC   C3B55547  24.861  22.582   6.182 -0.0844  0.1937 -0.3325
 4585POPC   C4B55548  24.973  22.367   5.766  0.1484 -0.0118 -0.1621
 4586POPC   NC355549  29.805  13.728   7.687 -0.1966 -0.3315 -0.0484
 4586POPC   PO455550  29.464  13.629   7.913  0.0065  0.0486  0.0023
 4586POPC   GL155551  29.463  13.459   7.579  0.2854 -0.1110  0.1839
 4586POPC   GL255552  29.664  13.245   7.665  0.0982  0.1202 -0.6762
 4586POPC   C1A55553  29.689  13.643   7.193 -0.2797  0.1475 -0.3494
 4586POPC   D2A55554  29.836  13.829   6.801 -0.0908 -0.3093  0.0681
 4586POPC   C3A55555  29.591  13.726   6.435 -0.1423  0.2995 -0.1468
 4586POPC   C4A55556  29.232  13.901   6.196  0.1291 -0.2279 -0.1522
 4586POPC   C1B55557  29.533  13.198   7.207  0.0710  0.1095  0.1263
 4586POPC   C2B55558  29.610  13.337   6.789  0.1242 -0.1225  0.1063
 4586POPC   C3B55559  29.669  13.212   6.348 -0.3185  0.3389 -0.1616
 4586POPC   C4B55560  29.849  13.063   5.891 -0.1817 -0.2809 -0.1755
 4587POPC   NC355561   2.352  23.084   7.856 -0.1245 -0.2201 -0.0253
 4587POPC   PO455562   2.785  23.149   7.775  0.0975 -0.2714  0.1929
 4587POPC   GL155563   2.967  23.229   7.436 -0.1072 -0.3216  0.1704
 4587POPC   GL255564   3.139  22.961   7.350  0.1305  0.1904 -0.1610
 4587POPC   C1A55565   2.824  23.156   6.986 -0.2217  0.4763  0.3537
 4587POPC   D2A55566   2.839  22.940   6.606  0.2894  0.0710  0.3297
 4587POPC   C3A55567   2.918  22.911   6.196 -0.1288  0.1829  0.0490
 4587POPC   C4A55568   2.897  22.693   5.794  0.1419 -0.0394  0.1310
 4587POPC   C1B55569   3.303  23.107   6.968  0.2227  0.0140  0.1737
 4587POPC   C2B55570   3.479  23.193   6.535  0.1770 -0.2281  0.3460
 4587POPC   C3B55571   3.504  23.096   6.046  0.2183 -0.0275 -0.2138
 4587POPC   C4B55572   3.507  23.395   5.682  0.3572  0.0331  0.0533
 4588POPC   NC355573   7.417  15.493   7.992  0.1595  0.1016  0.2614
 4588POPC   PO455574   7.733  15.589   7.774  0.1004 -0.1816 -0.2939
 4588POPC   GL155575   7.501  15.588   7.462 -0.1801 -0.1287 -0.1591
 4588POPC   GL255576   7.241  15.498   7.486  0.1260  0.2012 -0.0005
 4588POPC   C1A55577   7.281  15.839   7.145  0.0325 -0.2334  0.2112
 4588POPC   D2A55578   6.857  15.806   6.937 -0.0252 -0.3423  0.3161
 4588POPC   C3A55579   6.679  16.094   6.588 -0.0366 -0.0316 -0.1710
 4588POPC   C4A55580   6.633  16.277   6.157 -0.0798  0.0443  0.0388
 4588POPC   C1B55581   6.939  15.344   7.133 -0.3638  0.0399 -0.2590
 4588POPC   C2B55582   7.017  15.114   6.708 -0.2179  0.3118  0.0623
 4588POPC   C3B55583   7.104  15.242   6.264  0.1038  0.2185 -0.0043
 4588POPC   C4B55584   7.243  15.512   5.903 -0.2043  0.2439  0.1588
 4589POPC   NC355585  22.660   8.110   7.987  0.1028 -0.1619 -0.0977
 4589POPC   PO455586  22.309   8.015   7.868 -0.2162 -0.0514  0.2344
 4589POPC   GL155587  22.504   7.985   7.503  0.0414  0.1519 -0.0527
 4589POPC   GL255588  22.238   7.918   7.292  0.0746  0.1838  0.2882
 4589POPC   C1A55589  22.762   8.050   7.143  0.0534 -0.1871 -0.2327
 4589POPC   D2A55590  23.195   8.115   6.978 -0.1285  0.1796  0.1526
 4589POPC   C3A55591  23.193   7.801   6.627 -0.0121 -0.3166 -0.1685
 4589POPC   C4A55592  23.161   7.513   6.259 -0.0135 -0.0696  0.2274
 4589POPC   C1B55593  22.279   8.158   6.939  0.0086 -0.1553 -0.2107
 4589POPC   C2B55594  22.206   8.375   6.533  0.0925 -0.1566 -0.2125
 4589POPC   C3B55595  22.386   8.667   6.238  0.1277 -0.1549 -0.1726
 4589POPC   C4B55596  22.616   8.755   5.827 -0.3159  0.0232 -0.2367
 4590POPC   NC355597  16.454  10.655   7.753  0.2347 -0.1381 -0.1265
 4590POPC   PO455598  16.149  10.881   7.834 -0.0480 -0.0326 -0.2277
 4590POPC   GL155599  16.179  11.005   7.399  0.0010  0.3409 -0.0708
 4590POPC   GL255600  16.246  10.700   7.203 -0.0015  0.1465 -0.2078
 4590POPC   C1A55601  15.895  11.060   7.077  0.0830  0.0275 -0.1547
 4590POPC   D2A55602  15.677  11.058   6.651 -0.3104 -0.3137  0.0044
 4590POPC   C3A55603  16.002  11.045   6.381 -0.2170  0.1026  0.1369
 4590POPC   C4A55604  16.235  11.095   5.967 -0.0138 -0.0649 -0.0702
 4590POPC   C1B55605  16.336  10.633   6.714 -0.2622 -0.1994  0.2000
 4590POPC   C2B55606  16.399  10.722   6.307  0.0990 -0.3061 -0.0557
 4590POPC   C3B55607  16.689  11.021   6.107 -0.1933  0.0771  0.0963
 4590POPC   C4B55608  16.694  11.323   5.828  0.1219 -0.3699  0.1432
 4591POPC   NC355609  28.292  24.405   7.794  0.2284  0.1607  0.0207
 4591POPC   PO455610  28.655  24.201   7.714 -0.1192  0.0693 -0.0888
 4591POPC   GL155611  28.512  24.293   7.307 -0.2317  0.0491  0.2131
 4591POPC   GL255612  28.340  24.068   7.391 -0.0803 -0.2518 -0.1380
 4591POPC   C1A55613  28.227  24.188   6.870 -0.2272 -0.1489  0.0562
 4591POPC   D2A55614  28.119  24.049   6.423  0.0124 -0.1077 -0.0271
 4591POPC   C3A55615  28.123  23.700   6.188  0.0426 -0.0586 -0.0816
 4591POPC   C4A55616  28.398  23.304   6.186  0.3370  0.1726 -0.0751
 4591POPC   C1B55617  28.633  23.975   6.981 -0.0170  0.1348 -0.3286
 4591POPC   C2B55618  28.611  24.015   6.484  0.0038  0.0286 -0.1281
 4591POPC   C3B55619  28.955  24.166   6.178 -0.5586  0.0526 -0.0678
 4591POPC   C4B55620  29.395  24.163   6.146 -0.2739  0.0212  0.1003
 4592POPC   NC355621   5.809   1.767   7.878  0.0810  0.1331 -0.2123
 4592POPC   PO455622   6.020   2.123   7.942  0.1664 -0.1104 -0.1579
 4592POPC   GL155623   6.359   1.979   7.744 -0.2654  0.0441 -0.1464
 4592POPC   GL255624   6.302   1.686   7.712  0.1106  0.1914 -0.2730
 4592POPC   C1A55625   6.551   2.059   7.284  0.0786 -0.4560 -0.0025
 4592POPC   D2A55626   6.860   2.078   6.919 -0.1570 -0.1061 -0.2890
 4592POPC   C3A55627   6.876   2.325   6.534 -0.0858 -0.3349 -0.0903
 4592POPC   C4A55628   7.063   2.372   6.169 -0.0576 -0.1123 -0.3383
 4592POPC   C1B55629   6.278   1.674   7.281  0.0593 -0.0687 -0.1119
 4592POPC   C2B55630   6.421   1.720   6.863 -0.1527 -0.3514 -0.1078
 4592POPC   C3B55631   6.451   1.723   6.376 -0.0401  0.1233  0.3521
 4592POPC   C4B55632   6.458   1.909   5.916 -0.0651 -0.0805  0.4688
 4593POPC   NC355633  23.784  13.640   7.615 -0.0994  0.1231 -0.2768
 4593POPC   PO455634  23.488  13.913   7.665 -0.2281  0.1090 -0.2641
 4593POPC   GL155635  23.350  13.919   7.348 -0.2155 -0.3288  0.0273
 4593POPC   GL255636  23.146  13.713   7.266 -0.0222  0.1578  0.0212
 4593POPC   C1A55637  23.571  13.816   6.960 -0.3262 -0.0830 -0.2677
 4593POPC   D2A55638  23.810  13.722   6.602 -0.2441  0.1103 -0.4566
 4593POPC   C3A55639  23.878  13.599   6.165  0.0147 -0.1152 -0.0431
 4593POPC   C4A55640  23.750  13.579   5.732 -0.1047 -0.0261  0.1659
 4593POPC   C1B55641  23.174  13.495   6.876  0.0087  0.0514 -0.0914
 4593POPC   C2B55642  23.292  13.386   6.452 -0.0992 -0.1796 -0.0541
 4593POPC   C3B55643  23.471  13.277   6.050 -0.0904  0.1266 -0.0363
 4593POPC   C4B55644  23.396  13.252   5.603 -0.1644 -0.1067 -0.0985
 4594POPC   NC355645  27.256   4.295   8.680  0.0092 -0.1913  0.0451
 4594POPC   PO455646  27.092   4.592   8.517 -0.3236 -0.0921 -0.0316
 4594POPC   GL155647  27.062   4.579   8.115 -0.2803  0.0246 -0.0394
 4594POPC   GL255648  26.761   4.563   8.159  0.1922  0.4158 -0.1747
 4594POPC   C1A55649  26.980   4.216   7.871  0.0801  0.1065  0.0676
 4594POPC   D2A55650  26.963   3.827   7.595 -0.0662 -0.1322  0.2000
 4594POPC   C3A55651  27.047   3.767   7.130 -0.0899  0.1744 -0.0690
 4594POPC   C4A55652  26.887   3.717   6.682  0.2239 -0.0308 -0.1251
 4594POPC   C1B55653  26.353   4.300   8.182 -0.0500  0.0959  0.1052
 4594POPC   C2B55654  26.142   3.935   7.936 -0.1009  0.1320 -0.2705
 4594POPC   C3B55655  26.314   3.581   7.707  0.0609 -0.0636 -0.1351
 4594POPC   C4B55656  26.301   3.144   7.628 -0.0206 -0.2240  0.1629
 4595POPC   NC355657  17.520  18.357   8.172 -0.0502 -0.2539 -0.3711
 4595POPC   PO455658  17.884  18.288   8.055  0.2147 -0.2625  0.0055
 4595POPC   GL155659  17.866  18.224   7.689  0.1808  0.0096 -0.1244
 4595POPC   GL255660  18.089  18.088   7.559  0.1789  0.0194  0.1644
 4595POPC   C1A55661  17.652  18.099   7.273  0.0510  0.1900 -0.0839
 4595POPC   D2A55662  17.298  17.921   7.097  0.1039  0.3086 -0.0823
 4595POPC   C3A55663  17.367  17.892   6.663  0.1446  0.1545 -0.0558
 4595POPC   C4A55664  17.499  17.884   6.199 -0.1258  0.0227 -0.2021
 4595POPC   C1B55665  18.330  18.327   7.278  0.2504 -0.0856 -0.2091
 4595POPC   C2B55666  18.345  18.346   6.814 -0.0356 -0.0769 -0.0403
 4595POPC   C3B55667  18.389  18.360   6.344  0.0917  0.1263  0.0445
 4595POPC   C4B55668  18.409  18.140   5.933 -0.1110  0.0419  0.3032
 4596POPC   NC355669  22.522   3.799   7.436  0.1711 -0.0716  0.0766
 4596POPC   PO455670  22.362   3.606   7.758  0.2504  0.1292  0.1489
 4596POPC   GL155671  22.105   3.618   7.306 -0.0800 -0.0557  0.1800
 4596POPC   GL255672  21.943   3.833   7.392 -0.1552 -0.2446  0.3510
 4596POPC   C1A55673  21.846   3.364   7.015  0.1576 -0.1875  0.2697
 4596POPC   D2A55674  21.857   2.946   6.865  0.1012  0.0784 -0.0699
 4596POPC   C3A55675  22.007   3.025   6.403 -0.1113 -0.0658 -0.0761
 4596POPC   C4A55676  22.070   2.804   5.959  0.0450  0.2092  0.2702
 4596POPC   C1B55677  21.633   3.958   7.043  0.1512 -0.0018  0.1802
 4596POPC   C2B55678  21.420   3.738   6.709  0.1106  0.3083  0.0925
 4596POPC   C3B55679  21.302   3.915   6.311  0.0594  0.1845 -0.0806
 4596POPC   C4B55680  21.231   4.244   6.016  0.0914 -0.1340 -0.2082
 4597POPC   NC355681   8.685   5.054   7.482  0.1770  0.2467  0.1148
 4597POPC   PO455682   8.722   4.648   7.420 -0.1064 -0.0689 -0.4329
 4597POPC   GL155683   8.585   4.303   7.291 -0.5031 -0.2576  0.1934
 4597POPC   GL255684   8.897   4.194   7.167  0.3490 -0.0360 -0.0038
 4597POPC   C1A55685   8.563   4.177   6.849 -0.3063 -0.1358  0.0330
 4597POPC   D2A55686   8.387   4.072   6.439 -0.1525 -0.1153  0.0778
 4597POPC   C3A55687   7.964   3.855   6.303  0.1067 -0.2186 -0.1328
 4597POPC   C4A55688   7.518   3.927   6.160 -0.1335  0.0620  0.1429
 4597POPC   C1B55689   9.141   4.060   6.795 -0.1996  0.3380 -0.0816
 4597POPC   C2B55690   9.238   3.780   6.432  0.4034 -0.0591  0.2094
 4597POPC   C3B55691   9.334   3.784   6.013  0.0162 -0.3860  0.0808
 4597POPC   C4B55692   9.296   3.552   5.618 -0.5713  0.1907  0.0018
 4598POPC   NC355693  28.545  19.259   8.132  0.1743  0.4082  0.1941
 4598POPC   PO455694  28.461  19.477   7.809 -0.1163 -0.1476  0.0004
 4598POPC   GL155695  28.523  19.420   7.468  0.3306  0.0332  0.1110
 4598POPC   GL255696  28.355  19.551   7.255  0.0375  0.0403  0.2333
 4598POPC   C1A55697  28.851  19.436   7.145  0.4719  0.2740 -0.2783
 4598POPC   D2A55698  29.233  19.578   6.944 -0.2380  0.1676  0.3202
 4598POPC   C3A55699  29.101  19.818   6.585  0.0716  0.3205 -0.3423
 4598POPC   C4A55700  28.883  19.832   6.209 -0.4402 -0.1579 -0.1590
 4598POPC   C1B55701  28.458  19.363   6.865  0.1668  0.1612 -0.0362
 4598POPC   C2B55702  28.316  19.220   6.411 -0.0611 -0.0455  0.0088
 4598POPC   C3B55703  28.318  18.948   6.074 -0.2866 -0.0286 -0.0658
 4598POPC   C4B55704  28.078  19.028   5.660  0.0875  0.2708  0.0462
 4599POPC   NC355705  13.616   5.437   7.865 -0.0584  0.1992  0.3515
 4599POPC   PO455706  13.945   5.548   7.730 -0.0038  0.0765  0.0810
 4599POPC   GL155707  13.948   5.506   7.282 -0.2402 -0.0759 -0.0591
 4599POPC   GL255708  13.677   5.732   7.366 -0.0180 -0.0707  0.0418
 4599POPC   C1A55709  13.687   5.388   6.908  0.0441  0.2622  0.0537
 4599POPC   D2A55710  13.335   5.334   6.587  0.2087  0.0695  0.0691
 4599POPC   C3A55711  13.384   5.575   6.182 -0.0836  0.1303  0.1813
 4599POPC   C4A55712  12.953   5.627   5.961  0.1033 -0.0499  0.0700
 4599POPC   C1B55713  13.806   5.926   6.910  0.1302  0.2433 -0.2313
 4599POPC   C2B55714  13.580   5.930   6.501 -0.3299 -0.0707 -0.3047
 4599POPC   C3B55715  13.279   6.073   6.187 -0.1415  0.0674 -0.0560
 4599POPC   C4B55716  12.944   6.306   5.906 -0.1058 -0.0181 -0.1398
 4600POPC   NC355717  17.857   5.081   7.144  0.1008 -0.0449  0.2946
 4600POPC   PO455718  17.639   4.819   7.320 -0.0536 -0.3482 -0.0907
 4600POPC   GL155719  17.428   4.836   6.994  0.1201 -0.2828 -0.3400
 4600POPC   GL255720  17.672   4.763   6.847 -0.0132  0.0604  0.0490
 4600POPC   C1A55721  17.027   4.954   6.743  0.0451 -0.2320  0.1142
 4600POPC   D2A55722  16.782   4.796   6.364  0.1543  0.0785 -0.0188
 4600POPC   C3A55723  16.656   5.113   6.098 -0.1534 -0.2087  0.1292
 4600POPC   C4A55724  16.728   5.302   5.682  0.3120 -0.0936 -0.1579
 4600POPC   C1B55725  17.371   4.666   6.520 -0.1907 -0.0583 -0.2283
 4600POPC   C2B55726  17.207   4.724   6.128  0.0617  0.0064  0.1111
 4600POPC   C3B55727  17.382   4.676   5.749  0.1778 -0.2345  0.3744
 4600POPC   C4B55728  17.260   4.677   5.251 -0.0976 -0.1442 -0.0034
 4601POPC   NC355729  19.109   7.220   8.179  0.1119 -0.0447 -0.0195
 4601POPC   PO455730  19.085   7.532   7.955 -0.2307  0.0280 -0.4725
 4601POPC   GL155731  19.094   7.435   7.450 -0.1901  0.2473  0.0745
 4601POPC   GL255732  18.953   7.620   7.293 -0.1978  0.0373 -0.1006
 4601POPC   C1A55733  19.176   7.268   6.988 -0.0849  0.0532  0.1919
 4601POPC   D2A55734  19.517   7.219   6.669  0.2637 -0.2643  0.2677
 4601POPC   C3A55735  19.159   7.447   6.408  0.0011 -0.1911 -0.1861
 4601POPC   C4A55736  18.968   7.333   6.002 -0.3199  0.1427 -0.2170
 4601POPC   C1B55737  18.725   7.463   6.887  0.2545 -0.1659  0.2517
 4601POPC   C2B55738  18.565   7.496   6.443 -0.1289  0.2696  0.0863
 4601POPC   C3B55739  18.406   7.427   6.040  0.3260  0.1280  0.1750
 4601POPC   C4B55740  18.011   7.200   5.914  0.0256 -0.1400  0.2610
 4602POPC   NC355741  27.882   4.173   7.386 -0.1145  0.1978  0.0338
 4602POPC   PO455742  28.127   4.065   7.653 -0.0340 -0.1694 -0.2365
 4602POPC   GL155743  27.823   3.869   7.731 -0.2572 -0.1889  0.0492
 4602POPC   GL255744  27.594   4.024   7.813  0.3056 -0.2720  0.3368
 4602POPC   C1A55745  27.576   3.670   7.404  0.0810  0.0488 -0.3117
 4602POPC   D2A55746  27.415   3.308   7.069  0.2030  0.2177 -0.3157
 4602POPC   C3A55747  27.243   3.338   7.485  0.0901  0.1891 -0.0735
 4602POPC   C4A55748  26.752   3.307   7.561 -0.1167 -0.2580  0.1935
 4602POPC   C1B55749  27.338   4.093   7.509  0.2127  0.2120 -0.1342
 4602POPC   C2B55750  26.977   4.254   7.272  0.0784 -0.0846  0.0245
 4602POPC   C3B55751  26.833   4.579   7.037 -0.2633 -0.3423 -0.2709
 4602POPC   C4B55752  26.428   4.663   6.762 -0.1431  0.0945  0.1344
 4603POPC   NC355753   9.836  22.710   7.567 -0.0511 -0.2104  0.0993
 4603POPC   PO455754   9.533  22.593   7.801 -0.2053  0.2268  0.0327
 4603POPC   GL155755   9.643  22.276   7.559  0.2818 -0.1953  0.2137
 4603POPC   GL255756   9.375  22.282   7.453 -0.0422  0.0360  0.1713
 4603POPC   C1A55757   9.833  22.141   7.217 -0.1617  0.1819 -0.1533
 4603POPC   D2A55758   9.830  21.807   6.883 -0.1512  0.1789  0.2461
 4603POPC   C3A55759   9.913  21.878   6.475  0.1281  0.0164  0.1510
 4603POPC   C4A55760  10.023  22.098   6.059 -0.0984 -0.2845 -0.3676
 4603POPC   C1B55761   9.391  22.123   7.007  0.1925 -0.1811 -0.2440
 4603POPC   C2B55762   9.269  21.758   6.748 -0.0852 -0.1689  0.2542
 4603POPC   C3B55763   8.991  21.664   6.402 -0.1928 -0.0694 -0.1104
 4603POPC   C4B55764   8.559  21.557   6.272 -0.1434 -0.0695  0.4539
 4604POPC   NC355765   0.207  12.671   8.014  0.2750 -0.0495  0.3238
 4604POPC   PO455766  -0.067  12.427   7.873 -0.0062 -0.4228 -0.5018
 4604POPC   GL155767  -0.054  12.519   7.569  0.0790 -0.1100 -0.3421
 4604POPC   GL255768  -0.107  12.818   7.574 -0.1963  0.0601  0.0536
 4604POPC   C1A55769   0.158  12.613   7.198 -0.1724  0.0566 -0.1008
 4604POPC   D2A55770   0.507  12.583   6.858  0.0872  0.4520 -0.0655
 4604POPC   C3A55771   0.676  12.853   6.499  0.1882 -0.0830 -0.0890
 4604POPC   C4A55772   0.953  13.049   6.160 -0.1731  0.2069  0.1674
 4604POPC   C1B55773   0.006  13.150   7.215  0.0924  0.1189 -0.1409
 4604POPC   C2B55774   0.117  13.546   6.979 -0.0277 -0.1396 -0.2405
 4604POPC   C3B55775   0.255  13.647   6.594  0.1349 -0.3727 -0.2794
 4604POPC   C4B55776   0.272  13.872   6.204  0.0249 -0.0373 -0.2202
 4605POPC   NC355777  24.321  27.321   8.086 -0.0400 -0.0190  0.0628
 4605POPC   PO455778  24.003  27.138   8.030  0.1972 -0.1085  0.1517
 4605POPC   GL155779  24.014  27.330   7.621  0.1668  0.2852 -0.2295
 4605POPC   GL255780  24.278  27.355   7.491  0.1774 -0.3082 -0.0316
 4605POPC   C1A55781  24.003  27.766   7.435  0.0221  0.0000  0.0763
 4605POPC   D2A55782  23.929  27.838   6.969 -0.3307 -0.2384  0.0070
 4605POPC   C3A55783  24.023  27.562   6.631  0.3719  0.1549  0.0926
 4605POPC   C4A55784  24.336  27.505   6.320 -0.0923  0.0977  0.4267
 4605POPC   C1B55785  24.375  27.463   7.104  0.0295 -0.0979  0.0510
 4605POPC   C2B55786  24.569  27.342   6.708  0.1339  0.0265 -0.0939
 4605POPC   C3B55787  24.701  27.116   6.357  0.2678 -0.2044  0.1907
 4605POPC   C4B55788  24.657  27.104   5.943  0.3279  0.0247 -0.0312
 4606POPC   NC355789  24.658  25.842   7.432  0.0345  0.3345  0.0173
 4606POPC   PO455790  24.354  26.012   7.660 -0.0870  0.2611 -0.0658
 4606POPC   GL155791  24.216  26.049   7.250  0.1464 -0.0038  0.0779
 4606POPC   GL255792  24.388  26.022   7.019  0.0989  0.3009 -0.0509
 4606POPC   C1A55793  23.926  25.978   6.839  0.2724 -0.1689  0.2931
 4606POPC   D2A55794  23.860  25.822   6.413  0.0545 -0.3795  0.2750
 4606POPC   C3A55795  23.835  26.070   6.092  0.2851  0.3073 -0.1712
 4606POPC   C4A55796  24.107  25.881   5.761  0.1901 -0.2850 -0.0491
 4606POPC   C1B55797  24.679  25.667   6.873  0.1225 -0.1767  0.2472
 4606POPC   C2B55798  24.733  25.537   6.476 -0.1437  0.0087  0.1191
 4606POPC   C3B55799  24.430  25.612   6.125 -0.0091 -0.0009  0.4258
 4606POPC   C4B55800  24.012  25.513   6.106  0.2563 -0.1588  0.0984
 4607POPC   NC355801  28.400   8.006   8.057  0.1481  0.3356 -0.4497
 4607POPC   PO455802  28.525   7.692   7.856 -0.1452  0.0543  0.2893
 4607POPC   GL155803  28.449   7.909   7.606 -0.1096  0.2907  0.1330
 4607POPC   GL255804  28.429   7.877   7.299  0.2114 -0.0584 -0.0244
 4607POPC   C1A55805  28.146   8.251   7.486  0.1400 -0.0185 -0.1186
 4607POPC   D2A55806  27.946   8.510   7.203 -0.0515  0.1007  0.0377
 4607POPC   C3A55807  27.862   8.553   6.705  0.4201 -0.0229 -0.1499
 4607POPC   C4A55808  27.841   8.559   6.293  0.2218 -0.0984 -0.1459
 4607POPC   C1B55809  28.403   8.155   6.901 -0.0068  0.2203 -0.0019
 4607POPC   C2B55810  28.320   8.358   6.497  0.0363 -0.0885  0.2420
 4607POPC   C3B55811  28.559   8.365   6.101 -0.0091  0.1192 -0.0265
 4607POPC   C4B55812  28.528   8.687   5.768  0.1706  0.5451  0.4034
 4608POPC   NC355813  30.950   5.012   7.871  0.1424  0.2544  0.0386
 4608POPC   PO455814  30.671   5.182   7.692  0.0896 -0.0164  0.3619
 4608POPC   GL155815  30.750   4.791   7.485  0.1690 -0.0274 -0.3540
 4608POPC   GL255816  31.021   4.731   7.467 -0.1937  0.2174 -0.0409
 4608POPC   C1A55817  30.563   4.604   7.146 -0.2115 -0.1333 -0.0921
 4608POPC   D2A55818  30.484   4.460   6.708  0.3595 -0.1299  0.2044
 4608POPC   C3A55819  30.396   4.373   6.266 -0.0483  0.0444  0.0117
 4608POPC   C4A55820  30.556   4.119   5.895  0.0360  0.0334  0.0539
 4608POPC   C1B55821  31.063   4.949   7.072 -0.0684 -0.1597  0.0242
 4608POPC   C2B55822  31.052   5.043   6.598  0.1092 -0.1512 -0.1341
 4608POPC   C3B55823  30.822   5.142   6.139  0.1086 -0.0087  0.0760
 4608POPC   C4B55824  30.669   5.108   5.698 -0.1349  0.1281 -0.0089
 4609POPC   NC355825  20.751  11.234   8.036  0.1384 -0.4518  0.3106
 4609POPC   PO455826  20.490  11.511   8.181 -0.0713 -0.2106 -0.3020
 4609POPC   GL155827  20.313  11.217   7.988  0.1020 -0.0496 -0.0103
 4609POPC   GL255828  20.108  11.315   7.761  0.0530 -0.0521 -0.1810
 4609POPC   C1A55829  20.506  10.976   7.633  0.2024  0.0728 -0.1423
 4609POPC   D2A55830  20.419  10.765   7.217  0.3818 -0.0302 -0.2094
 4609POPC   C3A55831  20.146  10.819   6.956 -0.0028 -0.0867  0.0989
 4609POPC   C4A55832  19.782  10.569   6.805 -0.2312 -0.0900 -0.0402
 4609POPC   C1B55833  20.183  11.270   7.313  0.1828  0.0130 -0.3840
 4609POPC   C2B55834  20.023  11.332   6.887  0.1772  0.1891  0.1112
 4609POPC   C3B55835  19.970  11.375   6.445  0.1948  0.0235  0.1803
 4609POPC   C4B55836  20.057  11.296   6.016  0.1290 -0.1222 -0.1110
 4610POPC   NC355837  19.808   8.430   8.135 -0.2617  0.0944  0.0812
 4610POPC   PO455838  19.786   8.723   7.879 -0.2031  0.0690 -0.0080
 4610POPC   GL155839  19.581   8.855   7.528  0.0161 -0.0099 -0.1291
 4610POPC   GL255840  19.751   8.647   7.406 -0.1657 -0.0198 -0.2669
 4610POPC   C1A55841  19.524   9.018   7.124  0.2091 -0.2831  0.2641
 4610POPC   D2A55842  19.813   9.261   6.882  0.0481  0.2855  0.1112
 4610POPC   C3A55843  19.853   9.629   6.640  0.1111 -0.0754 -0.2888
 4610POPC   C4A55844  19.582   9.734   6.378  0.1517 -0.1431  0.3111
 4610POPC   C1B55845  19.767   8.546   6.958  0.0192  0.0706  0.0263
 4610POPC   C2B55846  19.911   8.227   6.599 -0.0772  0.0752 -0.3810
 4610POPC   C3B55847  19.834   7.969   6.194  0.2822  0.2413 -0.2761
 4610POPC   C4B55848  19.634   7.557   6.133  0.0120  0.0427 -0.1580
 4611POPC   NC355849  23.373   0.591   8.442  0.1898 -0.1669  0.1019
 4611POPC   PO455850  23.443   0.563   8.035 -0.1117  0.0731  0.3436
 4611POPC   GL155851  23.462   0.364   7.599 -0.2027  0.0122 -0.2403
 4611POPC   GL255852  23.713   0.344   7.438 -0.0429 -0.1947 -0.2695
 4611POPC   C1A55853  23.204   0.426   7.220  0.1926 -0.1384  0.2630
 4611POPC   D2A55854  23.268   0.515   6.804 -0.1089 -0.1354  0.0461
 4611POPC   C3A55855  23.364   0.289   6.426  0.1502  0.0457  0.1703
 4611POPC   C4A55856  23.378  -0.140   6.206  0.2642  0.1288  0.1409
 4611POPC   C1B55857  23.765   0.376   7.015  0.1497  0.1272  0.0226
 4611POPC   C2B55858  23.976   0.140   6.733 -0.0490  0.0715 -0.2811
 4611POPC   C3B55859  23.994   0.207   6.273 -0.1852 -0.1207 -0.0008
 4611POPC   C4B55860  23.646   0.320   5.986 -0.2789 -0.4029 -0.1650
 4612POPC   NC355861  14.403  21.699   7.896 -0.1751 -0.0222  0.2978
 4612POPC   PO455862  14.728  21.451   7.815  0.0350 -0.0237  0.0812
 4612POPC   GL155863  14.683  21.545   7.501 -0.1836 -0.0810  0.0235
 4612POPC   GL255864  14.661  21.830   7.443 -0.1133  0.1407 -0.0830
 4612POPC   C1A55865  14.688  21.435   7.069  0.2745  0.0423  0.3332
 4612POPC   D2A55866  14.930  21.132   6.684  0.3076  0.0420 -0.0197
 4612POPC   C3A55867  14.845  21.163   6.240  0.3769 -0.0025 -0.2483
 4612POPC   C4A55868  14.812  21.062   5.772  0.0017 -0.1463 -0.2560
 4612POPC   C1B55869  14.794  21.934   7.064 -0.0585  0.2895 -0.1636
 4612POPC   C2B55870  14.742  21.700   6.641  0.2049  0.2430 -0.0228
 4612POPC   C3B55871  14.604  21.544   6.250  0.0926  0.1985 -0.1721
 4612POPC   C4B55872  14.493  21.410   5.870  0.0936 -0.1882 -0.0701
 4613POPC   NC355873  22.158  16.914   7.996 -0.1820  0.1993 -0.1446
 4613POPC   PO455874  21.973  17.082   8.220  0.0291 -0.2263 -0.0671
 4613POPC   GL155875  22.319  17.342   8.003  0.3485 -0.0167 -0.3736
 4613POPC   GL255876  22.478  17.390   8.275 -0.4473 -0.0588  0.1046
 4613POPC   C1A55877  22.385  17.278   7.564 -0.1522  0.3036  0.0379
 4613POPC   D2A55878  22.483  17.467   7.161  0.1876  0.2072 -0.0470
 4613POPC   C3A55879  22.083  17.369   6.903  0.0278  0.1092 -0.0323
 4613POPC   C4A55880  21.841  17.457   6.579  0.1064 -0.2265  0.1619
 4613POPC   C1B55881  22.713  17.173   7.889  0.0538 -0.0241 -0.1119
 4613POPC   C2B55882  22.885  17.161   7.439  0.0503  0.1087  0.1961
 4613POPC   C3B55883  22.842  17.149   7.015  0.4306 -0.1034  0.0876
 4613POPC   C4B55884  23.065  17.129   6.612 -0.1192  0.0344  0.0573
 4614POPC   NC355885  23.654  14.683   7.472  0.0067  0.2077 -0.0481
 4614POPC   PO455886  23.373  14.837   7.651 -0.1036  0.4825 -0.1632
 4614POPC   GL155887  23.571  15.145   7.402  0.0826 -0.0457 -0.1236
 4614POPC   GL255888  23.492  15.440   7.514  0.0217 -0.1432 -0.0942
 4614POPC   C1A55889  23.395  15.369   7.063 -0.1076 -0.1625  0.5005
 4614POPC   D2A55890  23.537  15.533   6.644 -0.3673  0.1417 -0.2237
 4614POPC   C3A55891  23.680  15.846   6.294  0.2102 -0.4497 -0.0949
 4614POPC   C4A55892  24.005  15.884   5.928 -0.0392 -0.2474 -0.0546
 4614POPC   C1B55893  23.720  15.850   7.616  0.3088  0.0974 -0.0873
 4614POPC   C2B55894  24.088  16.031   7.411  0.5073  0.0847 -0.0960
 4614POPC   C3B55895  24.210  16.163   6.982  0.2975 -0.0489  0.0741
 4614POPC   C4B55896  24.423  16.420   6.651 -0.2063  0.1289 -0.0973
 4615POPC   NC355897  27.977  11.146   7.804  0.5125  0.0008  0.2795
 4615POPC   PO455898  27.657  10.891   7.793  0.1042  0.1848  0.2052
 4615POPC   GL155899  27.783  10.593   7.457  0.2161  0.1786  0.1705
 4615POPC   GL255900  27.908  10.805   7.331 -0.2619  0.0256 -0.1314
 4615POPC   C1A55901  27.726  10.269   7.140  0.0084  0.2235 -0.0930
 4615POPC   D2A55902  27.946  10.155   6.733  0.0913  0.1717 -0.0518
 4615POPC   C3A55903  27.815  10.308   6.379 -0.0611 -0.0510 -0.0031
 4615POPC   C4A55904  27.765  10.582   6.035  0.0501  0.1812  0.1634
 4615POPC   C1B55905  27.662  10.760   6.922 -0.0357 -0.1811 -0.2540
 4615POPC   C2B55906  27.503  10.696   6.491 -0.0067 -0.0006  0.0582
 4615POPC   C3B55907  27.165  10.692   6.177  0.2303  0.1480  0.2862
 4615POPC   C4B55908  26.938  10.942   5.827  0.6457  0.0668 -0.3053
 4616POPC   NC355909   2.880  29.822   8.100 -0.1114 -0.0181 -0.1551
 4616POPC   PO455910   2.594  30.029   7.853 -0.1268  0.2477  0.0386
 4616POPC   GL155911   2.653  29.875   7.466 -0.0245 -0.0734  0.0945
 4616POPC   GL255912   2.732  29.605   7.293 -0.0396 -0.1683  0.4442
 4616POPC   C1A55913   2.838  29.991   7.079  0.0922 -0.0730  0.1013
 4616POPC   D2A55914   3.114  30.178   6.740  0.3818  0.0529 -0.0473
 4616POPC   C3A55915   3.310  30.025   6.392 -0.0635  0.0867 -0.2228
 4616POPC   C4A55916   3.684  29.710   6.287 -0.0924 -0.3899  0.1140
 4616POPC   C1B55917   2.826  29.445   6.907  0.2014  0.0785 -0.0437
 4616POPC   C2B55918   3.160  29.651   6.623  0.0952  0.1012 -0.1808
 4616POPC   C3B55919   3.280  29.452   6.158 -0.1258  0.3012 -0.1056
 4616POPC   C4B55920   3.375  29.116   5.800 -0.2276  0.1507  0.1089
 4617POPC   NC355921   1.465  20.807   7.634  0.0417 -0.1193  0.2100
 4617POPC   PO455922   1.096  20.864   7.749  0.1500  0.1297 -0.0904
 4617POPC   GL155923   0.922  20.953   7.392  0.0065  0.0252 -0.0239
 4617POPC   GL255924   1.126  20.798   7.221 -0.3304 -0.1253  0.1901
 4617POPC   C1A55925   0.553  20.725   7.256 -0.0131 -0.2832  0.1615
 4617POPC   D2A55926   0.203  20.483   7.433  0.0342 -0.2149 -0.1016
 4617POPC   C3A55927  -0.067  20.456   7.795 -0.0197 -0.0382 -0.1134
 4617POPC   C4A55928  -0.415  20.679   7.907  0.1492  0.1784 -0.0988
 4617POPC   C1B55929   0.885  20.583   6.888 -0.1112  0.1334 -0.0430
 4617POPC   C2B55930   0.744  20.298   6.530 -0.0332  0.3099 -0.0406
 4617POPC   C3B55931   0.686  20.103   6.092 -0.0684  0.3027 -0.2935
 4617POPC   C4B55932   0.534  20.063   5.674 -0.0680  0.2813 -0.1108
 4618POPC   NC355933  25.518  13.189   8.310  0.0957 -0.1726  0.0128
 4618POPC   PO455934  25.669  12.887   8.154 -0.3335  0.1880 -0.0104
 4618POPC   GL155935  25.528  13.151   7.845 -0.2292  0.0637 -0.0947
 4618POPC   GL255936  25.215  13.329   7.747 -0.1465 -0.1293 -0.1612
 4618POPC   C1A55937  25.277  12.887   7.589 -0.1992  0.0342  0.1131
 4618POPC   D2A55938  25.240  12.842   7.168 -0.0036 -0.3085  0.1626
 4618POPC   C3A55939  25.140  12.850   6.738  0.2162  0.3554 -0.2181
 4618POPC   C4A55940  25.077  13.088   6.336  0.0836  0.1126 -0.0545
 4618POPC   C1B55941  24.890  13.218   7.411  0.1307  0.2335  0.3856
 4618POPC   C2B55942  24.886  13.236   6.952 -0.2422  0.3268 -0.0001
 4618POPC   C3B55943  24.584  13.194   6.574  0.1563 -0.0439  0.1687
 4618POPC   C4B55944  24.658  13.238   6.083  0.3027  0.0634 -0.1981
 4619POPC   NC355945   6.910  28.043   8.133 -0.0716  0.0889 -0.0760
 4619POPC   PO455946   7.035  28.144   7.788 -0.0879 -0.1700  0.0118
 4619POPC   GL155947   6.858  27.864   7.529  0.0968 -0.0934  0.0928
 4619POPC   GL255948   6.561  28.023   7.501 -0.1181  0.1030  0.1356
 4619POPC   C1A55949   6.764  27.767   7.073  0.1147 -0.0632 -0.1993
 4619POPC   D2A55950   6.390  27.697   6.812 -0.3920  0.2109  0.1491
 4619POPC   C3A55951   6.414  27.497   6.436 -0.0708  0.0618  0.0236
 4619POPC   C4A55952   6.647  27.445   6.091  0.0165  0.0676  0.2371
 4619POPC   C1B55953   6.251  27.821   7.270 -0.1460 -0.0705 -0.2086
 4619POPC   C2B55954   5.937  27.927   7.029 -0.1277  0.1799  0.0099
 4619POPC   C3B55955   5.711  27.806   6.666 -0.1328 -0.1369 -0.0112
 4619POPC   C4B55956   5.434  27.778   6.300  0.3017  0.0170 -0.4124
 4620POPC   NC355957  27.173  14.905   7.213  0.3104 -0.3267 -0.3242
 4620POPC   PO455958  27.413  14.977   7.541  0.0504 -0.3763 -0.0990
 4620POPC   GL155959  27.614  15.025   7.240 -0.0547  0.3470  0.1122
 4620POPC   GL255960  27.808  14.834   7.280  0.1821 -0.0915  0.2762
 4620POPC   C1A55961  27.373  15.110   6.830  0.0507 -0.0397 -0.0599
 4620POPC   D2A55962  27.135  14.911   6.443 -0.0648 -0.1516  0.1057
 4620POPC   C3A55963  27.064  15.082   6.012  0.1031  0.3233  0.0741
 4620POPC   C4A55964  27.029  15.124   5.569  0.1746  0.2707  0.3186
 4620POPC   C1B55965  27.866  14.842   6.788  0.0656 -0.2664 -0.0924
 4620POPC   C2B55966  27.661  14.921   6.386  0.1535 -0.0509  0.0503
 4620POPC   C3B55967  27.539  14.938   5.973  0.0035  0.0211  0.0685
 4620POPC   C4B55968  27.436  14.757   5.559 -0.1097  0.3354  0.2302
 4621POPC   NC355969   5.232   6.320   8.606 -0.2805 -0.1263 -0.0788
 4621POPC   PO455970   5.223   6.166   8.280  0.1425  0.1601 -0.0105
 4621POPC   GL155971   5.190   6.218   7.876  0.0810 -0.0074 -0.1247
 4621POPC   GL255972   5.188   5.917   7.812  0.0207  0.1067  0.1878
 4621POPC   C1A55973   4.997   6.577   7.596  0.0898  0.1865  0.0235
 4621POPC   D2A55974   4.851   7.012   7.706  0.0256 -0.1358 -0.0200
 4621POPC   C3A55975   4.766   7.321   7.374 -0.3935  0.1882  0.1026
 4621POPC   C4A55976   4.828   7.432   6.947  0.1405 -0.3132 -0.0190
 4621POPC   C1B55977   5.145   6.160   7.387  0.1977  0.3345  0.2725
 4621POPC   C2B55978   5.520   6.251   7.074  0.1082 -0.1172 -0.1930
 4621POPC   C3B55979   5.506   6.403   6.714  0.2013 -0.0480  0.0993
 4621POPC   C4B55980   5.512   6.626   6.303 -0.2399  0.1673  0.0482
 4622POPC   NC355981  15.303  20.533   7.688  0.0732 -0.0544  0.2033
 4622POPC   PO455982  15.558  20.835   7.843 -0.1588  0.1142  0.2460
 4622POPC   GL155983  15.509  20.940   7.401 -0.2916 -0.3484  0.2253
 4622POPC   GL255984  15.659  21.154   7.395 -0.4020 -0.0021 -0.2631
 4622POPC   C1A55985  15.525  20.789   6.950 -0.0489 -0.1076 -0.1596
 4622POPC   D2A55986  15.560  20.470   6.667 -0.0062 -0.0023  0.0609
 4622POPC   C3A55987  15.733  20.614   6.267  0.2484 -0.2191  0.1075
 4622POPC   C4A55988  15.688  20.633   5.847 -0.0938  0.3061 -0.1749
 4622POPC   C1B55989  15.830  21.187   6.952 -0.0547 -0.3217 -0.0180
 4622POPC   C2B55990  15.877  21.164   6.495  0.0224  0.0410 -0.0415
 4622POPC   C3B55991  16.024  21.400   6.225  0.2429  0.0674  0.0536
 4622POPC   C4B55992  16.101  21.697   5.861 -0.0270 -0.0168  0.1449
 4623POPC   NC355993  17.880   6.866   7.870 -0.3825  0.1160 -0.0256
 4623POPC   PO455994  17.574   6.699   7.682 -0.0758 -0.0238 -0.3912
 4623POPC   GL155995  17.521   6.599   7.264 -0.0701 -0.2291 -0.1037
 4623POPC   GL255996  17.372   6.244   7.262 -0.2105  0.2236 -0.0350
 4623POPC   C1A55997  17.112   6.517   7.014 -0.1202 -0.1190  0.1522
 4623POPC   D2A55998  16.953   6.564   6.607 -0.1164  0.0454 -0.0834
 4623POPC   C3A55999  17.146   6.821   6.270 -0.3870  0.1350  0.0571
 4623POPC   C4A56000  17.408   6.920   5.881  0.0498 -0.1409  0.3149
 4623POPC   C1B56001  17.579   6.323   6.834 -0.1547  0.0357 -0.0638
 4623POPC   C2B56002  17.633   6.450   6.383  0.3502  0.4411 -0.1271
 4623POPC   C3B56003  17.596   6.297   5.944 -0.0712  0.1513 -0.0153
 4623POPC   C4B56004  17.449   6.348   5.493  0.0898 -0.1496  0.4495
 4624POPC   NC356005   6.681  12.930   7.261  0.0393 -0.1625  0.1314
 4624POPC   PO456006   6.380  12.695   7.371 -0.1593 -0.0301 -0.0232
 4624POPC   GL156007   6.327  12.746   6.998 -0.4263  0.2399 -0.2366
 4624POPC   GL256008   6.038  12.697   6.860  0.0740 -0.1031 -0.0966
 4624POPC   C1A56009   6.648  12.840   6.648  0.3623  0.1829 -0.2747
 4624POPC   D2A56010   6.872  12.652   6.277  0.4042 -0.2104  0.0057
 4624POPC   C3A56011   6.972  12.833   5.821  0.3907  0.2486 -0.0217
 4624POPC   C4A56012   7.064  13.201   5.528  0.1524 -0.0885  0.1185
 4624POPC   C1B56013   6.134  12.879   6.437 -0.2755  0.3681 -0.0863
 4624POPC   C2B56014   6.452  12.893   6.120 -0.2180 -0.1563  0.2659
 4624POPC   C3B56015   6.711  13.292   6.118  0.3528 -0.0244 -0.0848
 4624POPC   C4B56016   7.027  13.534   5.865  0.0669  0.2551  0.2147
 4625POPC   NC356017   2.054  14.868   7.699  0.3112 -0.1218 -0.1945
 4625POPC   PO456018   2.150  15.210   7.864  0.1283  0.1448  0.2841
 4625POPC   GL156019   2.148  15.309   7.433  0.0528 -0.0111 -0.1801
 4625POPC   GL256020   2.350  15.473   7.413 -0.1351 -0.0670  0.1077
 4625POPC   C1A56021   2.357  14.980   7.108 -0.0594  0.1063  0.1372
 4625POPC   D2A56022   2.508  14.607   6.915  0.0726  0.0159 -0.0770
 4625POPC   C3A56023   2.451  14.530   6.460 -0.2852 -0.0214  0.2086
 4625POPC   C4A56024   2.255  14.821   6.130  0.1829 -0.2432 -0.1612
 4625POPC   C1B56025   2.241  15.479   6.943  0.0288  0.1415 -0.1028
 4625POPC   C2B56026   2.319  15.685   6.541 -0.0512 -0.1450 -0.3805
 4625POPC   C3B56027   2.221  15.842   6.128  0.0610 -0.1685  0.1396
 4625POPC   C4B56028   2.374  15.658   5.733  0.1795  0.1845  0.3349
 4626POPC   NC356029   1.490   1.212   8.222  0.1719  0.1329  0.3197
 4626POPC   PO456030   1.249   1.510   8.249 -0.3120  0.0429 -0.1753
 4626POPC   GL156031   1.355   1.755   7.896 -0.0161 -0.1768 -0.1168
 4626POPC   GL256032   1.175   1.924   7.677 -0.0435 -0.4586 -0.0472
 4626POPC   C1A56033   1.650   1.926   7.593 -0.0373  0.0131 -0.1578
 4626POPC   D2A56034   2.071   2.140   7.503 -0.0795  0.3919 -0.0173
 4626POPC   C3A56035   2.166   2.223   7.062 -0.3159 -0.1172 -0.0580
 4626POPC   C4A56036   2.137   2.458   6.675  0.1404  0.3003  0.0036
 4626POPC   C1B56037   1.053   2.101   7.295  0.1211 -0.3686  0.0718
 4626POPC   C2B56038   1.173   2.228   6.892  0.0020  0.1200 -0.1554
 4626POPC   C3B56039   1.281   2.165   6.468 -0.1247 -0.1953 -0.2193
 4626POPC   C4B56040   1.552   2.353   6.149  0.2251 -0.3317 -0.0632
 4627POPC   NC356041  16.884  30.505   8.024  0.3769 -0.1213 -0.2348
 4627POPC   PO456042  16.917  30.446   7.644  0.1789  0.1417 -0.0096
 4627POPC   GL156043  16.779  30.363   7.289 -0.0412 -0.0648 -0.1698
 4627POPC   GL256044  16.606  30.189   7.343  0.1892 -0.2779 -0.0233
 4627POPC   C1A56045  17.032  30.237   6.943  0.1910  0.2732 -0.1719
 4627POPC   D2A56046  16.892  30.379   6.530  0.0444 -0.0810 -0.1760
 4627POPC   C3A56047  17.011  30.280   6.094  0.0484  0.3376  0.1406
 4627POPC   C4A56048  16.699  30.164   5.734 -0.2234 -0.0229 -0.0271
 4627POPC   C1B56049  16.612  29.995   6.908 -0.0163  0.0355 -0.0895
 4627POPC   C2B56050  16.808  29.898   6.429 -0.1722 -0.2340 -0.2711
 4627POPC   C3B56051  16.849  29.784   5.965 -0.0576  0.1239 -0.2667
 4627POPC   C4B56052  16.521  29.689   5.675 -0.2316  0.3193 -0.1186
 4628POPC   NC356053  17.786   3.955   7.228  0.2423  0.1204  0.0917
 4628POPC   PO456054  17.443   4.133   7.354 -0.0838 -0.1247  0.1556
 4628POPC   GL156055  17.518   4.397   7.098  0.2300 -0.0473 -0.2226
 4628POPC   GL256056  17.306   4.369   6.893 -0.0327  0.4360  0.2024
 4628POPC   C1A56057  17.818   4.277   6.810 -0.1066  0.1571  0.0358
 4628POPC   D2A56058  18.174   4.115   6.784 -0.2315 -0.4743  0.2855
 4628POPC   C3A56059  18.275   4.125   6.349  0.1995 -0.2638 -0.1563
 4628POPC   C4A56060  18.281   4.430   5.987 -0.4324  0.0489 -0.0161
 4628POPC   C1B56061  17.462   4.187   6.462  0.0940  0.0740 -0.0612
 4628POPC   C2B56062  17.273   4.253   6.027 -0.0067  0.0098  0.0989
 4628POPC   C3B56063  17.249   4.180   5.622 -0.0085  0.1018 -0.0202
 4628POPC   C4B56064  17.171   4.223   5.137 -0.0090  0.0439  0.1052
 4629POPC   NC356065  11.180  26.921   7.820 -0.1067  0.0342  0.1991
 4629POPC   PO456066  11.084  26.556   7.865  0.2551  0.2792 -0.2103
 4629POPC   GL156067  10.824  26.443   7.553  0.0671 -0.2289  0.1794
 4629POPC   GL256068  10.699  26.195   7.591  0.0756  0.1053  0.0699
 4629POPC   C1A56069  10.987  26.553   7.136  0.2013 -0.0208  0.3421
 4629POPC   D2A56070  10.990  26.527   6.657  0.3116 -0.1275 -0.0199
 4629POPC   C3A56071  11.164  26.698   6.250  0.0622 -0.0367  0.3073
 4629POPC   C4A56072  11.225  26.838   5.817  0.0143 -0.0771  0.0646
 4629POPC   C1B56073  10.568  26.017   7.166  0.1522  0.2405 -0.0278
 4629POPC   C2B56074  10.559  26.077   6.710 -0.2211  0.1908  0.1428
 4629POPC   C3B56075  10.697  26.280   6.284  0.2659  0.0549 -0.2583
 4629POPC   C4B56076  10.989  26.357   5.966 -0.3844  0.0533  0.1225
 4630POPC   NC356077   9.736  14.583   8.282  0.0012  0.2407  0.0226
 4630POPC   PO456078   9.352  14.599   8.098 -0.0041 -0.1260  0.0479
 4630POPC   GL156079   9.171  14.415   7.726  0.2331 -0.2416  0.1611
 4630POPC   GL256080   9.296  14.549   7.527  0.1476 -0.1549 -0.5744
 4630POPC   C1A56081   8.960  14.022   7.581 -0.1254  0.0724 -0.4366
 4630POPC   D2A56082   8.815  13.624   7.686  0.0153  0.2778 -0.4143
 4630POPC   C3A56083   8.896  13.231   7.444  0.2802 -0.0333 -0.3306
 4630POPC   C4A56084   9.138  12.862   7.374  0.0698 -0.0107 -0.1170
 4630POPC   C1B56085   9.376  14.556   7.055 -0.2635  0.1373  0.0452
 4630POPC   C2B56086   9.360  14.317   6.694  0.0943  0.0113  0.1907
 4630POPC   C3B56087   9.324  14.129   6.264  0.0409 -0.0519 -0.0407
 4630POPC   C4B56088   9.190  14.401   5.860  0.0291  0.2302 -0.0373
 4631POPC   NC356089  19.366  11.245   7.934  0.4070 -0.0911  0.1894
 4631POPC   PO456090  19.588  11.541   7.945 -0.1232  0.0480 -0.2609
 4631POPC   GL156091  19.599  11.434   7.548  0.1190  0.0673 -0.1476
 4631POPC   GL256092  19.741  11.164   7.479  0.2925 -0.0891 -0.3015
 4631POPC   C1A56093  19.254  11.210   7.329 -0.0996 -0.2209 -0.2428
 4631POPC   D2A56094  19.200  11.165   6.889 -0.3917  0.3507 -0.0748
 4631POPC   C3A56095  19.123  11.218   6.473 -0.3622  0.2032  0.2382
 4631POPC   C4A56096  19.045  11.186   6.034 -0.1661  0.4763  0.2517
 4631POPC   C1B56097  19.624  11.007   7.089 -0.3328  0.1757 -0.0328
 4631POPC   C2B56098  19.658  11.112   6.669  0.3636  0.0755 -0.1030
 4631POPC   C3B56099  19.934  10.899   6.368 -0.4585 -0.2167  0.1068
 4631POPC   C4B56100  19.860  10.492   6.154 -0.1233 -0.0940  0.3953
 4632POPC   NC356101   2.581  25.316   7.994 -0.0817  0.0657 -0.1046
 4632POPC   PO456102   2.302  25.414   7.701 -0.2674 -0.0427 -0.0529
 4632POPC   GL156103   2.146  25.690   7.426  0.0192  0.1696  0.1469
 4632POPC   GL256104   1.942  25.504   7.314 -0.2072  0.3335 -0.1581
 4632POPC   C1A56105   2.153  25.828   7.003 -0.1967  0.4662 -0.0549
 4632POPC   D2A56106   1.909  25.696   6.649  0.1437 -0.0455  0.0657
 4632POPC   C3A56107   1.817  25.709   6.184 -0.5322  0.2013 -0.1376
 4632POPC   C4A56108   2.112  25.550   5.831  0.3482  0.2075  0.5367
 4632POPC   C1B56109   1.595  25.680   7.068  0.2132  0.0497 -0.1275
 4632POPC   C2B56110   1.412  25.633   6.621  0.1290 -0.0478 -0.0339
 4632POPC   C3B56111   1.229  25.495   6.206  0.1496 -0.0466  0.0475
 4632POPC   C4B56112   0.970  25.327   5.845 -0.4227 -0.0606 -0.0562
 4633POPC   NC356113   2.311  19.420   7.853 -0.1223 -0.1045 -0.3932
 4633POPC   PO456114   2.123  19.391   7.486 -0.0108 -0.4677  0.0772
 4633POPC   GL156115   2.009  19.137   7.211  0.2939  0.2678 -0.0742
 4633POPC   GL256116   1.744  18.996   7.262  0.1115 -0.1029  0.2075
 4633POPC   C1A56117   2.013  19.190   6.753  0.1769 -0.0574  0.1340
 4633POPC   D2A56118   2.121  18.867   6.417 -0.1629 -0.0186 -0.0133
 4633POPC   C3A56119   1.966  19.022   6.043  0.1602  0.0132  0.1732
 4633POPC   C4A56120   1.829  19.368   5.705 -0.2315  0.0301 -0.1764
 4633POPC   C1B56121   1.349  19.080   6.988 -0.4532 -0.1357  0.1024
 4633POPC   C2B56122   1.138  19.213   6.589  0.1562 -0.1172 -0.3874
 4633POPC   C3B56123   1.118  19.264   6.126 -0.1865  0.1672  0.0877
 4633POPC   C4B56124   1.287  19.381   5.697  0.0658 -0.2679 -0.3230
 4634POPC   NC356125  31.387   7.607   7.971 -0.1869  0.3448  0.0004
 4634POPC   PO456126  31.194   7.948   7.934  0.1689  0.1060 -0.0269
 4634POPC   GL156127  31.284   7.940   7.552 -0.2698  0.0291 -0.2907
 4634POPC   GL256128  31.225   8.127   7.377  0.0510 -0.2077  0.0091
 4634POPC   C1A56129  31.444   7.713   7.156  0.0270  0.0562  0.0797
 4634POPC   D2A56130  31.267   7.377   6.879 -0.0938 -0.1407  0.0885
 4634POPC   C3A56131  31.541   7.229   6.585  0.0119 -0.0296 -0.2773
 4634POPC   C4A56132  31.702   7.423   6.190  0.0286  0.1717 -0.0346
 4634POPC   C1B56133  31.146   8.152   6.894 -0.2118  0.2547 -0.2393
 4634POPC   C2B56134  31.096   8.220   6.410  0.1401  0.1109 -0.1730
 4634POPC   C3B56135  30.915   8.457   6.094 -0.1538  0.4103  0.1766
 4634POPC   C4B56136  30.487   8.464   5.941  0.2351 -0.0354  0.2896
 4635POPC   NC356137   6.673  10.689   7.397  0.0654  0.1296 -0.1806
 4635POPC   PO456138   6.815  11.006   7.565  0.0107 -0.1301  0.2103
 4635POPC   GL156139   6.754  11.128   7.253 -0.3090  0.2825  0.2410
 4635POPC   GL256140   6.999  11.426   7.299 -0.1795  0.2015 -0.0779
 4635POPC   C1A56141   6.874  10.936   6.866 -0.0226 -0.2628  0.2249
 4635POPC   D2A56142   6.994  10.598   6.552  0.3697  0.1565  0.1813
 4635POPC   C3A56143   6.762  10.183   6.505  0.1046 -0.6294 -0.1632
 4635POPC   C4A56144   6.802   9.745   6.637  0.1177 -0.0591  0.0416
 4635POPC   C1B56145   7.083  11.378   6.845  0.3262  0.2899 -0.0505
 4635POPC   C2B56146   7.060  11.145   6.453  0.1068  0.1931 -0.0954
 4635POPC   C3B56147   7.074  10.969   6.045 -0.2313 -0.3985 -0.0043
 4635POPC   C4B56148   6.913  10.981   5.651 -0.2310 -0.1650 -0.0008
 4636POPC   NC356149  11.214   4.914   7.924 -0.4194  0.0745 -0.0372
 4636POPC   PO456150  11.057   4.833   7.549  0.1167  0.0882  0.2270
 4636POPC   GL156151  11.055   4.663   7.165  0.1816 -0.2295 -0.1363
 4636POPC   GL256152  10.754   4.718   7.198  0.1541  0.0619 -0.2139
 4636POPC   C1A56153  10.853   4.538   6.743  0.0923 -0.3903  0.0740
 4636POPC   D2A56154  10.862   4.257   6.403  0.0753 -0.0048 -0.0010
 4636POPC   C3A56155  11.171   3.930   6.227 -0.1234 -0.0072  0.0157
 4636POPC   C4A56156  11.049   3.513   5.991  0.0351 -0.1177  0.0097
 4636POPC   C1B56157  10.535   4.877   6.843  0.0585  0.0892 -0.0754
 4636POPC   C2B56158  10.474   4.997   6.440  0.0320 -0.2337 -0.2309
 4636POPC   C3B56159  10.727   5.320   6.223 -0.2448 -0.0193 -0.0286
 4636POPC   C4B56160  10.723   5.365   5.769  0.3449 -0.1117  0.2951
 4637POPC   NC356161  23.273   8.750   7.588 -0.3103 -0.0064 -0.0238
 4637POPC   PO456162  22.999   8.964   7.754  0.0401 -0.0912  0.2379
 4637POPC   GL156163  22.980   9.029   7.370 -0.3474  0.1592 -0.1511
 4637POPC   GL256164  22.873   8.808   7.260 -0.1283  0.1723  0.0423
 4637POPC   C1A56165  22.875   9.341   7.065  0.0886 -0.0009  0.0442
 4637POPC   D2A56166  23.074   9.717   6.934 -0.1131 -0.1924  0.2207
 4637POPC   C3A56167  22.886   9.918   6.558  0.2472 -0.0353 -0.0338
 4637POPC   C4A56168  22.500   9.935   6.310 -0.0130 -0.0607 -0.0536
 4637POPC   C1B56169  22.868   8.504   6.874  0.1854  0.0925  0.0170
 4637POPC   C2B56170  22.678   8.148   6.587 -0.0352  0.1528  0.1577
 4637POPC   C3B56171  22.419   8.051   6.235 -0.2138  0.3215 -0.2946
 4637POPC   C4B56172  21.993   8.051   6.087  0.0157 -0.2274  0.1096
 4638POPC   NC356173  13.746   0.392   7.461 -0.0934 -0.1632  0.0498
 4638POPC   PO456174  13.397   0.491   7.428 -0.0852  0.1262  0.0132
 4638POPC   GL156175  13.380   0.402   7.129 -0.4365  0.1365  0.1719
 4638POPC   GL256176  13.692   0.439   6.995 -0.0127  0.1651  0.0698
 4638POPC   C1A56177  13.159   0.380   6.713  0.0743  0.0165 -0.2661
 4638POPC   D2A56178  13.273   0.531   6.292 -0.2996 -0.0808  0.2261
 4638POPC   C3A56179  13.397   0.954   6.214  0.0112  0.3452  0.2030
 4638POPC   C4A56180  13.479   1.140   5.782  0.1239 -0.1811 -0.0074
 4638POPC   C1B56181  13.562   0.132   6.622 -0.2907 -0.2684 -0.0322
 4638POPC   C2B56182  13.210  -0.025   6.392 -0.1175 -0.2976  0.1616
 4638POPC   C3B56183  13.275  -0.223   6.013 -0.0901 -0.0668  0.2242
 4638POPC   C4B56184  13.181  -0.370   5.615  0.0550 -0.0684 -0.0018
 4639POPC   NC356185  13.586  10.734   7.002 -0.3215 -0.1511 -0.0455
 4639POPC   PO456186  13.572  10.373   7.162  0.1972 -0.2018 -0.1567
 4639POPC   GL156187  13.436  10.342   6.762 -0.0468 -0.1175  0.0092
 4639POPC   GL256188  13.168  10.432   6.845 -0.1322  0.2815  0.1977
 4639POPC   C1A56189  13.491  10.542   6.363  0.0702 -0.3799  0.1339
 4639POPC   D2A56190  13.445  10.479   5.856 -0.1778  0.1031 -0.0124
 4639POPC   C3A56191  13.531  10.115   5.653  0.0470  0.0482 -0.0305
 4639POPC   C4A56192  13.770   9.791   5.447  0.1133  0.0398  0.0091
 4639POPC   C1B56193  12.807  10.500   6.601  0.1802 -0.2216  0.2325
 4639POPC   C2B56194  12.921  10.664   6.136  0.0946  0.0341  0.1832
 4639POPC   C3B56195  12.965  10.520   5.689  0.0997  0.0376  0.0928
 4639POPC   C4B56196  12.974  10.061   5.590 -0.3441  0.1841  0.1452
 4640POPC   NC356197  29.503  19.834   7.877 -0.0979 -0.4096  0.0442
 4640POPC   PO456198  29.827  19.674   8.011  0.3929 -0.1358 -0.5846
 4640POPC   GL156199  30.020  19.670   7.660  0.0877  0.0638  0.1455
 4640POPC   GL256200  29.787  19.785   7.498  0.2703 -0.0141  0.0793
 4640POPC   C1A56201  30.097  19.610   7.173 -0.4293  0.0042 -0.0143
 4640POPC   D2A56202  30.237  19.437   6.708 -0.0254  0.0377  0.0239
 4640POPC   C3A56203  30.501  19.666   6.465 -0.2759  0.0240  0.0665
 4640POPC   C4A56204  30.527  19.966   6.156  0.4515 -0.2123  0.0506
 4640POPC   C1B56205  29.673  19.837   7.046 -0.0899 -0.0027 -0.0554
 4640POPC   C2B56206  29.596  19.793   6.623 -0.2858 -0.3487 -0.1902
 4640POPC   C3B56207  29.539  19.795   6.189 -0.0326  0.2372 -0.0072
 4640POPC   C4B56208  29.674  19.548   5.829 -0.1148  0.0299  0.3391
 4641POPC   NC356209   3.940  18.183   7.699  0.1400 -0.1019 -0.3348
 4641POPC   PO456210   3.852  18.595   7.679  0.1325 -0.0447 -0.0330
 4641POPC   GL156211   3.875  18.537   7.292 -0.1568  0.0637 -0.2766
 4641POPC   GL256212   4.127  18.349   7.292 -0.0976  0.1340 -0.1890
 4641POPC   C1A56213   4.231  18.721   6.972  0.2213 -0.1368 -0.0979
 4641POPC   D2A56214   4.126  18.930   6.572  0.0356 -0.0095  0.3492
 4641POPC   C3A56215   4.442  18.914   6.250 -0.1500 -0.0900  0.0743
 4641POPC   C4A56216   4.869  18.949   6.062  0.0470 -0.2519  0.1572
 4641POPC   C1B56217   3.940  18.349   6.858 -0.0956  0.3506  0.0321
 4641POPC   C2B56218   3.577  18.239   6.601 -0.2397 -0.2114  0.0040
 4641POPC   C3B56219   3.127  18.223   6.765  0.2507  0.0308  0.0527
 4641POPC   C4B56220   2.706  18.036   6.881  0.2184  0.1522 -0.0790
 4642POPC   NC356221   5.555  15.354   7.980  0.3390  0.0003 -0.0167
 4642POPC   PO456222   5.438  14.989   8.063 -0.2251  0.2326  0.0124
 4642POPC   GL156223   5.178  14.812   7.784 -0.2143  0.4872  0.0168
 4642POPC   GL256224   5.144  14.960   7.584  0.0645 -0.2923  0.0996
 4642POPC   C1A56225   5.275  14.452   7.451  0.0580  0.0385  0.0171
 4642POPC   D2A56226   5.373  14.419   6.994 -0.0397  0.1692 -0.0356
 4642POPC   C3A56227   5.375  14.794   6.662 -0.0431 -0.1326  0.1300
 4642POPC   C4A56228   5.197  14.897   6.283  0.1143 -0.2205 -0.1338
 4642POPC   C1B56229   5.102  14.813   7.104 -0.2000  0.1501  0.2058
 4642POPC   C2B56230   4.918  15.064   6.720  0.3430 -0.3438 -0.2875
 4642POPC   C3B56231   5.136  15.386   6.482  0.1281 -0.1356  0.3531
 4642POPC   C4B56232   5.302  15.753   6.222 -0.1349  0.0062  0.0406
 4643POPC   NC356233  26.168  25.048   7.574  0.0454  0.0119  0.1775
 4643POPC   PO456234  26.489  25.166   7.638 -0.0856  0.0235 -0.1679
 4643POPC   GL156235  26.559  24.855   7.397  0.2975 -0.1891 -0.1243
 4643POPC   GL256236  26.596  25.068   7.157  0.0457 -0.0481  0.3152
 4643POPC   C1A56237  26.559  24.612   7.003 -0.0127 -0.0428  0.1574
 4643POPC   D2A56238  26.354  24.188   6.840  0.0699  0.1245 -0.0722
 4643POPC   C3A56239  26.413  24.011   6.419  0.0303  0.2793 -0.2795
 4643POPC   C4A56240  26.767  23.925   6.079  0.1008  0.0688 -0.1310
 4643POPC   C1B56241  26.566  25.350   6.799 -0.0312  0.0199  0.0990
 4643POPC   C2B56242  26.664  25.658   6.506  0.0228  0.2612  0.0082
 4643POPC   C3B56243  26.863  25.666   6.067 -0.1519  0.1659 -0.0445
 4643POPC   C4B56244  27.229  25.836   5.771  0.0861 -0.0151 -0.1424
 4644POPC   NC356245   9.548  15.754   7.433  0.2265  0.0853  0.0314
 4644POPC   PO456246   9.394  16.092   7.358 -0.1044 -0.0353  0.0124
 4644POPC   GL156247   9.069  15.901   7.046 -0.0910  0.0435  0.1629
 4644POPC   GL256248   9.282  15.895   6.804  0.3587 -0.1098  0.1281
 4644POPC   C1A56249   8.957  15.523   6.783 -0.1722  0.1999  0.2015
 4644POPC   D2A56250   8.944  15.427   6.350 -0.3574  0.1738 -0.3611
 4644POPC   C3A56251   9.326  15.309   6.052 -0.1283 -0.0238 -0.1023
 4644POPC   C4A56252   9.761  15.241   5.960 -0.1495  0.2158  0.0527
 4644POPC   C1B56253   8.903  16.009   6.528 -0.0358  0.1122  0.1838
 4644POPC   C2B56254   8.772  15.997   6.105  0.1234 -0.0177 -0.0752
 4644POPC   C3B56255   8.425  15.997   5.787  0.2536  0.0237 -0.1708
 4644POPC   C4B56256   8.007  15.780   5.860 -0.2926 -0.2878  0.2945
 4645POPC   NC356257   5.162  19.982   7.450 -0.4444 -0.1900 -0.2586
 4645POPC   PO456258   5.186  19.601   7.432 -0.1314 -0.2304  0.0113
 4645POPC   GL156259   5.149  19.611   7.069 -0.0682 -0.0233 -0.2023
 4645POPC   GL256260   5.048  19.930   6.923  0.3537 -0.2673  0.1819
 4645POPC   C1A56261   5.442  19.637   6.679  0.1878 -0.3230 -0.0663
 4645POPC   D2A56262   5.756  19.826   6.436 -0.1132 -0.1942 -0.2187
 4645POPC   C3A56263   5.861  19.780   6.040 -0.1124 -0.1422 -0.4127
 4645POPC   C4A56264   6.212  19.905   5.776  0.2236  0.0836  0.0462
 4645POPC   C1B56265   4.975  19.770   6.498  0.0183  0.3165  0.0872
 4645POPC   C2B56266   5.284  19.687   6.134 -0.1342 -0.2259 -0.1029
 4645POPC   C3B56267   5.510  19.558   5.764  0.4180 -0.1013  0.0447
 4645POPC   C4B56268   5.815  19.277   5.490 -0.1469 -0.0067 -0.1015
 4646POPC   NC356269  16.863  18.848   7.864 -0.0080  0.2228 -0.2472
 4646POPC   PO456270  17.228  18.797   8.001 -0.1652  0.2398 -0.0057
 4646POPC   GL156271  17.306  18.592   7.631 -0.0288 -0.0965  0.0049
 4646POPC   GL256272  17.263  18.311   7.761  0.1038  0.2192  0.2356
 4646POPC   C1A56273  17.249  18.392   7.203 -0.0263  0.3521 -0.1317
 4646POPC   D2A56274  17.529  18.315   6.859 -0.2849 -0.1242 -0.0123
 4646POPC   C3A56275  17.434  18.353   6.451  0.1731 -0.0852  0.0078
 4646POPC   C4A56276  17.506  18.513   5.959  0.0939 -0.0370  0.1467
 4646POPC   C1B56277  17.029  17.955   7.528  0.1028  0.1565  0.3155
 4646POPC   C2B56278  16.591  17.864   7.599 -0.0732 -0.3302  0.0580
 4646POPC   C3B56279  16.225  17.544   7.489  0.1747 -0.1764  0.2925
 4646POPC   C4B56280  16.078  17.137   7.602 -0.0652  0.2547  0.0843
 4647POPC   NC356281  29.214  17.285   7.408 -0.2206 -0.2185  0.0670
 4647POPC   PO456282  29.192  17.656   7.237 -0.0350 -0.1248  0.0331
 4647POPC   GL156283  29.186  17.626   6.927 -0.0028 -0.0694 -0.1017
 4647POPC   GL256284  28.971  17.769   6.759 -0.1785  0.3481  0.0541
 4647POPC   C1A56285  29.374  17.672   6.507 -0.2252  0.1405  0.0922
 4647POPC   D2A56286  29.430  17.714   6.050  0.0950  0.3921 -0.1591
 4647POPC   C3A56287  29.433  17.459   5.685 -0.0422 -0.0586 -0.9094
 4647POPC   C4A56288  29.405  17.028   5.611 -0.0306  0.1775 -0.2538
 4647POPC   C1B56289  28.951  17.771   6.275 -0.0972  0.2409  0.1382
 4647POPC   C2B56290  28.978  17.585   5.853  0.4804  0.1511  0.2845
 4647POPC   C3B56291  28.957  17.418   5.451  0.4204  0.5061 -0.0794
 4647POPC   C4B56292  29.066  17.102   5.161 -0.0598  0.0716  0.6177
 4648POPC   NC356293  14.207   2.451   7.742  0.2043  0.1925  0.0290
 4648POPC   PO456294  14.457   2.154   7.615  0.1425  0.0921  0.0005
 4648POPC   GL156295  14.265   2.134   7.252  0.2243 -0.0608  0.0890
 4648POPC   GL256296  14.026   2.300   7.262 -0.2615  0.2256 -0.1983
 4648POPC   C1A56297  14.133   2.057   6.839  0.3022  0.1985  0.1714
 4648POPC   D2A56298  14.162   1.939   6.399  0.1023  0.0057  0.1713
 4648POPC   C3A56299  14.619   1.772   6.254  0.1588 -0.3612 -0.0644
 4648POPC   C4A56300  14.819   1.984   5.905 -0.0787  0.0185  0.1548
 4648POPC   C1B56301  13.913   2.578   6.928 -0.1563  0.1735 -0.2301
 4648POPC   C2B56302  14.175   2.819   6.613 -0.3123 -0.0096 -0.3524
 4648POPC   C3B56303  14.451   3.116   6.406 -0.0848  0.1563  0.0707
 4648POPC   C4B56304  14.747   3.182   6.022  0.0655  0.1923  0.1705
 4649POPC   NC356305   2.640   1.611   8.260 -0.1094 -0.3673  0.1809
 4649POPC   PO456306   2.561   1.537   7.856 -0.0470 -0.3321  0.1861
 4649POPC   GL156307   2.515   1.787   7.578  0.2466  0.3736  0.4626
 4649POPC   GL256308   2.711   1.743   7.417 -0.0899  0.3956 -0.1073
 4649POPC   C1A56309   2.302   1.689   7.160 -0.2618  0.1905 -0.0748
 4649POPC   D2A56310   2.200   1.851   6.752 -0.1867 -0.1265  0.4927
 4649POPC   C3A56311   2.265   1.695   6.290  0.2898  0.2126  0.2972
 4649POPC   C4A56312   2.512   1.819   5.896 -0.0054  0.2978 -0.2501
 4649POPC   C1B56313   2.676   1.984   7.052 -0.0329  0.0478  0.1633
 4649POPC   C2B56314   2.687   2.235   6.685  0.2776  0.1061 -0.0491
 4649POPC   C3B56315   2.558   2.620   6.413 -0.1582  0.1936  0.1311
 4649POPC   C4B56316   2.329   2.915   6.118 -0.0380 -0.1962  0.1207
 4650POPC   NC356317  28.251  17.579   7.424 -0.1382 -0.0966 -0.0940
 4650POPC   PO456318  28.474  17.923   7.569 -0.2304  0.2188  0.3192
 4650POPC   GL156319  28.362  17.868   7.138 -0.0333  0.0693  0.1679
 4650POPC   GL256320  28.472  17.709   6.870  0.0961  0.0684 -0.1996
 4650POPC   C1A56321  28.022  18.034   6.837 -0.1056  0.1754  0.4668
 4650POPC   D2A56322  28.074  18.034   6.358  0.1020  0.2228 -0.0900
 4650POPC   C3A56323  28.223  18.311   5.982 -0.1162  0.1203 -0.0912
 4650POPC   C4A56324  28.411  18.244   5.529 -0.1285  0.4070  0.0171
 4650POPC   C1B56325  28.255  17.589   6.455 -0.4371 -0.2201  0.1415
 4650POPC   C2B56326  28.132  17.464   6.009  0.3620  0.1008  0.1001
 4650POPC   C3B56327  28.048  17.427   5.550  0.0295 -0.1202 -0.2249
 4650POPC   C4B56328  27.932  17.163   5.204  0.2926 -0.3411  0.4166
 4651POPC   NC356329  10.766  17.641   7.660 -0.1929  0.2066 -0.1733
 4651POPC   PO456330  10.839  17.274   7.602  0.1789 -0.1239  0.1688
 4651POPC   GL156331  10.801  17.546   7.243 -0.3271 -0.0007  0.3178
 4651POPC   GL256332  10.918  17.791   7.161  0.2513  0.2435 -0.2807
 4651POPC   C1A56333  10.966  17.354   6.860 -0.0717 -0.2487 -0.0492
 4651POPC   D2A56334  10.985  17.103   6.474  0.1114 -0.0266 -0.1657
 4651POPC   C3A56335  11.174  17.059   6.056  0.0834 -0.0273 -0.1401
 4651POPC   C4A56336  11.494  17.050   5.700 -0.0924 -0.1291 -0.0491
 4651POPC   C1B56337  10.855  18.165   6.832 -0.6856 -0.2494  0.0551
 4651POPC   C2B56338  10.702  18.325   6.413 -0.4300  0.0302  0.3316
 4651POPC   C3B56339  10.403  18.602   6.130 -0.2553  0.2219  0.2244
 4651POPC   C4B56340  10.083  18.696   5.787  0.0409 -0.1211  0.0836
 4652POPC   NC356341  13.806  22.317   7.737 -0.2415 -0.1615  0.1420
 4652POPC   PO456342  14.118  22.199   7.916  0.1181  0.0959  0.1831
 4652POPC   GL156343  14.281  22.231   7.543  0.0034  0.0587 -0.0677
 4652POPC   GL256344  14.174  21.923   7.470 -0.1817  0.0653  0.0409
 4652POPC   C1A56345  14.698  22.349   7.387 -0.3175  0.1912 -0.0213
 4652POPC   D2A56346  14.881  22.573   7.045 -0.1851 -0.2196  0.2127
 4652POPC   C3A56347  14.853  22.566   6.554 -0.0037 -0.1255  0.1104
 4652POPC   C4A56348  14.984  22.762   6.135  0.2289 -0.0142 -0.0918
 4652POPC   C1B56349  14.189  22.110   7.042 -0.1141 -0.0385 -0.1194
 4652POPC   C2B56350  14.536  22.218   6.748 -0.3114 -0.1796  0.0703
 4652POPC   C3B56351  14.659  22.197   6.292 -0.2009 -0.1915 -0.2178
 4652POPC   C4B56352  14.768  21.960   5.872 -0.0031 -0.0853 -0.3559
 4653POPC   NC356353  22.212   9.967   7.459  0.2825  0.1015  0.1057
 4653POPC   PO456354  22.132  10.333   7.656 -0.0962 -0.0595 -0.0440
 4653POPC   GL156355  21.983  10.299   7.185  0.0490  0.1580 -0.1594
 4653POPC   GL256356  21.767  10.477   7.216  0.1887 -0.0424 -0.2080
 4653POPC   C1A56357  21.929  10.471   6.797  0.1668  0.3542 -0.0126
 4653POPC   D2A56358  22.125  10.494   6.372  0.1013  0.0057 -0.0395
 4653POPC   C3A56359  21.878  10.427   5.998  0.3097  0.2725  0.2935
 4653POPC   C4A56360  21.865  10.462   5.518 -0.5077  0.0969 -0.1525
 4653POPC   C1B56361  21.438  10.550   6.869  0.2377  0.1045  0.1371
 4653POPC   C2B56362  21.117  10.448   6.514 -0.0565 -0.0916 -0.0999
 4653POPC   C3B56363  20.878  10.472   6.109  0.1297 -0.2642  0.2053
 4653POPC   C4B56364  20.957  10.154   5.820 -0.0433 -0.0400  0.3000
 4654POPC   NC356365   2.257  30.723   8.062 -0.1166  0.1615 -0.1056
 4654POPC   PO456366   2.561  30.621   7.870 -0.4081  0.2235 -0.1152
 4654POPC   GL156367   2.886  30.452   7.638  0.0001  0.0135  0.1975
 4654POPC   GL256368   2.709  30.321   7.447 -0.1718  0.0645 -0.1943
 4654POPC   C1A56369   3.211  30.309   7.310  0.0342  0.0651 -0.2100
 4654POPC   D2A56370   3.624  30.315   7.122 -0.1007  0.0919  0.2912
 4654POPC   C3A56371   3.978  30.072   6.972  0.0030 -0.0435  0.3650
 4654POPC   C4A56372   4.016  29.721   6.634  0.0175  0.2745 -0.0729
 4654POPC   C1B56373   2.779  30.597   7.073 -0.0346 -0.2087  0.0929
 4654POPC   C2B56374   2.851  30.985   6.874 -0.2215  0.1783 -0.3314
 4654POPC   C3B56375   2.897  31.242   6.491 -0.2462 -0.2586  0.1529
 4654POPC   C4B56376   3.097  31.415   6.130 -0.1131  0.0078  0.2105
 4655POPC   NC356377   3.504  30.883   7.710 -0.2520  0.2426 -0.0655
 4655POPC   PO456378   3.724  30.658   7.542  0.1963 -0.2829  0.2550
 4655POPC   GL156379   3.492  30.844   7.216  0.2845 -0.0670 -0.3513
 4655POPC   GL256380   3.731  31.022   7.143  0.1831  0.0694 -0.1556
 4655POPC   C1A56381   3.237  30.649   6.867  0.2337 -0.2350 -0.0606
 4655POPC   D2A56382   3.011  30.730   6.496  0.0259  0.1205  0.0727
 4655POPC   C3A56383   3.058  30.934   6.049  0.0544 -0.1615  0.2595
 4655POPC   C4A56384   3.219  31.173   5.675  0.0207 -0.4079 -0.1478
 4655POPC   C1B56385   3.762  30.748   6.828  0.1807  0.0624 -0.2646
 4655POPC   C2B56386   3.511  30.613   6.467 -0.1691 -0.0308 -0.0582
 4655POPC   C3B56387   3.350  30.449   6.108 -0.1114 -0.0867  0.0964
 4655POPC   C4B56388   3.187  30.095   5.924  0.2850 -0.1607  0.2175
 4656POPC   NC356389  17.234   5.742   7.255 -0.0268  0.1992 -0.0740
 4656POPC   PO456390  16.882   5.537   7.190 -0.3479  0.0443  0.1425
 4656POPC   GL156391  16.863   5.677   6.737 -0.0971  0.1617  0.2048
 4656POPC   GL256392  16.828   5.372   6.581 -0.1384  0.1056  0.0681
 4656POPC   C1A56393  16.883   5.805   6.281  0.4035  0.0479  0.3520
 4656POPC   D2A56394  16.937   5.670   5.832 -0.1005  0.0014 -0.4754
 4656POPC   C3A56395  17.278   5.756   5.597 -0.0666  0.0075 -0.0451
 4656POPC   C4A56396  17.525   5.668   5.172  0.3159  0.1194  0.3409
 4656POPC   C1B56397  17.128   5.204   6.274 -0.1521  0.2167 -0.0553
 4656POPC   C2B56398  17.173   5.222   5.840 -0.2485  0.0632  0.0283
 4656POPC   C3B56399  17.270   5.142   5.375 -0.0077  0.2598 -0.2249
 4656POPC   C4B56400  17.309   5.305   4.947 -0.0725  0.0950 -0.1889
 4657POPC   NC356401  11.712  17.770   7.555  0.0612  0.1898  0.3567
 4657POPC   PO456402  11.713  18.171   7.519 -0.1761  0.3485 -0.1579
 4657POPC   GL156403  11.831  18.255   7.204 -0.1722 -0.2029 -0.1066
 4657POPC   GL256404  11.969  18.497   7.217  0.2707  0.0875  0.1593
 4657POPC   C1A56405  12.066  18.052   6.866  0.0706 -0.0347  0.2509
 4657POPC   D2A56406  12.227  18.137   6.478 -0.1305  0.2310 -0.2733
 4657POPC   C3A56407  12.356  17.970   6.103 -0.0704  0.1038  0.2706
 4657POPC   C4A56408  12.405  17.643   5.712 -0.0310  0.0419  0.2353
 4657POPC   C1B56409  12.167  18.559   6.796  0.0668 -0.1274 -0.3456
 4657POPC   C2B56410  12.222  18.604   6.350  0.0161  0.0795  0.2380
 4657POPC   C3B56411  12.311  18.558   5.903 -0.1124 -0.1798  0.1957
 4657POPC   C4B56412  12.221  18.746   5.515  0.1193 -0.2312 -0.0373
 4658POPC   NC356413   9.244   1.238   8.419 -0.0204  0.0367  0.0180
 4658POPC   PO456414   9.013   0.963   8.221  0.3118  0.1040  0.1143
 4658POPC   GL156415   8.893   1.027   7.873  0.0285  0.1040 -0.4597
 4658POPC   GL256416   8.712   0.877   7.611  0.0552  0.1294 -0.2486
 4658POPC   C1A56417   8.918   1.309   7.508  0.2359  0.0880 -0.1858
 4658POPC   D2A56418   8.769   1.764   7.496 -0.3604  0.3412  0.1111
 4658POPC   C3A56419   8.345   1.894   7.300  0.0174 -0.1616  0.2770
 4658POPC   C4A56420   8.067   1.833   6.938  0.1682 -0.2210  0.1959
 4658POPC   C1B56421   8.597   1.046   7.217  0.1226 -0.1248  0.2411
 4658POPC   C2B56422   8.560   1.453   7.005 -0.1496  0.3005 -0.3049
 4658POPC   C3B56423   8.680   1.628   6.624 -0.0003 -0.0625  0.1528
 4658POPC   C4B56424   8.896   1.654   6.234 -0.0865 -0.0077 -0.0262
 4659POPC   NC356425  15.700  27.958   7.397  0.1828  0.1855 -0.1205
 4659POPC   PO456426  15.486  28.221   7.647  0.2109 -0.4209  0.1593
 4659POPC   GL156427  15.387  28.418   7.303 -0.0146 -0.1381  0.2462
 4659POPC   GL256428  15.585  28.360   7.075  0.0030  0.1454  0.0400
 4659POPC   C1A56429  15.352  28.828   7.173  0.0613  0.0557 -0.2162
 4659POPC   D2A56430  15.373  29.314   7.112  0.0655  0.0561  0.2336
 4659POPC   C3A56431  15.051  29.230   6.796  0.1708  0.1674  0.0817
 4659POPC   C4A56432  15.112  29.063   6.384 -0.0392 -0.2483 -0.4683
 4659POPC   C1B56433  15.375  28.578   6.734  0.0176 -0.3825 -0.0809
 4659POPC   C2B56434  15.465  28.697   6.323  0.0952  0.3546  0.0045
 4659POPC   C3B56435  15.805  28.825   6.032  0.1029 -0.1476  0.1403
 4659POPC   C4B56436  16.011  29.083   5.707 -0.4408 -0.2107  0.0270
 4660POPC   NC356437   0.868  15.733   7.832 -0.1663  0.3726  0.2509
 4660POPC   PO456438   1.204  15.753   7.621 -0.3780  0.0008 -0.2511
 4660POPC   GL156439   1.417  15.665   7.293 -0.0356 -0.0350 -0.1761
 4660POPC   GL256440   1.326  15.420   7.229  0.2061  0.1179  0.3032
 4660POPC   C1A56441   1.713  15.560   6.949  0.2266  0.0056  0.3274
 4660POPC   D2A56442   1.588  15.153   6.726 -0.2168  0.0511  0.1885
 4660POPC   C3A56443   1.988  15.223   6.419  0.1454  0.0551 -0.3751
 4660POPC   C4A56444   2.289  15.325   6.128 -0.4280  0.0208 -0.0492
 4660POPC   C1B56445   1.091  15.308   6.785 -0.0420  0.0413  0.0446
 4660POPC   C2B56446   1.060  15.268   6.331  0.0840 -0.2336  0.0512
 4660POPC   C3B56447   0.782  15.523   6.046 -0.0606 -0.4545 -0.1258
 4660POPC   C4B56448   0.797  15.671   5.609  0.0967 -0.0837  0.1425
 4661POPC   NC356449   0.829   0.680   7.541  0.1114 -0.1953  0.1271
 4661POPC   PO456450   1.173   0.855   7.601 -0.2468  0.0784 -0.1089
 4661POPC   GL156451   1.286   0.735   7.235  0.2462 -0.1960  0.0817
 4661POPC   GL256452   1.023   0.837   7.100 -0.0038  0.1866  0.5101
 4661POPC   C1A56453   1.256   0.449   6.850 -0.0172  0.2963  0.0362
 4661POPC   D2A56454   1.132   0.464   6.344  0.0884  0.1602 -0.1655
 4661POPC   C3A56455   1.029   0.076   6.034 -0.3673 -0.1123  0.0494
 4661POPC   C4A56456   1.251  -0.280   5.947  0.3069 -0.0406 -0.2850
 4661POPC   C1B56457   1.146   0.866   6.659 -0.1168 -0.0042 -0.2880
 4661POPC   C2B56458   1.036   0.937   6.186 -0.1831 -0.2722  0.1181
 4661POPC   C3B56459   1.193   1.298   5.953  0.1398 -0.3445  0.0353
 4661POPC   C4B56460   1.557   1.484   5.680  0.2565 -0.2558  0.0261
 4662POPC   NC356461   5.763  12.610   7.244 -0.2805  0.0296 -0.0107
 4662POPC   PO456462   5.784  12.259   7.050  0.0642 -0.0654  0.2951
 4662POPC   GL156463   5.647  12.363   6.691 -0.0356  0.1647 -0.1342
 4662POPC   GL256464   5.401  12.222   6.712  0.0961 -0.2051 -0.0341
 4662POPC   C1A56465   5.704  12.613   6.351 -0.0845  0.0228  0.0900
 4662POPC   D2A56466   6.021  12.683   6.002  0.1544  0.1482  0.2106
 4662POPC   C3A56467   6.169  13.037   5.742  0.1340 -0.0504  0.3145
 4662POPC   C4A56468   6.541  13.243   5.607  0.0211 -0.3692 -0.0043
 4662POPC   C1B56469   5.250  12.364   6.263  0.0204  0.1894  0.1571
 4662POPC   C2B56470   5.526  12.406   5.885  0.2882 -0.1521 -0.0541
 4662POPC   C3B56471   5.776  12.548   5.548 -0.0999  0.1324  0.0030
 4662POPC   C4B56472   5.942  12.504   5.163 -0.1493 -0.1630  0.1800
 4663POPC   NC356473  21.121  13.879   7.461 -0.0644  0.1555 -0.0287
 4663POPC   PO456474  20.983  14.214   7.583  0.0386 -0.0413 -0.1426
 4663POPC   GL156475  20.933  14.296   7.110  0.3561  0.0814  0.1807
 4663POPC   GL256476  21.190  14.245   7.003  0.0781 -0.0859 -0.2877
 4663POPC   C1A56477  20.771  14.355   6.677  0.0677  0.2010  0.1053
 4663POPC   D2A56478  20.476  14.312   6.328 -0.0993 -0.1594  0.0287
 4663POPC   C3A56479  20.536  14.444   5.917 -0.0763 -0.0771  0.0076
 4663POPC   C4A56480  20.690  14.620   5.512  0.1569 -0.1832 -0.1391
 4663POPC   C1B56481  21.257  14.429   6.601  0.2477 -0.0397 -0.0124
 4663POPC   C2B56482  20.992  14.509   6.255  0.1824  0.1961  0.0969
 4663POPC   C3B56483  21.008  14.707   5.868 -0.1284  0.2189 -0.1202
 4663POPC   C4B56484  21.199  14.967   5.514 -0.0088  0.0555 -0.0368
 4664POPC   NC356485   6.216  23.022   8.961 -0.0315 -0.0872 -0.0246
 4664POPC   PO456486   6.191  22.732   8.662  0.3419  0.0858 -0.0718
 4664POPC   GL156487   6.185  22.832   8.246  0.3295 -0.2243  0.0829
 4664POPC   GL256488   6.114  22.518   8.185 -0.0045  0.0005  0.1734
 4664POPC   C1A56489   5.972  23.091   7.883  0.3029 -0.1595 -0.2103
 4664POPC   D2A56490   5.860  23.396   7.499  0.0703 -0.1201 -0.0945
 4664POPC   C3A56491   5.527  23.519   7.212 -0.0019  0.1734 -0.0289
 4664POPC   C4A56492   5.238  23.354   6.838  0.2680  0.1454 -0.3199
 4664POPC   C1B56493   6.232  22.649   7.763  0.0592  0.1031  0.0502
 4664POPC   C2B56494   6.132  22.778   7.351  0.2956  0.1551  0.1908
 4664POPC   C3B56495   5.889  23.084   7.070 -0.2394  0.1972  0.0299
 4664POPC   C4B56496   5.770  23.298   6.646  0.2079  0.0513 -0.0386
 4665POPC   NC356497   4.975   7.373   8.031 -0.1556  0.0591  0.0805
 4665POPC   PO456498   4.809   7.694   8.241  0.1082 -0.1325  0.3308
 4665POPC   GL156499   5.059   7.772   7.871  0.0716 -0.1896  0.0719
 4665POPC   GL256500   4.821   7.861   7.701  0.0546  0.2506  0.2815
 4665POPC   C1A56501   5.293   7.392   7.665 -0.0128  0.0692 -0.2176
 4665POPC   D2A56502   5.320   7.011   7.451 -0.0836 -0.0031  0.0451
 4665POPC   C3A56503   5.352   7.196   6.958  0.3170 -0.2317 -0.1085
 4665POPC   C4A56504   5.104   7.123   6.576  0.0684  0.0368 -0.4356
 4665POPC   C1B56505   5.117   7.798   7.387  0.0871  0.0343 -0.1083
 4665POPC   C2B56506   5.231   7.748   6.922 -0.0727 -0.0291 -0.3151
 4665POPC   C3B56507   5.353   7.566   6.487  0.0742  0.0606 -0.0949
 4665POPC   C4B56508   5.366   7.367   6.078 -0.1063 -0.0827  0.1574
 4666POPC   NC356509  13.791   3.175   7.591 -0.1431  0.0104 -0.0206
 4666POPC   PO456510  13.802   2.767   7.645 -0.0696  0.0438  0.2048
 4666POPC   GL156511  13.958   2.806   7.326  0.0910  0.0198 -0.1720
 4666POPC   GL256512  14.241   2.725   7.281  0.1235  0.1023 -0.0070
 4666POPC   C1A56513  14.121   3.181   7.100  0.2699  0.0631 -0.3387
 4666POPC   D2A56514  14.190   3.465   6.742  0.2419  0.0324  0.0219
 4666POPC   C3A56515  14.275   3.939   6.697  0.0642 -0.2723  0.1304
 4666POPC   C4A56516  14.632   4.212   6.611 -0.0057 -0.0944 -0.2878
 4666POPC   C1B56517  14.392   2.424   6.909 -0.2490 -0.2577  0.0546
 4666POPC   C2B56518  14.343   2.367   6.436 -0.0777  0.0041 -0.2606
 4666POPC   C3B56519  14.241   2.729   6.096  0.0043 -0.0931 -0.3020
 4666POPC   C4B56520  14.299   3.009   5.771  0.0317 -0.1197  0.3625
 4667POPC   NC356521   5.989  16.253   8.055  0.2993 -0.0279  0.0687
 4667POPC   PO456522   5.697  16.335   7.769 -0.0741 -0.3940  0.1904
 4667POPC   GL156523   5.572  16.139   7.485  0.1027  0.2705  0.0032
 4667POPC   GL256524   5.391  16.340   7.315 -0.1463 -0.1492 -0.1441
 4667POPC   C1A56525   5.520  15.820   7.119 -0.1440 -0.0501 -0.1477
 4667POPC   D2A56526   5.320  15.827   6.717 -0.0378 -0.6889  0.0341
 4667POPC   C3A56527   5.406  16.190   6.458  0.0890  0.0309 -0.0658
 4667POPC   C4A56528   5.708  16.254   6.115 -0.0514 -0.0846 -0.1386
 4667POPC   C1B56529   5.559  16.327   6.918  0.1253  0.0562  0.0105
 4667POPC   C2B56530   5.867  16.198   6.644  0.1161  0.1974  0.1636
 4667POPC   C3B56531   6.187  16.046   6.339  0.1762  0.1053  0.2899
 4667POPC   C4B56532   6.537  15.802   6.226  0.3223  0.3323 -0.1874
 4668POPC   NC356533   5.542   8.123   8.868 -0.0658 -0.4730  0.1493
 4668POPC   PO456534   5.518   8.555   8.806  0.0136 -0.0513  0.2359
 4668POPC   GL156535   5.837   8.357   8.595  0.0985  0.0610 -0.0376
 4668POPC   GL256536   5.855   8.250   8.270  0.3407  0.0548  0.0087
 4668POPC   C1A56537   6.193   8.601   8.404  0.0678 -0.0907 -0.1934
 4668POPC   D2A56538   6.402   8.988   8.227  0.0143 -0.4778 -0.1051
 4668POPC   C3A56539   6.676   8.978   7.771  0.0069 -0.0568 -0.1731
 4668POPC   C4A56540   6.364   8.972   7.429 -0.3310  0.1590  0.0663
 4668POPC   C1B56541   6.237   8.234   8.043 -0.1396 -0.3872  0.2943
 4668POPC   C2B56542   6.636   8.034   7.906 -0.0948 -0.1170 -0.0580
 4668POPC   C3B56543   7.047   7.826   7.837 -0.0979  0.0758  0.0705
 4668POPC   C4B56544   7.410   7.919   7.543  0.1629 -0.0278  0.2406
 4669POPC   NC356545  21.959   9.037   7.878  0.2418 -0.1220  0.2304
 4669POPC   PO456546  21.793   8.669   8.020 -0.0382  0.0330  0.1157
 4669POPC   GL156547  21.714   8.357   7.706 -0.0273  0.0030  0.0452
 4669POPC   GL256548  21.678   8.619   7.517  0.1371  0.1642  0.0226
 4669POPC   C1A56549  21.525   8.220   7.296 -0.0631  0.3058  0.2141
 4669POPC   D2A56550  21.324   8.008   6.941 -0.3467 -0.0318 -0.2583
 4669POPC   C3A56551  21.224   8.022   6.501 -0.1100  0.1838  0.1920
 4669POPC   C4A56552  21.067   7.814   6.170 -0.2329  0.1445  0.0706
 4669POPC   C1B56553  21.426   8.717   7.194  0.3643 -0.2297 -0.2459
 4669POPC   C2B56554  21.351   8.555   6.776 -0.1800 -0.1078  0.0642
 4669POPC   C3B56555  21.199   8.487   6.319 -0.2116  0.1061 -0.2289
 4669POPC   C4B56556  21.022   8.275   6.026  0.1097 -0.2044  0.3595
 4670POPC   NC356557  22.342  24.880   7.925  0.0668 -0.1454  0.0198
 4670POPC   PO456558  21.986  24.962   7.839  0.1131 -0.0792 -0.0735
 4670POPC   GL156559  21.616  24.886   7.606 -0.1150  0.0140  0.1873
 4670POPC   GL256560  21.420  24.719   7.514  0.2431 -0.1749  0.1484
 4670POPC   C1A56561  21.487  25.210   7.263 -0.0391 -0.0948 -0.0636
 4670POPC   D2A56562  21.140  25.213   6.944  0.1102 -0.0899 -0.1679
 4670POPC   C3A56563  21.278  25.068   6.536 -0.1319 -0.0946  0.1559
 4670POPC   C4A56564  21.293  24.999   6.063  0.1100 -0.2597 -0.4415
 4670POPC   C1B56565  21.325  24.755   7.053  0.0838  0.0151 -0.1386
 4670POPC   C2B56566  21.007  24.615   6.743 -0.1786 -0.0531  0.1263
 4670POPC   C3B56567  20.914  24.415   6.355 -0.0746  0.1795 -0.1858
 4670POPC   C4B56568  20.870  24.158   6.008  0.1119  0.4027 -0.0047
 4671POPC   NC356569  16.894  10.644   8.515  0.1827  0.0444  0.1991
 4671POPC   PO456570  17.074  10.920   8.306  0.2522  0.2590  0.2708
 4671POPC   GL156571  17.189  10.917   7.919  0.0424  0.0461  0.3031
 4671POPC   GL256572  16.943  10.745   7.816 -0.2011 -0.1399 -0.0104
 4671POPC   C1A56573  17.590  11.136   7.717 -0.3275  0.1482  0.2961
 4671POPC   D2A56574  17.689  11.167   7.268 -0.1704  0.1438 -0.0465
 4671POPC   C3A56575  17.517  11.179   6.848  0.0151 -0.2368  0.0997
 4671POPC   C4A56576  17.593  11.142   6.363 -0.1288  0.1924  0.2136
 4671POPC   C1B56577  16.926  10.458   7.422 -0.2352 -0.2782 -0.2905
 4671POPC   C2B56578  17.159  10.339   7.048 -0.3421 -0.0458 -0.0112
 4671POPC   C3B56579  17.307  10.192   6.666 -0.0683  0.1432 -0.0149
 4671POPC   C4B56580  17.539  10.101   6.288 -0.1488 -0.2178  0.1277
 4672POPC   NC356581   0.145  10.731   8.192  0.0127 -0.3550 -0.0719
 4672POPC   PO456582   0.291  10.944   7.874  0.1422  0.4341 -0.2325
 4672POPC   GL156583   0.448  10.901   7.558  0.0213 -0.1326  0.0121
 4672POPC   GL256584   0.173  10.742   7.439  0.2363 -0.1298  0.0323
 4672POPC   C1A56585   0.646  10.809   7.203  0.2752 -0.2170 -0.1313
 4672POPC   D2A56586   0.698  10.659   6.777 -0.0326  0.1702 -0.3362
 4672POPC   C3A56587   0.687  10.935   6.374 -0.2844 -0.0349  0.0327
 4672POPC   C4A56588   0.442  11.030   5.995 -0.0259  0.2029 -0.1692
 4672POPC   C1B56589   0.186  10.727   6.995  0.0380 -0.2050  0.0078
 4672POPC   C2B56590   0.171  10.635   6.585  0.0951  0.0871  0.1222
 4672POPC   C3B56591   0.300  10.517   6.160  0.0151 -0.0093  0.0255
 4672POPC   C4B56592   0.424  10.208   5.845  0.4196 -0.1607  0.1355
 4673POPC   NC356593  17.912   8.167   8.064  0.0096 -0.1198 -0.0992
 4673POPC   PO456594  18.087   8.554   8.073  0.0883  0.0688  0.1479
 4673POPC   GL156595  17.959   8.655   7.699  0.0980  0.1253 -0.0091
 4673POPC   GL256596  17.954   8.391   7.605 -0.1114 -0.2768  0.1459
 4673POPC   C1A56597  18.036   8.806   7.272 -0.2361 -0.2505  0.0278
 4673POPC   D2A56598  17.880   8.936   6.868 -0.1117 -0.0940  0.1924
 4673POPC   C3A56599  17.442   8.769   6.702 -0.2208  0.0393 -0.0985
 4673POPC   C4A56600  17.403   8.398   6.398  0.1762  0.1766  0.1432
 4673POPC   C1B56601  17.876   8.348   7.191  0.0538 -0.0387 -0.0600
 4673POPC   C2B56602  17.846   8.464   6.746  0.0948 -0.1961 -0.2305
 4673POPC   C3B56603  17.925   8.590   6.341 -0.0453 -0.1143 -0.3419
 4673POPC   C4B56604  18.300   8.773   6.136  0.0876 -0.1408  0.2562
 4674POPC   NC356605  28.563  25.266   8.021 -0.1092 -0.1876 -0.1853
 4674POPC   PO456606  28.799  25.134   7.765  0.0442  0.0315  0.1538
 4674POPC   GL156607  28.998  25.001   7.464 -0.1065  0.4295  0.0005
 4674POPC   GL256608  29.005  25.125   7.243 -0.1298  0.2068  0.2046
 4674POPC   C1A56609  29.325  24.818   7.112  0.0174 -0.1564 -0.0114
 4674POPC   D2A56610  29.529  24.385   6.995 -0.0862  0.0894 -0.1182
 4674POPC   C3A56611  29.659  24.411   6.582  0.2851  0.4077  0.0246
 4674POPC   C4A56612  29.812  24.648   6.236  0.2607  0.0991 -0.0912
 4674POPC   C1B56613  29.037  25.053   6.745 -0.0589 -0.1973 -0.0808
 4674POPC   C2B56614  29.255  24.656   6.641  0.0399  0.1300  0.1511
 4674POPC   C3B56615  29.226  24.164   6.678  0.0790 -0.2293 -0.1724
 4674POPC   C4B56616  29.291  23.747   6.402 -0.0617  0.1582 -0.3238
 4675POPC   NC356617  21.581  18.917   7.939 -0.0501  0.0165  0.0071
 4675POPC   PO456618  21.554  19.160   7.620  0.1954 -0.1272  0.0376
 4675POPC   GL156619  21.446  19.226   7.189  0.2426 -0.0905 -0.1606
 4675POPC   GL256620  21.691  19.370   7.108 -0.1269  0.0972  0.0114
 4675POPC   C1A56621  21.241  19.175   6.839  0.2004 -0.6394  0.0574
 4675POPC   D2A56622  21.381  19.200   6.414 -0.2263  0.0748  0.0641
 4675POPC   C3A56623  21.474  18.827   6.060  0.0251  0.2384 -0.0376
 4675POPC   C4A56624  21.514  18.524   5.686 -0.3167 -0.1001 -0.0587
 4675POPC   C1B56625  21.829  19.093   6.763 -0.1537 -0.0908 -0.1548
 4675POPC   C2B56626  21.858  18.964   6.317  0.1574 -0.0881 -0.1201
 4675POPC   C3B56627  22.038  18.990   5.894 -0.0344  0.1749 -0.1150
 4675POPC   C4B56628  21.987  18.811   5.498 -0.2728  0.1358  0.1340
 4676POPC   NC356629  13.957   7.295   7.886 -0.0042 -0.2111 -0.0294
 4676POPC   PO456630  13.624   7.136   7.981 -0.3235  0.0598  0.0620
 4676POPC   GL156631  13.585   7.240   7.612  0.1616 -0.1418  0.1218
 4676POPC   GL256632  13.661   7.441   7.495  0.0199  0.0631 -0.0735
 4676POPC   C1A56633  13.362   7.193   7.178  0.0570 -0.0184  0.2951
 4676POPC   D2A56634  13.078   7.264   6.805  0.1561 -0.0946  0.6551
 4676POPC   C3A56635  13.141   7.563   6.407  0.3196 -0.1643 -0.1641
 4676POPC   C4A56636  13.284   7.762   6.055  0.3584 -0.1636 -0.0284
 4676POPC   C1B56637  13.813   7.414   7.079 -0.0959  0.0963 -0.0235
 4676POPC   C2B56638  13.613   7.210   6.699  0.1369 -0.2552 -0.1591
 4676POPC   C3B56639  13.571   6.938   6.335  0.1127 -0.0112 -0.0205
 4676POPC   C4B56640  13.741   7.023   5.921 -0.0416  0.1191  0.2058
 4677POPC   NC356641  20.666   1.254   7.690 -0.1492 -0.0899 -0.1324
 4677POPC   PO456642  20.870   0.864   7.672 -0.3603 -0.1359  0.2363
 4677POPC   GL156643  20.640   0.982   7.332  0.2144  0.1083  0.0302
 4677POPC   GL256644  20.801   0.681   7.189  0.0334 -0.2260  0.3395
 4677POPC   C1A56645  20.532   1.091   6.879 -0.5255  0.0532 -0.1959
 4677POPC   D2A56646  20.451   1.160   6.524  0.3743 -0.0420 -0.0224
 4677POPC   C3A56647  20.628   0.752   6.294 -0.0705 -0.1793  0.0198
 4677POPC   C4A56648  20.983   0.450   6.385  0.1186 -0.0088  0.1734
 4677POPC   C1B56649  20.699   0.535   6.816  0.1147 -0.1929 -0.0088
 4677POPC   C2B56650  20.453   0.386   6.477  0.1367  0.0047  0.0641
 4677POPC   C3B56651  20.649   0.315   6.070 -0.1528 -0.1524  0.4278
 4677POPC   C4B56652  20.912   0.298   5.646  0.0262 -0.0307  0.0448
 4678POPC   NC356653   1.832  15.631   7.582  0.0101 -0.0030  0.0702
 4678POPC   PO456654   1.598  15.342   7.630  0.2302  0.0487 -0.1758
 4678POPC   GL156655   1.723  14.925   7.421  0.2115  0.2210  0.2309
 4678POPC   GL256656   1.791  15.161   7.222  0.2887  0.0472 -0.0854
 4678POPC   C1A56657   1.489  14.755   7.073 -0.0548  0.2306 -0.0442
 4678POPC   D2A56658   1.399  14.654   6.606  0.0024  0.1185  0.2159
 4678POPC   C3A56659   1.523  14.995   6.250  0.1641 -0.1193 -0.0898
 4678POPC   C4A56660   1.869  15.108   5.963 -0.0763 -0.1365  0.0632
 4678POPC   C1B56661   1.935  14.834   6.924  0.1164 -0.1181  0.2393
 4678POPC   C2B56662   1.920  14.674   6.444 -0.1604  0.0395 -0.1679
 4678POPC   C3B56663   1.621  14.558   6.067  0.2378  0.1560  0.2090
 4678POPC   C4B56664   1.217  14.450   5.892 -0.2244 -0.2709  0.1097
 4679POPC   NC356665  16.742   1.007   7.755  0.2785  0.0581 -0.2632
 4679POPC   PO456666  16.957   0.638   7.818 -0.0073 -0.1725 -0.1266
 4679POPC   GL156667  16.956   0.542   7.449 -0.0239  0.2515  0.1377
 4679POPC   GL256668  17.203   0.504   7.400 -0.0427  0.2780 -0.2117
 4679POPC   C1A56669  16.753   0.450   7.022  0.0317  0.0722 -0.0706
 4679POPC   D2A56670  16.361   0.581   6.852  0.3850 -0.0704  0.1925
 4679POPC   C3A56671  16.133   0.607   6.479  0.1329  0.2731  0.0542
 4679POPC   C4A56672  15.940   0.626   6.093 -0.0352  0.0476 -0.2286
 4679POPC   C1B56673  17.335   0.389   7.013 -0.1063  0.0500  0.4346
 4679POPC   C2B56674  17.398   0.505   6.552  0.2824  0.2050 -0.2264
 4679POPC   C3B56675  17.258   0.779   6.231  0.1375  0.1241 -0.2334
 4679POPC   C4B56676  17.097   1.065   5.885 -0.0053 -0.0958 -0.1617
 4680POPC   NC356677   1.892  31.543   7.721  0.0725 -0.1449 -0.1644
 4680POPC   PO456678   1.655  31.889   7.668 -0.1167  0.0439  0.0329
 4680POPC   GL156679   1.654  31.716   7.289 -0.0171  0.1538 -0.0552
 4680POPC   GL256680   1.314  31.736   7.162 -0.3209 -0.1124  0.0203
 4680POPC   C1A56681   1.774  32.026   6.940 -0.0539  0.1483  0.1514
 4680POPC   D2A56682   1.627  32.212   6.555  0.0485  0.1709  0.0229
 4680POPC   C3A56683   1.954  32.210   6.192  0.2745  0.0581 -0.2069
 4680POPC   C4A56684   2.264  32.263   5.894 -0.0658  0.0880  0.2513
 4680POPC   C1B56685   1.419  31.694   6.672 -0.1174 -0.3084  0.0563
 4680POPC   C2B56686   1.459  31.838   6.270 -0.0773  0.0005  0.0510
 4680POPC   C3B56687   1.431  32.099   5.935  0.1292 -0.1784 -0.2886
 4680POPC   C4B56688   1.854  32.076   5.695  0.0213  0.0072  0.1886
 4681POPC   NC356689  21.811  27.898   7.578 -0.0575  0.0260  0.0500
 4681POPC   PO456690  21.852  28.253   7.821 -0.0775 -0.1999  0.3253
 4681POPC   GL156691  21.938  28.349   7.492  0.2627 -0.0051  0.2176
 4681POPC   GL256692  21.867  28.592   7.420  0.1912 -0.1842 -0.0967
 4681POPC   C1A56693  22.015  28.229   7.085  0.1162  0.1455  0.1934
 4681POPC   D2A56694  22.075  28.166   6.656 -0.0914  0.1597  0.3585
 4681POPC   C3A56695  21.932  28.492   6.383  0.0261  0.1635  0.0385
 4681POPC   C4A56696  21.693  28.866   6.252 -0.2108  0.1486  0.1264
 4681POPC   C1B56697  22.087  28.820   7.076 -0.1056 -0.1215  0.2037
 4681POPC   C2B56698  22.264  28.908   6.614 -0.1159 -0.1274 -0.4001
 4681POPC   C3B56699  22.177  28.908   6.158 -0.1357 -0.0221  0.0924
 4681POPC   C4B56700  22.396  29.255   5.969 -0.5113  0.0518 -0.0495
 4682POPC   NC356701  16.640  29.014   7.954  0.0592  0.2135 -0.1563
 4682POPC   PO456702  16.461  29.213   7.685  0.0312  0.1355 -0.1694
 4682POPC   GL156703  16.570  29.035   7.264  0.1017 -0.2158  0.1380
 4682POPC   GL256704  16.833  29.054   7.273 -0.0586  0.4615 -0.1545
 4682POPC   C1A56705  16.302  28.978   6.866  0.0188  0.2892 -0.0353
 4682POPC   D2A56706  16.076  29.099   6.479 -0.0311  0.2959 -0.1393
 4682POPC   C3A56707  16.163  29.367   6.143  0.2556 -0.1939  0.1783
 4682POPC   C4A56708  16.011  29.596   5.805  0.0750 -0.0655  0.0318
 4682POPC   C1B56709  17.232  29.112   7.036 -0.0182  0.1938  0.0929
 4682POPC   C2B56710  17.490  29.091   6.607  0.0264  0.0548  0.0991
 4682POPC   C3B56711  17.348  28.968   6.200 -0.1882  0.2217  0.2845
 4682POPC   C4B56712  17.304  28.894   5.775  0.1941 -0.0796 -0.1093
 4683POPC   NC356713  26.911  16.616   7.191  0.1229  0.2696 -0.1841
 4683POPC   PO456714  27.194  16.888   7.187  0.0006  0.1398 -0.3715
 4683POPC   GL156715  27.343  16.545   7.081  0.3853 -0.0005 -0.1277
 4683POPC   GL256716  27.315  16.271   7.199  0.1398 -0.0729  0.2417
 4683POPC   C1A56717  27.382  16.416   6.615 -0.0743 -0.0543 -0.1559
 4683POPC   D2A56718  27.525  16.390   6.197 -0.0104 -0.1543  0.3234
 4683POPC   C3A56719  27.661  16.073   5.920  0.0434 -0.0306  0.4498
 4683POPC   C4A56720  27.844  15.802   5.622  0.1564  0.2217  0.0901
 4683POPC   C1B56721  27.094  16.102   6.912 -0.2871  0.0554  0.0439
 4683POPC   C2B56722  26.897  15.850   6.588 -0.4112 -0.3167  0.4595
 4683POPC   C3B56723  26.894  15.601   6.228 -0.1154  0.0765 -0.1672
 4683POPC   C4B56724  26.863  15.596   5.754 -0.1894 -0.1394  0.0113
 4684POPC   NC356725  19.154  19.054   7.610 -0.0264 -0.3060 -0.0356
 4684POPC   PO456726  19.045  18.686   7.561 -0.0982  0.3365 -0.0763
 4684POPC   GL156727  18.786  18.763   7.333 -0.0586  0.0819  0.1127
 4684POPC   GL256728  18.792  19.002   7.267  0.0834  0.0587 -0.1695
 4684POPC   C1A56729  18.798  18.542   6.944 -0.1667  0.1519  0.1957
 4684POPC   D2A56730  18.925  18.523   6.507  0.0195  0.1459 -0.3081
 4684POPC   C3A56731  19.256  18.858   6.508 -0.2633 -0.1099 -0.0646
 4684POPC   C4A56732  19.690  18.949   6.336 -0.0753  0.2423 -0.2263
 4684POPC   C1B56733  18.736  19.010   6.846  0.1159 -0.1173 -0.1107
 4684POPC   C2B56734  18.442  18.895   6.506 -0.1985  0.0551  0.1794
 4684POPC   C3B56735  18.287  18.843   6.121 -0.0522 -0.0646 -0.1655
 4684POPC   C4B56736  18.254  18.577   5.692 -0.0719  0.0065 -0.0786
 4685POPC   NC356737  12.438   4.879   7.369  0.0399 -0.0533  0.1383
 4685POPC   PO456738  12.254   5.193   7.544  0.2062 -0.2317  0.3402
 4685POPC   GL156739  12.113   5.300   7.211 -0.5883  0.3566  0.1284
 4685POPC   GL256740  12.356   5.445   7.141  0.0362 -0.0791 -0.1592
 4685POPC   C1A56741  11.919   5.513   6.862  0.1108  0.0931  0.1235
 4685POPC   D2A56742  11.751   5.577   6.450  0.4374  0.1778 -0.0926
 4685POPC   C3A56743  11.558   5.705   6.119  0.0697 -0.0278 -0.1864
 4685POPC   C4A56744  11.487   5.827   5.676  0.2522 -0.1212 -0.3038
 4685POPC   C1B56745  12.321   5.396   6.634  0.1488  0.2848  0.0161
 4685POPC   C2B56746  12.236   5.695   6.285 -0.1434  0.2091 -0.1748
 4685POPC   C3B56747  11.983   5.897   5.936 -0.2267  0.1952 -0.1253
 4685POPC   C4B56748  11.958   6.079   5.480  0.0664  0.0832 -0.0190
 4686POPC   NC356749   7.441  23.324   7.711  0.0776  0.1660 -0.1779
 4686POPC   PO456750   7.668  23.585   7.652 -0.1180 -0.2336  0.1181
 4686POPC   GL156751   7.355  23.806   7.420 -0.1849  0.5295 -0.1977
 4686POPC   GL256752   7.321  23.569   7.274  0.1976  0.2135  0.0862
 4686POPC   C1A56753   7.108  24.008   7.079  0.4261  0.2907 -0.2459
 4686POPC   D2A56754   6.713  23.930   6.807  0.3415 -0.0837  0.0576
 4686POPC   C3A56755   6.399  24.140   6.618  0.0900  0.0147 -0.2812
 4686POPC   C4A56756   6.253  24.004   6.258  0.1297  0.3799 -0.0620
 4686POPC   C1B56757   7.446  23.727   6.830 -0.0599 -0.5111 -0.0456
 4686POPC   C2B56758   7.092  23.834   6.506 -0.2342 -0.2947 -0.0287
 4686POPC   C3B56759   6.710  23.877   6.213  0.1478 -0.2844 -0.0223
 4686POPC   C4B56760   6.617  23.667   5.835  0.2595 -0.0623  0.2669
 4687POPC   NC356761  24.015  22.808   7.661 -0.1323  0.3704 -0.1830
 4687POPC   PO456762  24.269  23.121   7.640 -0.0591  0.3135  0.3530
 4687POPC   GL156763  24.113  23.155   7.283  0.2942 -0.1537  0.0129
 4687POPC   GL256764  24.013  22.914   7.088  0.2308  0.1249  0.0795
 4687POPC   C1A56765  24.138  23.311   6.822 -0.2947  0.4629 -0.0147
 4687POPC   D2A56766  24.438  23.317   6.474 -0.2141 -0.0668 -0.0372
 4687POPC   C3A56767  24.450  23.408   5.993  0.3481  0.3257  0.0205
 4687POPC   C4A56768  24.572  23.526   5.552 -0.1037 -0.0727  0.0211
 4687POPC   C1B56769  24.228  22.807   6.662 -0.2398 -0.0978 -0.1722
 4687POPC   C2B56770  24.463  22.862   6.249  0.0025 -0.1528 -0.1574
 4687POPC   C3B56771  24.851  23.076   6.082  0.0556  0.2584 -0.2554
 4687POPC   C4B56772  25.022  23.328   5.748 -0.1618  0.0678  0.0153
 4688POPC   NC356773  26.988  17.368   7.477 -0.0917 -0.1924  0.2596
 4688POPC   PO456774  27.359  17.457   7.412  0.1328 -0.2543 -0.1983
 4688POPC   GL156775  27.463  17.350   7.081 -0.2081 -0.1322 -0.0943
 4688POPC   GL256776  27.201  17.321   6.946 -0.0789  0.1480 -0.1818
 4688POPC   C1A56777  27.458  17.097   6.642 -0.0324  0.1467  0.2213
 4688POPC   D2A56778  27.240  16.858   6.307 -0.3015 -0.0963  0.0580
 4688POPC   C3A56779  27.031  16.504   6.138 -0.1085  0.0319 -0.3032
 4688POPC   C4A56780  26.708  16.081   6.154  0.2198 -0.0013  0.2062
 4688POPC   C1B56781  26.940  17.192   6.559 -0.4015  0.0416 -0.2845
 4688POPC   C2B56782  26.755  16.898   6.212  0.0229 -0.3400 -0.1411
 4688POPC   C3B56783  26.536  16.549   6.252  0.0510  0.0078  0.1601
 4688POPC   C4B56784  26.176  16.250   6.183 -0.2068 -0.1356  0.1255
 4689POPC   NC356785   0.039  11.276   7.581  0.0461  0.0795  0.0300
 4689POPC   PO456786  -0.375  11.290   7.606 -0.3051  0.1445 -0.2489
 4689POPC   GL156787  -0.348  11.369   7.267  0.1332  0.0087  0.0833
 4689POPC   GL256788  -0.229  11.061   7.163 -0.1244 -0.0223  0.0636
 4689POPC   C1A56789  -0.408  11.377   6.846  0.1977  0.1481 -0.1474
 4689POPC   D2A56790  -0.416  11.464   6.374 -0.0664 -0.0184  0.0536
 4689POPC   C3A56791  -0.409  11.276   5.978  0.0690 -0.2856  0.2898
 4689POPC   C4A56792  -0.397  11.008   5.598 -0.0953 -0.0069  0.0523
 4689POPC   C1B56793  -0.157  11.012   6.718  0.1005  0.0149  0.0509
 4689POPC   C2B56794  -0.083  10.906   6.215 -0.0056 -0.1634  0.3588
 4689POPC   C3B56795   0.013  10.683   5.813 -0.2146 -0.2244  0.2590
 4689POPC   C4B56796   0.408  10.688   5.579 -0.1592 -0.1074 -0.1298
 4690POPC   NC356797   4.153   3.654   7.662 -0.0706  0.0375  0.1706
 4690POPC   PO456798   3.803   3.790   7.764 -0.3320  0.0035  0.3286
 4690POPC   GL156799   3.614   3.597   7.510  0.0702  0.0565 -0.2085
 4690POPC   GL256800   3.695   3.313   7.545 -0.1513  0.1840 -0.2978
 4690POPC   C1A56801   3.363   3.300   7.191  0.2237 -0.0472 -0.1471
 4690POPC   D2A56802   3.317   2.922   6.940 -0.0886 -0.1017 -0.1830
 4690POPC   C3A56803   3.374   2.776   6.543  0.2859  0.2636  0.1907
 4690POPC   C4A56804   3.465   2.638   6.080 -0.0159 -0.0391 -0.1175
 4690POPC   C1B56805   3.837   3.173   7.140 -0.1504 -0.3006 -0.2869
 4690POPC   C2B56806   3.840   3.266   6.718  0.0636  0.0469  0.3847
 4690POPC   C3B56807   4.083   3.144   6.338 -0.1158 -0.2390  0.0092
 4690POPC   C4B56808   4.387   2.976   6.012 -0.0949 -0.2009 -0.1777
 4691POPC   NC356809  25.542  21.313   8.332  0.0269  0.0977  0.2414
 4691POPC   PO456810  25.506  20.966   8.243 -0.0203  0.1898 -0.2311
 4691POPC   GL156811  25.850  20.983   7.934  0.2177  0.2125 -0.1547
 4691POPC   GL256812  26.214  21.026   7.966 -0.0299 -0.1535  0.0586
 4691POPC   C1A56813  25.987  20.833   7.480  0.1135  0.1925 -0.1463
 4691POPC   D2A56814  25.966  20.935   7.047 -0.3667  0.3106  0.2137
 4691POPC   C3A56815  25.865  21.369   6.912  0.4483 -0.0740 -0.0551
 4691POPC   C4A56816  25.662  21.782   7.081  0.1548  0.2081  0.1934
 4691POPC   C1B56817  26.476  21.394   8.026 -0.1594  0.2216  0.1953
 4691POPC   C2B56818  26.864  21.612   7.944  0.2706  0.0002 -0.1245
 4691POPC   C3B56819  27.016  21.828   7.564  0.0914 -0.0005  0.1617
 4691POPC   C4B56820  27.123  21.852   7.114 -0.1368  0.0626 -0.4596
 4692POPC   NC356821   1.692  18.312   7.688 -0.1168 -0.0907  0.2624
 4692POPC   PO456822   1.542  18.692   7.619 -0.1701 -0.0687  0.0249
 4692POPC   GL156823   1.271  18.619   7.233 -0.0823 -0.3332  0.0958
 4692POPC   GL256824   1.036  18.762   7.298 -0.0099 -0.0623  0.1901
 4692POPC   C1A56825   1.289  18.592   6.767 -0.1712  0.0104 -0.3060
 4692POPC   D2A56826   1.126  18.778   6.429  0.1281  0.0182 -0.1198
 4692POPC   C3A56827   1.028  18.634   5.990 -0.0008 -0.2456  0.0707
 4692POPC   C4A56828   1.085  18.521   5.497  0.1961 -0.0611 -0.0488
 4692POPC   C1B56829   0.859  18.836   6.907  0.2780  0.2316  0.2244
 4692POPC   C2B56830   0.719  19.020   6.478 -0.0734 -0.5917 -0.0942
 4692POPC   C3B56831   0.641  18.978   6.024 -0.1308 -0.0211  0.0745
 4692POPC   C4B56832   0.404  19.108   5.641 -0.3515  0.1944  0.1208
 4693POPC   NC356833  14.606   8.361   8.298  0.0984 -0.1959  0.0120
 4693POPC   PO456834  14.579   8.035   8.136  0.2803 -0.2443 -0.0915
 4693POPC   GL156835  14.637   8.215   7.718  0.1599 -0.0746  0.0415
 4693POPC   GL256836  14.369   8.129   7.662  0.4912 -0.3835  0.0870
 4693POPC   C1A56837  14.635   8.412   7.328 -0.0835 -0.1967  0.2823
 4693POPC   D2A56838  14.597   8.546   6.845 -0.2757  0.0759  0.2644
 4693POPC   C3A56839  14.420   8.425   6.417  0.0448  0.0687  0.1063
 4693POPC   C4A56840  14.648   8.278   6.040  0.0361  0.2565  0.1228
 4693POPC   C1B56841  14.631   7.822   7.392 -0.0317 -0.1036  0.2207
 4693POPC   C2B56842  14.998   7.787   7.123  0.0179  0.0448 -0.0035
 4693POPC   C3B56843  15.205   7.915   6.774  0.0883  0.3824 -0.0446
 4693POPC   C4B56844  15.047   8.017   6.423 -0.1657 -0.2649  0.0460
 4694POPC   NC356845   8.853  13.269   8.059 -0.0232  0.0741 -0.0816
 4694POPC   PO456846   9.210  13.427   8.161  0.0495 -0.1294 -0.3685
 4694POPC   GL156847   9.267  13.578   7.786  0.0847 -0.2102  0.0283
 4694POPC   GL256848   9.539  13.657   7.742 -0.3761 -0.0486  0.1346
 4694POPC   C1A56849   9.181  13.624   7.329 -0.2091 -0.0282 -0.0726
 4694POPC   D2A56850   9.046  13.433   6.890 -0.4235 -0.2115 -0.0997
 4694POPC   C3A56851   9.152  12.968   6.838 -0.3463 -0.2673 -0.1110
 4694POPC   C4A56852   9.572  12.725   6.651  0.0405 -0.1863 -0.3357
 4694POPC   C1B56853   9.769  13.632   7.347 -0.3333  0.0400 -0.0545
 4694POPC   C2B56854   9.906  13.730   6.982  0.0365 -0.2781  0.0385
 4694POPC   C3B56855  10.021  13.541   6.571  0.5383 -0.0345 -0.2330
 4694POPC   C4B56856   9.986  13.272   6.198  0.0970 -0.1380  0.2026
 4695POPC   NC356857  23.001  29.017   8.104  0.3496  0.1703  0.0369
 4695POPC   PO456858  22.689  28.795   7.939  0.0849 -0.0273 -0.2145
 4695POPC   GL156859  22.611  28.810   7.592 -0.2386  0.2023  0.0972
 4695POPC   GL256860  22.381  28.739   7.464  0.0703 -0.1806  0.2268
 4695POPC   C1A56861  22.988  28.830   7.306  0.1302  0.0208  0.3256
 4695POPC   D2A56862  23.394  29.004   7.221  0.1529 -0.2082  0.0222
 4695POPC   C3A56863  23.490  28.989   6.805 -0.2523 -0.0609  0.0190
 4695POPC   C4A56864  23.611  29.096   6.367 -0.2933 -0.3532 -0.2809
 4695POPC   C1B56865  22.542  28.994   7.089 -0.2253 -0.2766  0.0770
 4695POPC   C2B56866  22.490  29.314   6.674 -0.1500  0.0392 -0.3171
 4695POPC   C3B56867  22.467  29.651   6.375  0.0928 -0.2570  0.0384
 4695POPC   C4B56868  22.622  29.726   5.964 -0.1085  0.0007  0.2755
 4696POPC   NC356869   6.291  13.133   7.748  0.1527  0.0653  0.0486
 4696POPC   PO456870   6.233  13.156   7.381 -0.1159 -0.3616 -0.1206
 4696POPC   GL156871   6.317  13.296   7.126 -0.0159 -0.0446  0.0061
 4696POPC   GL256872   6.271  13.189   6.834  0.1606  0.0393 -0.2240
 4696POPC   C1A56873   6.587  13.595   6.901 -0.1308  0.2346  0.0780
 4696POPC   D2A56874   6.793  13.616   6.501  0.0168  0.2434  0.1685
 4696POPC   C3A56875   6.767  14.043   6.308 -0.1624  0.0397 -0.0138
 4696POPC   C4A56876   7.060  14.297   5.992 -0.0401  0.2782  0.1543
 4696POPC   C1B56877   6.306  13.430   6.437 -0.4072 -0.3048 -0.2613
 4696POPC   C2B56878   6.201  13.498   6.016 -0.2856  0.0261 -0.3873
 4696POPC   C3B56879   6.087  13.827   5.687 -0.1950  0.0964 -0.1711
 4696POPC   C4B56880   5.706  14.037   5.511  0.1177 -0.1696  0.2822
 4697POPC   NC356881  28.929  20.456   8.113 -0.0677  0.1194 -0.3997
 4697POPC   PO456882  28.715  20.451   7.765  0.1192  0.0220 -0.0408
 4697POPC   GL156883  28.738  20.321   7.405 -0.1858  0.1777 -0.1621
 4697POPC   GL256884  28.772  20.056   7.500  0.4146  0.2259 -0.2056
 4697POPC   C1A56885  28.494  20.409   7.048 -0.1478 -0.2146  0.0760
 4697POPC   D2A56886  28.449  20.538   6.628  0.1202  0.1981  0.3924
 4697POPC   C3A56887  28.147  20.397   6.341 -0.0668  0.0168 -0.1648
 4697POPC   C4A56888  28.022  20.570   5.952  0.1278  0.0489  0.0273
 4697POPC   C1B56889  28.703  19.927   7.084  0.0658 -0.2805 -0.1441
 4697POPC   C2B56890  28.605  19.754   6.673  0.3538 -0.2241  0.1610
 4697POPC   C3B56891  28.771  19.407   6.356 -0.1228 -0.1636 -0.1901
 4697POPC   C4B56892  28.838  19.058   6.104 -0.1271 -0.2056  0.0494
 4698POPC   NC356893   6.099  27.419   8.239 -0.0196  0.1989 -0.1565
 4698POPC   PO456894   5.839  27.127   8.275  0.0774 -0.2866 -0.0168
 4698POPC   GL156895   6.006  27.023   7.964  0.3182 -0.0905 -0.3307
 4698POPC   GL256896   5.782  27.056   7.779  0.1865 -0.1276 -0.0312
 4698POPC   C1A56897   6.328  26.960   7.636  0.0181  0.0147 -0.0073
 4698POPC   D2A56898   6.504  27.130   7.279  0.0859 -0.2708 -0.0726
 4698POPC   C3A56899   6.860  27.262   7.013  0.5147  0.3550  0.1628
 4698POPC   C4A56900   6.888  27.500   6.644 -0.1876  0.1015  0.0259
 4698POPC   C1B56901   5.927  27.171   7.373 -0.1202 -0.0169 -0.0473
 4698POPC   C2B56902   6.029  27.409   6.983  0.2836  0.0782  0.1504
 4698POPC   C3B56903   6.019  27.279   6.565 -0.0785  0.0497 -0.0701
 4698POPC   C4B56904   6.157  26.944   6.280 -0.0222 -0.0025  0.1466
 4699POPC   NC356905  23.069   9.840   7.397 -0.1164 -0.1996  0.0429
 4699POPC   PO456906  22.677   9.895   7.456  0.0975 -0.2957  0.2596
 4699POPC   GL156907  22.479   9.634   7.275  0.4011 -0.1129  0.0814
 4699POPC   GL256908  22.538   9.762   7.011  0.2949 -0.3775 -0.1360
 4699POPC   C1A56909  22.381   9.233   7.026  0.1097 -0.0868  0.0045
 4699POPC   D2A56910  22.159   9.140   6.662 -0.1853  0.1246  0.0844
 4699POPC   C3A56911  22.337   9.151   6.260  0.1382 -0.2853 -0.2149
 4699POPC   C4A56912  22.118   9.164   5.859  0.0963  0.1439 -0.1231
 4699POPC   C1B56913  22.590   9.492   6.612 -0.2254  0.3017 -0.1872
 4699POPC   C2B56914  22.742   9.532   6.194 -0.1162  0.0893 -0.1422
 4699POPC   C3B56915  22.786   9.411   5.782 -0.1811 -0.0094  0.0317
 4699POPC   C4B56916  22.589   9.316   5.402 -0.0468 -0.1059 -0.2948
 4700POPC   NC356917   7.113  22.620   8.134  0.2998  0.0218  0.1149
 4700POPC   PO456918   7.182  22.953   7.923  0.2247  0.0095  0.0974
 4700POPC   GL156919   7.057  23.065   7.577 -0.0745  0.0009 -0.3156
 4700POPC   GL256920   7.208  22.961   7.372 -0.0784  0.1015  0.0278
 4700POPC   C1A56921   6.811  23.292   7.245 -0.2327 -0.2586 -0.2631
 4700POPC   D2A56922   6.983  23.576   6.938 -0.0474 -0.0308  0.1644
 4700POPC   C3A56923   6.748  23.451   6.499  0.1329 -0.1456 -0.2809
 4700POPC   C4A56924   7.057  23.515   6.095 -0.0687 -0.2674 -0.0126
 4700POPC   C1B56925   7.285  23.179   6.997 -0.5355 -0.0533 -0.0674
 4700POPC   C2B56926   7.276  23.325   6.558  0.0953  0.1678 -0.1831
 4700POPC   C3B56927   7.558  23.287   6.200  0.2760  0.0910  0.0425
 4700POPC   C4B56928   7.876  23.432   5.905 -0.0289  0.0594 -0.2147
 4701POPC   NC356929  13.662   5.125   7.345 -0.2422  0.1930  0.1731
 4701POPC   PO456930  13.759   4.772   7.420  0.0362  0.0537 -0.2370
 4701POPC   GL156931  13.887   4.802   6.974  0.0134 -0.0481  0.0744
 4701POPC   GL256932  13.592   4.903   6.900 -0.3123 -0.1844  0.0285
 4701POPC   C1A56933  14.233   4.981   6.700 -0.0157 -0.0322 -0.0377
 4701POPC   D2A56934  14.157   5.052   6.233  0.1201 -0.2414 -0.3246
 4701POPC   C3A56935  14.071   5.356   5.917 -0.0526 -0.1843  0.3437
 4701POPC   C4A56936  13.699   5.530   5.658  0.1038 -0.0809  0.0514
 4701POPC   C1B56937  13.736   4.878   6.472 -0.2082  0.1661 -0.2363
 4701POPC   C2B56938  13.819   4.693   6.069  0.2940  0.0925  0.0278
 4701POPC   C3B56939  13.664   4.417   5.747  0.1594  0.1491 -0.0567
 4701POPC   C4B56940  13.619   4.216   5.334  0.0356  0.2443 -0.2730
 4702POPC   NC356941   0.081   5.416   8.010  0.1040 -0.1284  0.2213
 4702POPC   PO456942   0.202   5.473   7.682 -0.0236  0.1381 -0.1514
 4702POPC   GL156943   0.242   5.693   7.405  0.0835 -0.1501 -0.0879
 4702POPC   GL256944   0.273   5.990   7.372  0.0700 -0.0070  0.0692
 4702POPC   C1A56945   0.115   5.650   6.961 -0.1060 -0.0003 -0.0703
 4702POPC   D2A56946   0.145   5.606   6.480  0.1540 -0.3233 -0.2210
 4702POPC   C3A56947  -0.096   5.948   6.281 -0.0851  0.1378  0.3532
 4702POPC   C4A56948  -0.340   6.094   5.919  0.0838 -0.5142 -0.2321
 4702POPC   C1B56949   0.528   5.906   7.039 -0.0568 -0.1223  0.1358
 4702POPC   C2B56950   0.772   5.912   6.663 -0.1401  0.2060 -0.1139
 4702POPC   C3B56951   0.561   5.852   6.238  0.3287  0.2028 -0.2402
 4702POPC   C4B56952   0.268   6.045   5.946 -0.0841 -0.0009 -0.3581
 4703POPC   NC356953   1.005  13.083   8.246 -0.0237  0.1523  0.1186
 4703POPC   PO456954   0.761  13.130   7.970 -0.3319  0.0019  0.0310
 4703POPC   GL156955   0.657  12.769   7.672 -0.0888 -0.2414  0.0294
 4703POPC   GL256956   0.435  12.869   7.543 -0.1003  0.2581 -0.2687
 4703POPC   C1A56957   0.622  12.482   7.313 -0.0430  0.2410 -0.1164
 4703POPC   D2A56958   0.814  12.125   7.074  0.1023  0.1942  0.2782
 4703POPC   C3A56959   0.754  12.252   6.588  0.5164  0.1092  0.4522
 4703POPC   C4A56960   0.772  12.517   6.199  0.0270  0.0179 -0.0515
 4703POPC   C1B56961   0.665  12.973   7.171 -0.1015  0.0366  0.0983
 4703POPC   C2B56962   0.998  13.102   6.855  0.0791 -0.1446 -0.2321
 4703POPC   C3B56963   1.320  13.165   6.508  0.0200 -0.1255 -0.1816
 4703POPC   C4B56964   1.663  12.896   6.381 -0.0855  0.0348 -0.4598
 4704POPC   NC356965  10.686  15.694   7.744  0.1950 -0.0915  0.0346
 4704POPC   PO456966  10.819  16.077   7.587 -0.1701 -0.3090 -0.1521
 4704POPC   GL156967  10.973  16.057   7.269  0.0114  0.1662  0.3169
 4704POPC   GL256968  11.158  16.242   7.213 -0.1061 -0.1273 -0.0303
 4704POPC   C1A56969  10.793  16.090   6.847 -0.2566 -0.1541 -0.1467
 4704POPC   D2A56970  10.613  16.199   6.477 -0.2634 -0.2095 -0.0370
 4704POPC   C3A56971  10.848  15.942   6.142  0.1335 -0.0425 -0.0784
 4704POPC   C4A56972  11.231  15.799   6.007 -0.0102  0.2104 -0.0166
 4704POPC   C1B56973  11.310  16.330   6.791 -0.0809 -0.0545  0.1979
 4704POPC   C2B56974  11.506  16.647   6.524 -0.0690  0.2090 -0.0201
 4704POPC   C3B56975  11.607  16.863   6.195  0.1238 -0.2509 -0.1691
 4704POPC   C4B56976  11.782  17.276   6.130  0.1755  0.0931  0.3842
 4705POPC   NC356977  22.125  13.274   7.452 -0.0750 -0.0577 -0.0758
 4705POPC   PO456978  22.467  13.104   7.610 -0.1922  0.1885 -0.0655
 4705POPC   GL156979  22.443  13.040   7.279 -0.0337 -0.1320 -0.0338
 4705POPC   GL256980  22.152  12.829   7.287 -0.0140  0.1274  0.4025
 4705POPC   C1A56981  22.217  13.193   6.891 -0.1976 -0.0234 -0.0675
 4705POPC   D2A56982  22.176  13.196   6.447  0.0605 -0.0966 -0.0166
 4705POPC   C3A56983  22.214  12.933   6.116  0.1157 -0.1420  0.0183
 4705POPC   C4A56984  22.495  12.650   5.866 -0.2023 -0.0121 -0.1680
 4705POPC   C1B56985  22.035  12.739   6.807 -0.0438  0.3386 -0.2861
 4705POPC   C2B56986  21.838  12.757   6.367 -0.1631 -0.2451  0.1534
 4705POPC   C3B56987  21.451  12.971   6.241  0.0308  0.1431 -0.0909
 4705POPC   C4B56988  21.313  13.086   5.840  0.1509 -0.1784 -0.1614
 4706POPC   NC356989  28.580  13.409   7.355 -0.3079  0.3240  0.1358
 4706POPC   PO456990  28.449  13.141   7.642  0.0153 -0.1095 -0.2165
 4706POPC   GL156991  28.400  12.980   7.395  0.1272  0.1101 -0.2242
 4706POPC   GL256992  28.657  12.874   7.246 -0.0532  0.0878  0.2114
 4706POPC   C1A56993  28.088  12.751   7.209 -0.0641  0.0456  0.2345
 4706POPC   D2A56994  27.782  12.806   6.869  0.0861  0.1681  0.0787
 4706POPC   C3A56995  27.953  12.888   6.479 -0.1587  0.0211 -0.1404
 4706POPC   C4A56996  28.138  13.282   6.270 -0.1752  0.1584 -0.0688
 4706POPC   C1B56997  28.414  12.730   6.850 -0.1800 -0.0311  0.4330
 4706POPC   C2B56998  28.463  12.838   6.374 -0.4016  0.3348 -0.0207
 4706POPC   C3B56999  28.725  12.624   6.018 -0.2463  0.2869 -0.0828
 4706POPC   C4B57000  28.729  12.227   5.787  0.4220 -0.1209 -0.3795
 4707POPC   NC357001  17.254  19.786   7.733  0.0288  0.3627  0.1764
 4707POPC   PO457002  17.599  19.602   7.693  0.2358  0.0015  0.0564
 4707POPC   GL157003  17.492  19.371   7.399  0.4946  0.2969  0.7191
 4707POPC   GL257004  17.292  19.098   7.511  0.1898  0.1856 -0.2385
 4707POPC   C1A57005  17.188  19.301   7.060 -0.1260 -0.3339 -0.0762
 4707POPC   D2A57006  17.018  19.076   6.750  0.1419 -0.0312 -0.1977
 4707POPC   C3A57007  16.538  19.004   6.660 -0.2612  0.1522  0.0093
 4707POPC   C4A57008  16.301  18.693   6.332  0.1454  0.0690 -0.0479
 4707POPC   C1B57009  17.008  18.798   7.241 -0.0426 -0.3208 -0.0170
 4707POPC   C2B57010  16.826  18.619   6.857  0.0238  0.1993  0.1105
 4707POPC   C3B57011  16.819  18.625   6.405  0.2605 -0.2199 -0.0427
 4707POPC   C4B57012  16.795  18.814   6.005  0.2063  0.0339  0.4332
 4708POPC   NC357013   7.501   5.364   7.580  0.1033  0.0666  0.0091
 4708POPC   PO457014   7.431   5.015   7.729  0.2708 -0.1660 -0.1606
 4708POPC   GL157015   7.518   4.942   7.257 -0.2390 -0.2579  0.2203
 4708POPC   GL257016   7.846   5.058   7.287  0.0580  0.0740  0.2611
 4708POPC   C1A57017   7.503   5.089   6.835 -0.1738  0.0666 -0.0211
 4708POPC   D2A57018   7.433   5.308   6.460 -0.1009  0.0791 -0.0291
 4708POPC   C3A57019   6.986   5.274   6.242 -0.2956  0.1249 -0.1141
 4708POPC   C4A57020   6.638   5.565   6.040 -0.2365  0.4346 -0.1656
 4708POPC   C1B57021   7.783   4.684   7.016 -0.0098  0.1357  0.0585
 4708POPC   C2B57022   7.736   4.752   6.516 -0.3215  0.2241  0.2100
 4708POPC   C3B57023   7.606   4.983   6.145  0.0762 -0.0507 -0.2781
 4708POPC   C4B57024   7.625   5.117   5.690 -0.0586  0.1458 -0.0532
 4709POPC   NC357025   2.491  19.815   7.495  0.0047 -0.0466  0.2078
 4709POPC   PO457026   2.807  20.003   7.386 -0.0148  0.1720  0.1331
 4709POPC   GL157027   2.690  20.114   7.133  0.0216 -0.0178  0.2281
 4709POPC   GL257028   2.617  19.897   6.961 -0.2870  0.0597 -0.0735
 4709POPC   C1A57029   2.762  20.381   6.740 -0.3420  0.1454  0.2755
 4709POPC   D2A57030   2.781  20.600   6.361 -0.1777  0.0609  0.0779
 4709POPC   C3A57031   2.649  20.408   5.942  0.0730 -0.0942  0.2953
 4709POPC   C4A57032   2.223  20.380   5.729  0.1571 -0.2301  0.1375
 4709POPC   C1B57033   2.543  19.987   6.504 -0.3124  0.2234 -0.2172
 4709POPC   C2B57034   2.424  20.003   6.100  0.1017  0.2097  0.4123
 4709POPC   C3B57035   2.406  19.670   5.782 -0.0204 -0.1112 -0.0987
 4709POPC   C4B57036   2.310  19.227   5.712  0.0984 -0.1071 -0.0607
 4710POPC   NC357037   8.609  17.466   7.809 -0.2849 -0.2004 -0.0360
 4710POPC   PO457038   8.977  17.376   7.822 -0.3148  0.0119 -0.1668
 4710POPC   GL157039   8.829  17.294   7.393 -0.0761  0.3961 -0.3569
 4710POPC   GL257040   8.559  17.334   7.296 -0.2657 -0.2066  0.1696
 4710POPC   C1A57041   9.075  17.303   7.023 -0.2663  0.0604 -0.2293
 4710POPC   D2A57042   9.011  17.438   6.612  0.2452  0.2089  0.3922
 4710POPC   C3A57043   9.371  17.387   6.273  0.4202 -0.0986 -0.1413
 4710POPC   C4A57044   9.857  17.439   6.301 -0.2563  0.4432 -0.2736
 4710POPC   C1B57045   8.595  17.233   6.898  0.0434 -0.0544 -0.1217
 4710POPC   C2B57046   8.357  17.189   6.489 -0.0728  0.1856 -0.2171
 4710POPC   C3B57047   8.272  16.838   6.139  0.1188 -0.1679 -0.4117
 4710POPC   C4B57048   8.520  16.467   6.026 -0.2048  0.0609 -0.1097
 4711POPC   NC357049  22.300  26.780   7.873 -0.2983  0.0001 -0.1709
 4711POPC   PO457050  22.044  27.064   7.827 -0.1669 -0.0304 -0.3134
 4711POPC   GL157051  21.832  26.905   7.559  0.0753  0.1668 -0.1166
 4711POPC   GL257052  21.706  26.632   7.475 -0.0610  0.0531  0.1478
 4711POPC   C1A57053  21.946  27.021   7.124  0.2340 -0.0489  0.0292
 4711POPC   D2A57054  21.898  26.893   6.668 -0.2623  0.2081 -0.1021
 4711POPC   C3A57055  22.114  27.121   6.332  0.0479  0.0954  0.1808
 4711POPC   C4A57056  22.396  27.411   6.078  0.1605  0.1461  0.1442
 4711POPC   C1B57057  21.384  26.486   7.271 -0.0500 -0.0824  0.0508
 4711POPC   C2B57058  21.225  26.260   6.849 -0.2298 -0.0127 -0.0012
 4711POPC   C3B57059  20.975  26.067   6.534 -0.0812 -0.0815 -0.1977
 4711POPC   C4B57060  20.748  25.891   6.229 -0.0102  0.0448 -0.0629
 4712POPC   NC357061  23.843   8.222   7.561 -0.2780 -0.0926  0.3509
 4712POPC   PO457062  23.856   8.589   7.624  0.3245  0.0283 -0.2486
 4712POPC   GL157063  23.809   8.584   7.257  0.3173 -0.3330  0.0339
 4712POPC   GL257064  23.728   8.293   7.080 -0.1474  0.1233  0.1481
 4712POPC   C1A57065  23.752   8.812   6.890  0.1674 -0.0473  0.3110
 4712POPC   D2A57066  23.944   8.766   6.454  0.0676  0.4450 -0.0010
 4712POPC   C3A57067  24.352   8.475   6.363 -0.0109 -0.0545 -0.1952
 4712POPC   C4A57068  24.635   8.448   6.031 -0.0684 -0.1028 -0.0770
 4712POPC   C1B57069  23.484   8.370   6.655 -0.1377 -0.1644  0.0408
 4712POPC   C2B57070  23.115   8.287   6.353  0.3598 -0.0232  0.2770
 4712POPC   C3B57071  22.915   8.320   5.893 -0.2816  0.1667  0.0440
 4712POPC   C4B57072  22.941   8.454   5.508 -0.2151 -0.4050 -0.3457
 4713POPC   NC357073  13.662  15.825   7.989 -0.0124 -0.2567 -0.0449
 4713POPC   PO457074  13.499  16.117   7.797  0.1332 -0.4842  0.0849
 4713POPC   GL157075  13.539  16.005   7.350  0.3404  0.1013  0.1007
 4713POPC   GL257076  13.277  15.958   7.261  0.2116 -0.1505 -0.2379
 4713POPC   C1A57077  13.600  15.635   7.064  0.2627  0.1092 -0.0427
 4713POPC   D2A57078  13.581  15.208   6.979 -0.0075  0.0648 -0.1693
 4713POPC   C3A57079  13.801  14.949   6.613  0.0885  0.0328  0.1055
 4713POPC   C4A57080  14.096  14.608   6.588 -0.0283  0.0175 -0.0222
 4713POPC   C1B57081  13.323  16.024   6.756 -0.2708  0.1403  0.2646
 4713POPC   C2B57082  13.319  16.031   6.330 -0.3156 -0.0035  0.0020
 4713POPC   C3B57083  13.352  15.725   5.994 -0.1564  0.0956 -0.1582
 4713POPC   C4B57084  13.375  15.561   5.583 -0.0523 -0.0572  0.0251
 4714POPC   NC357085  26.047  22.829   7.859  0.0390  0.1155  0.0709
 4714POPC   PO457086  25.901  23.153   8.060  0.2125 -0.0933  0.2139
 4714POPC   GL157087  26.091  23.263   7.783  0.4296  0.1767  0.1665
 4714POPC   GL257088  26.271  23.417   7.831 -0.0799 -0.2757  0.0597
 4714POPC   C1A57089  26.275  23.057   7.415  0.1624  0.2070  0.2578
 4714POPC   D2A57090  26.253  22.799   7.028 -0.1846 -0.1463  0.0373
 4714POPC   C3A57091  26.430  22.400   7.007 -0.0026  0.0210 -0.1799
 4714POPC   C4A57092  26.645  22.234   7.414  0.0278  0.1501 -0.0104
 4714POPC   C1B57093  26.570  23.495   7.448  0.2496  0.2035  0.2694
 4714POPC   C2B57094  26.689  23.254   7.026  0.1228 -0.0235 -0.0428
 4714POPC   C3B57095  26.666  23.243   6.561  0.1486  0.1080 -0.0265
 4714POPC   C4B57096  26.744  23.145   6.112 -0.1721  0.1719 -0.0246
 4715POPC   NC357097  23.044  31.060   7.706 -0.2379 -0.0073 -0.0596
 4715POPC   PO457098  23.178  30.686   7.586 -0.0224  0.1404  0.1440
 4715POPC   GL157099  22.975  30.733   7.322 -0.0223 -0.3816  0.1735
 4715POPC   GL257100  22.706  30.760   7.277  0.3902 -0.0675 -0.2958
 4715POPC   C1A57101  23.087  30.948   6.901  0.2522  0.1574 -0.0220
 4715POPC   D2A57102  22.901  30.776   6.466  0.0764 -0.3195 -0.0376
 4715POPC   C3A57103  22.947  30.686   6.012  0.3016 -0.1232  0.3904
 4715POPC   C4A57104  23.341  30.722   5.749 -0.0750 -0.0725 -0.0199
 4715POPC   C1B57105  22.634  30.657   6.817 -0.0121  0.1684  0.0279
 4715POPC   C2B57106  22.452  30.451   6.463 -0.1989  0.0380  0.2740
 4715POPC   C3B57107  22.341  30.464   5.983  0.2200  0.2250 -0.0048
 4715POPC   C4B57108  22.308  30.174   5.630  0.0845  0.1934 -0.3760
 4716POPC   NC357109  15.073  23.485   7.993  0.0893  0.5463 -0.0926
 4716POPC   PO457110  15.286  23.265   7.750 -0.2235 -0.0114  0.2328
 4716POPC   GL157111  15.102  23.598   7.512 -0.0598  0.0928 -0.1284
 4716POPC   GL257112  15.230  23.559   7.217  0.0017 -0.0981 -0.1566
 4716POPC   C1A57113  14.814  23.942   7.433  0.1353  0.1926  0.0270
 4716POPC   D2A57114  14.537  24.094   7.105  0.4197 -0.0607 -0.0961
 4716POPC   C3A57115  14.388  23.781   6.848  0.2640 -0.1875 -0.1129
 4716POPC   C4A57116  14.285  23.319   6.866 -0.4283 -0.1537 -0.0891
 4716POPC   C1B57117  15.377  23.429   6.775  0.1311  0.1561 -0.0776
 4716POPC   C2B57118  15.638  23.635   6.409  0.0605  0.0324  0.5046
 4716POPC   C3B57119  15.750  23.882   6.013 -0.1397 -0.1460 -0.2066
 4716POPC   C4B57120  15.985  24.030   5.652  0.0657  0.4278 -0.2451
 4717POPC   NC357121  10.431  27.298   7.448  0.0691 -0.1222  0.1416
 4717POPC   PO457122  10.102  27.327   7.642  0.1071 -0.0705  0.1678
 4717POPC   GL157123  10.163  27.676   7.393  0.3178  0.3447  0.2262
 4717POPC   GL257124   9.964  27.536   7.172  0.0422  0.0733  0.1000
 4717POPC   C1A57125  10.428  27.629   7.034 -0.1936 -0.0709  0.1487
 4717POPC   D2A57126  10.685  27.415   6.658 -0.1407 -0.1791 -0.1271
 4717POPC   C3A57127  10.922  27.702   6.425 -0.0941  0.0333 -0.1029
 4717POPC   C4A57128  11.189  27.810   6.116 -0.1721 -0.0595  0.2442
 4717POPC   C1B57129   9.819  27.806   6.882 -0.1333  0.1244 -0.4378
 4717POPC   C2B57130   9.717  28.044   6.527  0.1692  0.1677  0.2397
 4717POPC   C3B57131   9.476  28.157   6.128 -0.1201 -0.1463  0.0725
 4717POPC   C4B57132   9.074  28.234   5.946 -0.1944 -0.1148 -0.0565
 4718POPC   NC357133   8.349  12.670   7.925  0.2118  0.1811 -0.1634
 4718POPC   PO457134   7.990  12.520   7.823 -0.1095  0.0021  0.2503
 4718POPC   GL157135   8.066  12.390   7.508  0.0450  0.0532  0.0680
 4718POPC   GL257136   8.228  12.621   7.329  0.0319 -0.1848 -0.2038
 4718POPC   C1A57137   8.116  12.128   7.131 -0.0608 -0.0578  0.1932
 4718POPC   D2A57138   7.897  11.802   6.950  0.1449  0.1643  0.0174
 4718POPC   C3A57139   8.064  11.720   6.541 -0.0849 -0.1523  0.3751
 4718POPC   C4A57140   8.078  11.757   6.113 -0.0860 -0.0477  0.0044
 4718POPC   C1B57141   8.155  12.769   6.900  0.3132  0.0788  0.1717
 4718POPC   C2B57142   8.360  12.718   6.534  0.4237  0.2285 -0.1358
 4718POPC   C3B57143   8.767  12.680   6.397  0.2531  0.2188  0.1514
 4718POPC   C4B57144   9.168  12.897   6.340 -0.0024  0.0584  0.0595
 4719POPC   NC357145   8.015  19.118   7.386  0.0498 -0.0162 -0.1812
 4719POPC   PO457146   7.655  18.950   7.343  0.0499  0.1248 -0.3466
 4719POPC   GL157147   7.574  18.823   6.968 -0.3360 -0.3223 -0.1778
 4719POPC   GL257148   7.325  18.661   6.961 -0.0325 -0.1445  0.2119
 4719POPC   C1A57149   7.443  19.096   6.619 -0.1138 -0.2331 -0.0800
 4719POPC   D2A57150   7.327  19.277   6.192  0.2000  0.3332  0.2398
 4719POPC   C3A57151   7.590  19.326   5.819  0.0152  0.0775 -0.0587
 4719POPC   C4A57152   7.914  19.173   5.553 -0.0355 -0.0532 -0.0078
 4719POPC   C1B57153   7.336  18.443   6.541  0.0926  0.0727  0.1201
 4719POPC   C2B57154   7.238  18.233   6.093  0.0435 -0.4866  0.0785
 4719POPC   C3B57155   7.180  18.137   5.613  0.1526  0.3114 -0.0923
 4719POPC   C4B57156   7.173  17.779   5.271  0.2692 -0.0536  0.1500
 4720POPC   NC357157  22.220  24.936   7.444  0.2743 -0.1090 -0.1847
 4720POPC   PO457158  22.404  25.303   7.567 -0.0068 -0.0047  0.0696
 4720POPC   GL157159  22.664  25.205   7.233 -0.0144  0.1218 -0.1540
 4720POPC   GL257160  22.652  24.920   7.174  0.3079  0.0520 -0.0027
 4720POPC   C1A57161  22.582  25.255   6.780 -0.0697 -0.2688 -0.0273
 4720POPC   D2A57162  22.596  25.285   6.334 -0.0745 -0.1438 -0.2659
 4720POPC   C3A57163  22.665  25.358   5.911  0.0744  0.3034  0.1887
 4720POPC   C4A57164  22.593  25.497   5.474 -0.2015 -0.0960  0.0274
 4720POPC   C1B57165  22.474  24.757   6.774 -0.0542 -0.2392 -0.0945
 4720POPC   C2B57166  22.654  24.766   6.388  0.0878 -0.0734  0.0200
 4720POPC   C3B57167  22.920  24.986   6.128 -0.1125  0.1605  0.0960
 4720POPC   C4B57168  23.115  25.101   5.730 -0.1786  0.2450 -0.1563
 4721POPC   NC357169  11.487  16.525   7.412  0.1022 -0.1317  0.1754
 4721POPC   PO457170  11.779  16.734   7.531  0.0465  0.0557 -0.2089
 4721POPC   GL157171  11.848  16.918   7.186  0.3171  0.2916  0.2174
 4721POPC   GL257172  11.626  17.010   7.081 -0.0865  0.2012 -0.2229
 4721POPC   C1A57173  11.886  16.713   6.771 -0.0018  0.1044 -0.1938
 4721POPC   D2A57174  12.049  16.445   6.437  0.3107  0.4466  0.2265
 4721POPC   C3A57175  11.766  16.341   6.147  0.3373  0.3988 -0.0414
 4721POPC   C4A57176  11.479  16.495   5.860  0.1978 -0.0675  0.1150
 4721POPC   C1B57177  11.437  17.162   6.664  0.4522 -0.2643  0.0052
 4721POPC   C2B57178  11.359  17.508   6.338  0.0722 -0.1598  0.0818
 4721POPC   C3B57179  11.452  17.531   5.832  0.2822  0.2117  0.1049
 4721POPC   C4B57180  11.587  17.496   5.405  0.1903  0.1722 -0.3277
 4722POPC   NC357181  30.290  22.913   7.594 -0.1216 -0.0808  0.2094
 4722POPC   PO457182  30.171  23.284   7.498 -0.0667 -0.1243 -0.1963
 4722POPC   GL157183  30.243  23.417   7.097  0.0274 -0.2761 -0.1772
 4722POPC   GL257184  30.372  23.651   6.988 -0.0747 -0.0878  0.1741
 4722POPC   C1A57185  30.482  23.163   6.801 -0.0166  0.1589  0.2051
 4722POPC   D2A57186  30.862  22.971   6.604 -0.0301 -0.0126 -0.1025
 4722POPC   C3A57187  31.094  22.648   6.427 -0.0844 -0.1745  0.1155
 4722POPC   C4A57188  31.298  22.733   6.056  0.2283  0.3111 -0.0182
 4722POPC   C1B57189  30.059  23.615   6.653 -0.3296  0.0816 -0.0864
 4722POPC   C2B57190  29.696  23.437   6.401  0.1671  0.1330 -0.0693
 4722POPC   C3B57191  29.532  22.974   6.438 -0.1432  0.0554 -0.0988
 4722POPC   C4B57192  29.186  22.803   6.677 -0.0173 -0.0425 -0.2868
 4723POPC   NC357193   0.540  19.997   7.848  0.2144  0.2974  0.0327
 4723POPC   PO457194   0.898  19.892   7.988 -0.0085  0.1208 -0.0105
 4723POPC   GL157195   0.945  19.697   7.583  0.0809  0.0233  0.0417
 4723POPC   GL257196   0.663  19.745   7.453 -0.1911 -0.0499 -0.0711
 4723POPC   C1A57197   1.263  19.461   7.275 -0.2187  0.0587 -0.0422
 4723POPC   D2A57198   1.653  19.474   7.078 -0.0923 -0.1657 -0.1982
 4723POPC   C3A57199   1.624  19.488   6.630  0.1168 -0.1666 -0.0485
 4723POPC   C4A57200   1.623  19.386   6.161 -0.2398  0.3293  0.0125
 4723POPC   C1B57201   0.230  19.802   7.374 -0.0438 -0.0208 -0.3371
 4723POPC   C2B57202  -0.206  19.720   7.203  0.1449  0.3114  0.1705
 4723POPC   C3B57203  -0.601  19.863   7.425  0.3779 -0.2093  0.3089
 4723POPC   C4B57204  -0.938  19.920   7.681  0.3778 -0.2752  0.1555
 4724POPC   NC357205  16.406   2.996   8.014  0.1500  0.2187 -0.0452
 4724POPC   PO457206  16.326   2.582   7.993 -0.3259 -0.2708 -0.0705
 4724POPC   GL157207  16.045   2.402   7.710  0.0107  0.0847  0.1247
 4724POPC   GL257208  16.249   2.214   7.691  0.3186 -0.0956  0.3593
 4724POPC   C1A57209  15.953   2.339   7.260  0.0568  0.2979  0.0194
 4724POPC   D2A57210  16.021   2.101   6.857 -0.1096  0.0001  0.2176
 4724POPC   C3A57211  16.012   2.352   6.449 -0.1976 -0.1500  0.0189
 4724POPC   C4A57212  16.353   2.553   6.243  0.1713 -0.2596  0.3071
 4724POPC   C1B57213  16.338   1.980   7.322  0.1899 -0.2602  0.0049
 4724POPC   C2B57214  16.604   2.023   6.983  0.2014 -0.0911  0.2826
 4724POPC   C3B57215  16.435   2.007   6.547  0.0958  0.0584  0.0812
 4724POPC   C4B57216  16.379   2.082   6.140 -0.1219  0.0045  0.2374
 4725POPC   NC357217   3.700  27.287   7.504  0.1066  0.1973 -0.0382
 4725POPC   PO457218   3.652  27.107   7.821  0.3095 -0.0855 -0.2241
 4725POPC   GL157219   3.670  26.826   7.467  0.0549 -0.2958 -0.0462
 4725POPC   GL257220   3.389  26.888   7.394  0.1902 -0.0975  0.0220
 4725POPC   C1A57221   3.756  26.526   7.119  0.0551 -0.1502  0.1444
 4725POPC   D2A57222   3.785  26.578   6.674 -0.1352 -0.0146  0.0013
 4725POPC   C3A57223   3.845  26.591   6.222  0.4537  0.1012  0.4283
 4725POPC   C4A57224   3.926  26.435   5.754  0.0714  0.1645  0.3496
 4725POPC   C1B57225   3.565  27.047   7.034 -0.0949  0.1065 -0.0669
 4725POPC   C2B57226   3.536  27.135   6.597  0.0618  0.0310  0.0193
 4725POPC   C3B57227   3.746  27.077   6.167  0.0851  0.1548  0.2190
 4725POPC   C4B57228   4.028  27.346   5.881  0.3448  0.0468 -0.1375
 4726POPC   NC357229  26.901  20.434   7.649  0.0606 -0.0032  0.0019
 4726POPC   PO457230  26.829  20.009   7.651  0.1448  0.0819 -0.1064
 4726POPC   GL157231  26.746  20.208   7.287 -0.4422  0.0236  0.0426
 4726POPC   GL257232  26.474  20.042   7.249 -0.0203  0.5191 -0.2632
 4726POPC   C1A57233  27.033  20.475   7.062 -0.0994 -0.1692 -0.0584
 4726POPC   D2A57234  26.853  20.649   6.657  0.1878 -0.0837  0.0648
 4726POPC   C3A57235  26.713  21.087   6.685  0.0515  0.2191  0.1369
 4726POPC   C4A57236  26.858  21.482   6.808  0.0198 -0.0769  0.0220
 4726POPC   C1B57237  26.581  20.257   6.837  0.0592  0.0283 -0.1796
 4726POPC   C2B57238  26.475  20.410   6.457  0.0730  0.2304  0.0354
 4726POPC   C3B57239  26.188  20.501   6.107 -0.1409 -0.1273  0.0183
 4726POPC   C4B57240  26.056  20.522   5.639  0.0995 -0.2566  0.0223
 4727POPC   NC357241   9.193  26.920   7.488 -0.0680 -0.0642  0.2888
 4727POPC   PO457242   9.461  26.734   7.697 -0.0849  0.3732  0.2028
 4727POPC   GL157243   9.681  26.786   7.380  0.4980 -0.1241  0.0599
 4727POPC   GL257244   9.951  26.704   7.187  0.0561  0.2585 -0.0028
 4727POPC   C1A57245   9.698  27.075   7.010 -0.1313 -0.1629 -0.1109
 4727POPC   D2A57246   9.697  27.185   6.582  0.4807 -0.1358 -0.3350
 4727POPC   C3A57247   9.425  27.146   6.217 -0.0514 -0.0777  0.0520
 4727POPC   C4A57248   9.422  27.321   5.815  0.2411 -0.1368 -0.2318
 4727POPC   C1B57249   9.849  26.689   6.709  0.3651  0.2028 -0.2299
 4727POPC   C2B57250   9.883  26.905   6.267 -0.2007  0.1583  0.0065
 4727POPC   C3B57251  10.123  27.286   6.062  0.0982 -0.1248 -0.0825
 4727POPC   C4B57252  10.399  27.587   6.252  0.0439  0.2820  0.0522
 4728POPC   NC357253  14.923  21.096   8.298 -0.2758 -0.0274 -0.0515
 4728POPC   PO457254  14.741  20.921   7.955  0.1659  0.0837  0.0683
 4728POPC   GL157255  14.818  21.023   7.538  0.4167  0.1394  0.2743
 4728POPC   GL257256  14.551  21.030   7.479 -0.1233 -0.3210  0.2217
 4728POPC   C1A57257  15.111  20.878   7.218  0.0807  0.1703 -0.2343
 4728POPC   D2A57258  15.109  20.619   6.781  0.0348  0.0769 -0.1553
 4728POPC   C3A57259  15.091  20.716   6.334  0.0297  0.0226 -0.0565
 4728POPC   C4A57260  15.221  20.666   5.880 -0.0585  0.2877 -0.3550
 4728POPC   C1B57261  14.556  20.727   7.120 -0.1038 -0.4650 -0.1225
 4728POPC   C2B57262  14.582  20.722   6.672 -0.0285  0.2004 -0.1487
 4728POPC   C3B57263  14.630  20.665   6.194  0.1173 -0.1087 -0.2965
 4728POPC   C4B57264  14.712  20.547   5.757 -0.0735 -0.0238 -0.0233
 4729POPC   NC357265   3.468  15.928   7.821 -0.0118  0.2938 -0.1886
 4729POPC   PO457266   3.153  15.703   7.794  0.0892 -0.0645  0.1538
 4729POPC   GL157267   3.201  15.529   7.449  0.0639 -0.0682 -0.0380
 4729POPC   GL257268   3.455  15.418   7.349 -0.2024 -0.1778 -0.0508
 4729POPC   C1A57269   3.173  15.558   6.963  0.2557  0.1098  0.1895
 4729POPC   D2A57270   3.128  15.337   6.587 -0.0798 -0.2249 -0.2014
 4729POPC   C3A57271   2.827  15.005   6.666 -0.1064 -0.1349 -0.2609
 4729POPC   C4A57272   2.400  15.022   6.591 -0.0794 -0.3365  0.2678
 4729POPC   C1B57273   3.582  15.253   6.915  0.1365 -0.3058 -0.2249
 4729POPC   C2B57274   3.726  14.807   6.779  0.0997 -0.2748  0.1980
 4729POPC   C3B57275   3.771  14.559   6.443 -0.1042  0.4935  0.0684
 4729POPC   C4B57276   3.842  14.386   6.065 -0.1457  0.1113 -0.0802
 4730POPC   NC357277  26.300  23.005   8.527 -0.2038  0.1057 -0.4434
 4730POPC   PO457278  26.431  23.029   8.185  0.1454 -0.1182 -0.0942
 4730POPC   GL157279  26.500  22.865   7.765  0.1409 -0.0387 -0.1086
 4730POPC   GL257280  26.607  22.633   7.889  0.1136  0.3278  0.3291
 4730POPC   C1A57281  26.257  22.542   7.492  0.1301  0.0525 -0.4112
 4730POPC   D2A57282  26.164  22.100   7.271  0.0438  0.0936 -0.1186
 4730POPC   C3A57283  26.089  21.878   6.913  0.1298  0.1324  0.1090
 4730POPC   C4A57284  26.191  21.842   6.447 -0.1303  0.1745 -0.0446
 4730POPC   C1B57285  26.952  22.487   7.671 -0.0675 -0.0651 -0.0591
 4730POPC   C2B57286  27.131  22.321   7.332  0.0278 -0.1259 -0.1344
 4730POPC   C3B57287  26.951  22.276   6.915 -0.1335 -0.0932 -0.1254
 4730POPC   C4B57288  27.045  21.941   6.556 -0.1469 -0.3645  0.2492
 4731POPC   NC357289  28.040   0.233   7.618  0.2142 -0.1801  0.1195
 4731POPC   PO457290  27.640   0.104   7.483  0.0428 -0.1659  0.1793
 4731POPC   GL157291  27.924  -0.001   7.234  0.2761  0.0278 -0.2408
 4731POPC   GL257292  27.828  -0.226   7.089  0.3889 -0.0485 -0.0340
 4731POPC   C1A57293  28.144   0.278   6.955 -0.2883  0.4219 -0.2044
 4731POPC   D2A57294  28.385   0.271   6.543  0.0167 -0.1648  0.1194
 4731POPC   C3A57295  28.539   0.424   6.186 -0.0046 -0.1097 -0.0348
 4731POPC   C4A57296  28.964   0.275   5.984 -0.3274  0.1086  0.0814
 4731POPC   C1B57297  27.715   0.028   6.722  0.0326 -0.0038  0.3560
 4731POPC   C2B57298  27.653   0.007   6.255  0.1910 -0.2643  0.2333
 4731POPC   C3B57299  27.970   0.156   5.863  0.2328  0.1653  0.0465
 4731POPC   C4B57300  28.192   0.481   5.720  0.0189  0.0735 -0.1129
 4732POPC   NC357301   0.832  30.151   8.008 -0.0350  0.1014  0.1406
 4732POPC   PO457302   0.828  29.902   8.276  0.2033 -0.0398 -0.1274
 4732POPC   GL157303   0.834  29.637   7.983 -0.3180  0.2580 -0.0904
 4732POPC   GL257304   0.711  29.701   7.767  0.6126  0.2175 -0.1477
 4732POPC   C1A57305   0.930  29.247   7.715 -0.0808 -0.0929 -0.3926
 4732POPC   D2A57306   0.706  29.238   7.279 -0.1845 -0.0905  0.0591
 4732POPC   C3A57307   0.545  29.087   6.886 -0.1492 -0.0922  0.0432
 4732POPC   C4A57308   0.277  29.119   6.466 -0.1493  0.0842  0.1064
 4732POPC   C1B57309   0.808  29.748   7.341 -0.0585  0.0624 -0.1406
 4732POPC   C2B57310   0.740  29.631   6.910  0.2305  0.0640 -0.1100
 4732POPC   C3B57311   0.768  29.479   6.447 -0.0585 -0.0999  0.1147
 4732POPC   C4B57312   0.750  29.759   6.089  0.0026 -0.1106  0.2386
 4733POPC   NC357313  30.607   5.787   7.697  0.0155  0.3655 -0.0974
 4733POPC   PO457314  30.236   5.866   7.843 -0.1805  0.0154  0.0832
 4733POPC   GL157315  30.197   5.789   7.486  0.1543  0.2511 -0.1973
 4733POPC   GL257316  30.252   5.465   7.459  0.2065 -0.1772  0.2185
 4733POPC   C1A57317  30.105   5.997   7.080  0.1435 -0.0483 -0.0393
 4733POPC   D2A57318  30.194   6.338   6.777  0.0817 -0.0112  0.3898
 4733POPC   C3A57319  30.529   6.380   6.446  0.1237 -0.1610  0.0879
 4733POPC   C4A57320  30.589   6.585   6.016 -0.0483  0.1577 -0.1280
 4733POPC   C1B57321  30.197   5.343   6.986  0.0197 -0.2928 -0.1333
 4733POPC   C2B57322  30.101   5.247   6.491  0.0543  0.0292 -0.0424
 4733POPC   C3B57323  30.055   5.120   6.035 -0.0566  0.0266  0.0883
 4733POPC   C4B57324  29.872   4.954   5.642 -0.2512  0.2830 -0.0485
 4734POPC   NC357325  18.679  20.611   8.060  0.2217  0.0532 -0.1013
 4734POPC   PO457326  18.900  20.386   7.917 -0.4337  0.1983 -0.2435
 4734POPC   GL157327  19.162  20.306   7.534  0.1782  0.1294 -0.2346
 4734POPC   GL257328  19.173  19.984   7.495  0.1034 -0.2257 -0.3332
 4734POPC   C1A57329  19.034  20.530   7.137 -0.1219  0.1105  0.1453
 4734POPC   D2A57330  19.276  20.790   6.991  0.1328  0.0440 -0.2160
 4734POPC   C3A57331  19.218  20.682   6.547 -0.0202 -0.1501  0.0838
 4734POPC   C4A57332  19.043  20.343   6.217 -0.1091 -0.0177  0.0177
 4734POPC   C1B57333  18.816  20.084   7.131  0.2333 -0.1686 -0.1369
 4734POPC   C2B57334  18.767  20.403   6.729 -0.1399  0.1529 -0.3283
 4734POPC   C3B57335  18.554  20.528   6.348  0.0259 -0.0129  0.1378
 4734POPC   C4B57336  18.211  20.544   6.012 -0.0908  0.1345 -0.1372
 4735POPC   NC357337  19.144  11.917   8.007  0.2503 -0.0840 -0.0592
 4735POPC   PO457338  19.097  11.619   7.787 -0.1569 -0.1720  0.2370
 4735POPC   GL157339  18.814  11.646   7.536 -0.1688  0.0310  0.0228
 4735POPC   GL257340  18.575  11.637   7.727  0.0265 -0.1257  0.1407
 4735POPC   C1A57341  18.892  11.540   7.108 -0.1455 -0.1751 -0.2158
 4735POPC   D2A57342  18.997  11.712   6.710 -0.0848  0.4220  0.1429
 4735POPC   C3A57343  18.890  11.669   6.265 -0.5887  0.0292 -0.1083
 4735POPC   C4A57344  18.888  11.728   5.792  0.1536  0.2723 -0.1768
 4735POPC   C1B57345  18.428  11.532   7.278 -0.1974  0.6057 -0.2211
 4735POPC   C2B57346  18.100  11.546   6.954  0.0289  0.0441  0.1754
 4735POPC   C3B57347  17.909  11.560   6.548  0.1336 -0.2259  0.2965
 4735POPC   C4B57348  18.027  11.673   6.131 -0.2010 -0.1945 -0.0890
 4736POPC   NC357349  19.691  16.907   7.336 -0.0942 -0.4489 -0.2001
 4736POPC   PO457350  19.750  17.226   7.579 -0.2055 -0.1535  0.0908
 4736POPC   GL157351  20.103  17.433   7.340  0.0114 -0.0856 -0.0016
 4736POPC   GL257352  20.035  17.211   7.156 -0.0894 -0.1936 -0.2155
 4736POPC   C1A57353  20.186  17.614   6.868  0.0618  0.0506 -0.0130
 4736POPC   D2A57354  20.055  17.406   6.527  0.0319 -0.2849  0.1269
 4736POPC   C3A57355  20.355  17.183   6.209  0.0985 -0.1045  0.1123
 4736POPC   C4A57356  20.505  16.893   5.937  0.1198  0.1929  0.2269
 4736POPC   C1B57357  19.916  16.890   6.826  0.2863  0.0157 -0.3297
 4736POPC   C2B57358  19.743  16.926   6.397 -0.2500  0.0901  0.0893
 4736POPC   C3B57359  19.466  17.040   6.054  0.2019 -0.2149 -0.0312
 4736POPC   C4B57360  19.529  17.281   5.708 -0.4220  0.0225 -0.0086
 4737POPC   NC357361  24.753  14.936   8.024  0.1776  0.2697 -0.1131
 4737POPC   PO457362  24.368  14.786   7.939 -0.0008 -0.0328  0.3018
 4737POPC   GL157363  24.287  15.055   7.814  0.1690  0.0034  0.3487
 4737POPC   GL257364  23.975  14.988   7.658 -0.1179 -0.2012  0.2376
 4737POPC   C1A57365  24.137  15.456   7.628  0.2193  0.4382 -0.2137
 4737POPC   D2A57366  23.968  15.546   7.202 -0.2704 -0.3559 -0.1402
 4737POPC   C3A57367  24.220  15.487   6.824  0.1537  0.1413  0.1179
 4737POPC   C4A57368  24.478  15.418   6.457  0.2241  0.1691 -0.0705
 4737POPC   C1B57369  24.075  15.036   7.213  0.3005  0.3903 -0.0407
 4737POPC   C2B57370  23.821  15.203   6.868 -0.1734 -0.0920 -0.0270
 4737POPC   C3B57371  23.951  15.318   6.473 -0.2389 -0.0055 -0.1199
 4737POPC   C4B57372  24.152  15.418   6.017  0.0465 -0.1576  0.0795
 4738POPC   NC357373  25.364  25.183   7.739  0.0146 -0.1416  0.0328
 4738POPC   PO457374  25.678  25.315   7.563 -0.1488 -0.2929 -0.0147
 4738POPC   GL157375  25.977  25.468   7.277 -0.1024  0.1650 -0.1080
 4738POPC   GL257376  26.301  25.499   7.261 -0.2182 -0.0260  0.1148
 4738POPC   C1A57377  26.067  25.432   6.780 -0.1418  0.1011  0.0285
 4738POPC   D2A57378  26.271  25.316   6.390  0.1505  0.2261 -0.1335
 4738POPC   C3A57379  26.179  25.430   5.974  0.1063  0.0994 -0.2166
 4738POPC   C4A57380  25.943  25.448   5.618 -0.1494  0.1051  0.0106
 4738POPC   C1B57381  26.391  25.833   6.960 -0.0569  0.1464 -0.1105
 4738POPC   C2B57382  26.551  26.114   6.616 -0.0372  0.0673 -0.1820
 4738POPC   C3B57383  26.525  26.412   6.292  0.2495  0.0037 -0.0581
 4738POPC   C4B57384  26.291  26.500   5.916  0.1956 -0.0242  0.3111
 4739POPC   NC357385  30.739  26.431   8.083 -0.1481 -0.4663  0.0794
 4739POPC   PO457386  31.064  26.633   7.949 -0.3628 -0.1948 -0.3912
 4739POPC   GL157387  31.174  26.841   7.546  0.0588 -0.0088  0.4008
 4739POPC   GL257388  31.397  26.697   7.373 -0.2798  0.0454 -0.3375
 4739POPC   C1A57389  31.195  27.192   7.263  0.2583  0.1484 -0.0863
 4739POPC   D2A57390  31.242  27.459   6.901 -0.0028 -0.2720 -0.0889
 4739POPC   C3A57391  31.314  27.708   6.568 -0.1571  0.0080 -0.2671
 4739POPC   C4A57392  31.300  27.917   6.215  0.3018  0.0834  0.0359
 4739POPC   C1B57393  31.471  26.499   6.926 -0.4965  0.0230 -0.2637
 4739POPC   C2B57394  31.654  26.439   6.499  0.1472 -0.2666 -0.4253
 4739POPC   C3B57395  31.687  26.328   6.095  0.1675  0.1019 -0.0007
 4739POPC   C4B57396  31.638  26.331   5.612  0.1312 -0.0425 -0.2187
 4740POPC   NC357397  14.904   2.020   7.904 -0.1436  0.2570 -0.2019
 4740POPC   PO457398  14.880   1.615   8.043  0.0911 -0.0404 -0.0182
 4740POPC   GL157399  15.146   1.596   7.729  0.0900  0.0390  0.3369
 4740POPC   GL257400  15.461   1.644   7.639 -0.1555 -0.1742  0.1172
 4740POPC   C1A57401  15.130   2.000   7.432  0.2868  0.1465 -0.0124
 4740POPC   D2A57402  15.353   2.419   7.276 -0.1210 -0.0096  0.2667
 4740POPC   C3A57403  15.593   2.414   6.949 -0.1402  0.2039  0.0525
 4740POPC   C4A57404  15.684   2.748   6.613  0.0417 -0.0119 -0.0240
 4740POPC   C1B57405  15.222   1.446   7.284  0.2513 -0.0865  0.0640
 4740POPC   C2B57406  15.131   1.709   6.995  0.0486 -0.1255  0.3257
 4740POPC   C3B57407  15.025   2.171   6.878  0.1918 -0.0273  0.1283
 4740POPC   C4B57408  14.854   2.552   7.083 -0.1524  0.4394 -0.0348
 4741POPC   NC357409   4.634   5.269   7.499  0.2809  0.1661 -0.3291
 4741POPC   PO457410   4.817   4.935   7.563  0.2571  0.2313  0.4666
 4741POPC   GL157411   4.983   5.207   7.213  0.4936  0.1737  0.1571
 4741POPC   GL257412   4.847   5.395   7.100 -0.3544 -0.0542  0.0700
 4741POPC   C1A57413   5.426   5.278   7.150  0.1347 -0.0556 -0.1202
 4741POPC   D2A57414   5.675   5.565   7.370 -0.0811 -0.0612 -0.1195
 4741POPC   C3A57415   5.594   5.988   7.526 -0.2382  0.1912  0.0253
 4741POPC   C4A57416   5.529   6.484   7.550 -0.0041 -0.3491 -0.0358
 4741POPC   C1B57417   5.070   5.232   6.753  0.2095  0.0134  0.0993
 4741POPC   C2B57418   5.543   5.162   6.643  0.0452  0.1155 -0.3395
 4741POPC   C3B57419   5.616   4.996   6.230  0.1215 -0.2196  0.0394
 4741POPC   C4B57420   5.624   5.288   5.870 -0.0653  0.2736  0.0403
 4742POPC   NC357421  23.180  18.783   8.109  0.1060 -0.1662 -0.3547
 4742POPC   PO457422  22.987  18.743   7.754 -0.0039  0.0333  0.3360
 4742POPC   GL157423  23.171  18.705   7.439  0.3841  0.0120 -0.0527
 4742POPC   GL257424  23.034  18.817   7.165  0.0240  0.1479 -0.0993
 4742POPC   C1A57425  23.432  18.458   7.180 -0.0837  0.0836  0.2335
 4742POPC   D2A57426  23.613  18.313   6.764  0.1681 -0.0149 -0.1666
 4742POPC   C3A57427  23.988  18.415   6.462  0.0691  0.0322 -0.0672
 4742POPC   C4A57428  24.184  18.201   6.152  0.0401 -0.1329  0.6015
 4742POPC   C1B57429  23.084  19.029   6.779 -0.2697 -0.0556 -0.1693
 4742POPC   C2B57430  23.150  18.980   6.307  0.2544  0.1529  0.0448
 4742POPC   C3B57431  23.142  18.854   5.823  0.2328 -0.3027  0.1691
 4742POPC   C4B57432  22.901  18.999   5.454 -0.2367 -0.2019  0.0162
 4743POPC   NC357433  10.777   6.679   8.179 -0.1834 -0.2197  0.3514
 4743POPC   PO457434  11.126   6.691   8.062  0.1910 -0.1007 -0.1984
 4743POPC   GL157435  11.018   6.791   7.695 -0.0148 -0.0254 -0.3530
 4743POPC   GL257436  11.000   6.521   7.596 -0.0628 -0.2047  0.1346
 4743POPC   C1A57437  10.837   6.935   7.282  0.0236 -0.0561 -0.1936
 4743POPC   D2A57438  10.840   6.848   6.815 -0.0706 -0.1914  0.1448
 4743POPC   C3A57439  10.454   6.837   6.593 -0.0333  0.0073  0.1589
 4743POPC   C4A57440  10.024   6.667   6.781  0.1678 -0.0278 -0.3532
 4743POPC   C1B57441  10.890   6.467   7.161  0.1311 -0.0322  0.1787
 4743POPC   C2B57442  10.718   6.419   6.663  0.2171 -0.0650  0.3812
 4743POPC   C3B57443  10.727   6.677   6.254 -0.2775  0.1905  0.1156
 4743POPC   C4B57444  10.793   6.943   5.831  0.3845 -0.0811 -0.1226
 4744POPC   NC357445  12.070  23.580   7.997 -0.2234 -0.2858  0.4487
 4744POPC   PO457446  12.138  23.878   7.714 -0.1956  0.1227  0.0117
 4744POPC   GL157447  11.990  23.854   7.396  0.0425 -0.3098 -0.3024
 4744POPC   GL257448  11.869  24.153   7.337 -0.2949  0.0827  0.0544
 4744POPC   C1A57449  11.922  23.550   7.057  0.0518  0.0194  0.0399
 4744POPC   D2A57450  11.568  23.444   6.842 -0.1829 -0.1264 -0.0820
 4744POPC   C3A57451  11.817  23.299   6.437  0.1379 -0.0945 -0.0286
 4744POPC   C4A57452  12.057  23.336   6.062  0.0281 -0.2943 -0.1011
 4744POPC   C1B57453  12.050  24.163   6.909 -0.1640  0.0393  0.1589
 4744POPC   C2B57454  12.203  24.225   6.468 -0.1999  0.0033  0.0263
 4744POPC   C3B57455  11.977  24.326   6.096  0.0833 -0.3013 -0.0960
 4744POPC   C4B57456  11.637  24.534   5.844 -0.1327 -0.0446 -0.0159
 4745POPC   NC357457  26.376  16.861   8.512  0.1101 -0.0141  0.2181
 4745POPC   PO457458  26.053  17.072   8.400  0.0183  0.1790 -0.4534
 4745POPC   GL157459  25.653  17.155   8.403  0.4585  0.0651 -0.0684
 4745POPC   GL257460  25.730  17.388   8.341 -0.0357 -0.0590  0.3619
 4745POPC   C1A57461  25.252  16.985   8.702 -0.0513 -0.1029 -0.0257
 4745POPC   D2A57462  24.885  16.767   8.872  0.3059  0.0497  0.0592
 4745POPC   C3A57463  24.362  16.761   8.859  0.0096 -0.2138 -0.0864
 4745POPC   C4A57464  23.950  16.883   8.721 -0.3150  0.2143 -0.0845
 4745POPC   C1B57465  25.245  17.348   8.384  0.0434 -0.0192 -0.1290
 4745POPC   C2B57466  24.882  17.282   8.651  0.1863 -0.0307  0.0829
 4745POPC   C3B57467  24.419  17.126   8.528 -0.1065 -0.3882  0.0692
 4745POPC   C4B57468  24.092  17.336   8.785 -0.3250 -0.1008 -0.1423
 4746POPC   NC357469  29.062  31.261   7.662  0.0050 -0.0434  0.1333
 4746POPC   PO457470  28.846  31.461   7.974  0.1358 -0.1037 -0.0170
 4746POPC   GL157471  28.726  31.539   7.554  0.1248 -0.0827  0.2463
 4746POPC   GL257472  28.552  31.655   7.511  0.3584 -0.3020 -0.0357
 4746POPC   C1A57473  28.725  31.224   7.174 -0.2559  0.0829 -0.1095
 4746POPC   D2A57474  28.832  31.136   6.738  0.2174  0.0485  0.1443
 4746POPC   C3A57475  28.825  31.099   6.324  0.1306 -0.1175  0.1004
 4746POPC   C4A57476  29.237  31.061   6.078  0.1399 -0.1104 -0.2447
 4746POPC   C1B57477  28.557  31.731   7.073 -0.0185 -0.4306  0.4366
 4746POPC   C2B57478  28.649  31.603   6.675 -0.0819  0.0020 -0.0745
 4746POPC   C3B57479  28.694  31.658   6.263  0.2173 -0.2038  0.1696
 4746POPC   C4B57480  28.931  31.482   5.903 -0.0354 -0.0754 -0.0541
 4747POPC   NC357481   9.255  29.411   7.833  0.1975 -0.1659  0.3911
 4747POPC   PO457482   9.573  29.626   7.899 -0.2887  0.0044 -0.0845
 4747POPC   GL157483   9.606  29.621   7.515 -0.2033  0.2999  0.0669
 4747POPC   GL257484   9.334  29.599   7.349  0.0337  0.0927  0.0375
 4747POPC   C1A57485   9.676  29.640   7.012 -0.1774  0.0977 -0.2773
 4747POPC   D2A57486  10.132  29.627   6.812  0.0234 -0.3236 -0.1104
 4747POPC   C3A57487  10.189  29.606   6.353  0.1430  0.0165  0.0911
 4747POPC   C4A57488  10.503  29.773   6.029  0.1617 -0.2601 -0.1727
 4747POPC   C1B57489   9.141  29.479   6.965 -0.0410 -0.2115 -0.3784
 4747POPC   C2B57490   8.849  29.585   6.612 -0.3566  0.1713  0.0078
 4747POPC   C3B57491   8.726  29.359   6.222  0.2613  0.0420 -0.1913
 4747POPC   C4B57492   8.385  29.167   6.045  0.2883  0.1127  0.3300
 4748POPC   NC357493  22.158   8.389   7.668  0.3090  0.2456 -0.1912
 4748POPC   PO457494  22.137   8.734   7.578 -0.0482 -0.6029 -0.1465
 4748POPC   GL157495  22.105   8.625   7.231 -0.5831  0.3179  0.0811
 4748POPC   GL257496  21.924   8.462   7.096  0.1527  0.3838 -0.2044
 4748POPC   C1A57497  22.388   8.705   6.842 -0.0957  0.1869 -0.2079
 4748POPC   D2A57498  22.697   9.015   6.617  0.2616  0.0396 -0.0511
 4748POPC   C3A57499  22.848   8.959   6.216 -0.2753 -0.3089 -0.4606
 4748POPC   C4A57500  23.114   8.821   5.864  0.0172  0.2532  0.0517
 4748POPC   C1B57501  21.879   8.736   6.742 -0.2355  0.0021 -0.0229
 4748POPC   C2B57502  21.936   8.878   6.274 -0.0788  0.0119  0.1456
 4748POPC   C3B57503  21.625   9.084   5.941 -0.3356  0.1550 -0.1250
 4748POPC   C4B57504  21.658   9.335   5.622 -0.0519 -0.0773  0.2922
 4749POPC   NC357505  20.001  10.590   8.074  0.2240  0.0359  0.2238
 4749POPC   PO457506  19.765  10.307   8.091 -0.1567  0.3250  0.0848
 4749POPC   GL157507  19.865  10.325   7.710  0.5170  0.2807 -0.1251
 4749POPC   GL257508  19.765  10.058   7.593  0.0813 -0.1817  0.2005
 4749POPC   C1A57509  20.037  10.421   7.274 -0.2760 -0.1047 -0.0938
 4749POPC   D2A57510  20.243  10.270   6.859 -0.2852  0.0553  0.0704
 4749POPC   C3A57511  20.125  10.103   6.441  0.0896 -0.2359 -0.1666
 4749POPC   C4A57512  20.041   9.767   6.112  0.2557  0.0859  0.0170
 4749POPC   C1B57513  19.438  10.014   7.256  0.0268 -0.0858 -0.2176
 4749POPC   C2B57514  19.207  10.037   6.862 -0.2148  0.0404  0.1173
 4749POPC   C3B57515  18.988  10.300   6.564  0.0233  0.1727 -0.1336
 4749POPC   C4B57516  18.625  10.228   6.160 -0.1990 -0.0632  0.0357
 4750POPC   NC357517   7.384   6.881   8.158  0.1469  0.1738  0.2800
 4750POPC   PO457518   7.036   6.728   8.082 -0.0576 -0.2295  0.1457
 4750POPC   GL157519   6.732   6.809   7.929 -0.0287 -0.0653 -0.0338
 4750POPC   GL257520   6.766   6.685   7.659 -0.1882  0.1222 -0.2809
 4750POPC   C1A57521   6.460   7.073   7.702  0.1080 -0.1570 -0.2174
 4750POPC   D2A57522   6.092   7.347   7.786 -0.1120 -0.2001 -0.1689
 4750POPC   C3A57523   5.757   7.411   7.470 -0.0177  0.1812 -0.0810
 4750POPC   C4A57524   5.659   7.759   7.181 -0.1698  0.0685  0.1283
 4750POPC   C1B57525   6.547   6.797   7.283 -0.3034 -0.4389  0.0037
 4750POPC   C2B57526   6.298   6.879   6.945 -0.1764  0.0050 -0.1049
 4750POPC   C3B57527   6.192   7.160   6.591 -0.0083  0.0522  0.1687
 4750POPC   C4B57528   5.704   7.186   6.462  0.0932  0.0400 -0.2621
 4751POPC   NC357529  25.234   3.763   7.676 -0.1424  0.1938 -0.2923
 4751POPC   PO457530  24.849   3.762   7.697 -0.0645  0.0473  0.3152
 4751POPC   GL157531  24.923   3.495   7.424  0.2588  0.1790  0.3306
 4751POPC   GL257532  24.823   3.278   7.294 -0.0714  0.2000  0.0903
 4751POPC   C1A57533  25.238   3.538   7.116 -0.1676 -0.1083 -0.0107
 4751POPC   D2A57534  25.616   3.588   6.800  0.1132 -0.0342 -0.0225
 4751POPC   C3A57535  25.772   3.330   6.406 -0.0262  0.2684 -0.1439
 4751POPC   C4A57536  26.136   3.494   6.130  0.0648  0.1626  0.2908
 4751POPC   C1B57537  24.924   3.312   6.822  0.1747 -0.1079  0.1366
 4751POPC   C2B57538  25.202   3.234   6.501  0.0364  0.0536  0.0087
 4751POPC   C3B57539  25.443   3.170   6.114  0.2460  0.1201  0.0038
 4751POPC   C4B57540  25.528   2.819   5.780  0.0502 -0.1553  0.0662
 4752POPC   NC357541  31.432  30.385   7.816  0.1736 -0.0969 -0.2126
 4752POPC   PO457542  31.712  30.663   7.944  0.0794 -0.0346  0.1065
 4752POPC   GL157543  31.859  30.527   7.675 -0.1231  0.1767 -0.1549
 4752POPC   GL257544  32.176  30.422   7.768  0.2048  0.0132 -0.4060
 4752POPC   C1A57545  31.628  30.244   7.349 -0.1971 -0.2129 -0.1533
 4752POPC   D2A57546  31.438  29.890   7.072 -0.3007  0.1177 -0.0507
 4752POPC   C3A57547  31.431  29.764   6.558 -0.0792 -0.0278 -0.0038
 4752POPC   C4A57548  31.563  29.792   6.106 -0.0949 -0.1785  0.0273
 4752POPC   C1B57549  32.150  30.250   7.363 -0.0965 -0.2282  0.2530
 4752POPC   C2B57550  32.011  30.030   6.976  0.0290 -0.1806  0.0703
 4752POPC   C3B57551  31.967  29.723   6.596 -0.1501 -0.3109 -0.0265
 4752POPC   C4B57552  31.989  29.619   6.170 -0.0182 -0.0336 -0.1607
 4753POPC   NC357553   3.454   5.717   7.970  0.3485 -0.1679 -0.1080
 4753POPC   PO457554   3.088   5.598   7.892  0.0350  0.1282  0.1971
 4753POPC   GL157555   2.910   5.452   7.491  0.0177 -0.1553 -0.0253
 4753POPC   GL257556   3.052   5.211   7.520 -0.0554 -0.0052 -0.3029
 4753POPC   C1A57557   2.982   5.523   7.035 -0.0838 -0.1980 -0.0388
 4753POPC   D2A57558   2.809   5.441   6.639 -0.1277 -0.1679  0.0609
 4753POPC   C3A57559   3.080   5.354   6.269 -0.2510  0.4482  0.1478
 4753POPC   C4A57560   3.281   4.938   6.124 -0.0625 -0.3080  0.1093
 4753POPC   C1B57561   3.137   4.855   7.278 -0.1801 -0.0447  0.0043
 4753POPC   C2B57562   3.115   4.631   6.903  0.0844 -0.0074  0.0864
 4753POPC   C3B57563   3.165   4.497   6.482  0.1316 -0.0426  0.2080
 4753POPC   C4B57564   2.949   4.236   6.180  0.1269 -0.0967  0.2294
 4754POPC   NC357565  14.733   6.183   7.796 -0.1398 -0.2124 -0.3662
 4754POPC   PO457566  14.424   6.417   7.792  0.1203 -0.3283  0.0346
 4754POPC   GL157567  14.256   6.347   7.448  0.1731 -0.1061 -0.1228
 4754POPC   GL257568  14.343   6.644   7.288  0.0112  0.0005  0.0824
 4754POPC   C1A57569  14.118   6.312   6.986  0.1065 -0.4579  0.2754
 4754POPC   D2A57570  13.991   6.195   6.551  0.3062  0.1262 -0.1130
 4754POPC   C3A57571  14.262   6.173   6.156  0.3287 -0.0080 -0.1757
 4754POPC   C4A57572  14.230   5.953   5.777  0.1323  0.3183 -0.0480
 4754POPC   C1B57573  14.510   6.783   6.858 -0.1660  0.1082  0.1050
 4754POPC   C2B57574  14.463   6.872   6.414 -0.0693 -0.0232 -0.0697
 4754POPC   C3B57575  14.472   6.824   5.981  0.2802  0.1125  0.3202
 4754POPC   C4B57576  14.637   6.476   5.792  0.2323 -0.2104  0.2466
 4755POPC   NC357577  29.989   2.740   7.736  0.0658 -0.1343 -0.1700
 4755POPC   PO457578  29.773   3.072   7.770  0.0723  0.0524  0.0057
 4755POPC   GL157579  29.569   2.925   7.447 -0.2292 -0.2398  0.1481
 4755POPC   GL257580  29.739   3.083   7.251  0.0786 -0.2681 -0.1346
 4755POPC   C1A57581  29.382   2.974   6.992 -0.0184 -0.0478 -0.0177
 4755POPC   D2A57582  29.212   3.050   6.595  0.0823  0.2023 -0.2979
 4755POPC   C3A57583  29.165   2.637   6.360  0.1005  0.0636  0.0987
 4755POPC   C4A57584  29.318   2.200   6.335  0.0328 -0.2235 -0.1080
 4755POPC   C1B57585  29.967   2.997   6.867  0.2267  0.1679 -0.2547
 4755POPC   C2B57586  30.093   2.882   6.442  0.3622  0.1000 -0.0615
 4755POPC   C3B57587  30.316   2.729   6.092  0.1909  0.0435  0.3849
 4755POPC   C4B57588  30.352   2.677   5.612 -0.1646 -0.0332 -0.0621
 4756POPC   NC357589   4.005   5.226   7.836 -0.2044  0.0862 -0.2680
 4756POPC   PO457590   3.923   5.587   7.928  0.1179 -0.0456  0.1170
 4756POPC   GL157591   3.722   5.461   7.591 -0.1675 -0.1021  0.2200
 4756POPC   GL257592   3.433   5.548   7.512 -0.5837  0.0979 -0.0635
 4756POPC   C1A57593   3.702   5.605   7.140 -0.4494 -0.2219 -0.1445
 4756POPC   D2A57594   3.393   5.660   6.785  0.2570 -0.0509 -0.2237
 4756POPC   C3A57595   3.143   5.865   6.413 -0.2036 -0.0156  0.0820
 4756POPC   C4A57596   3.340   5.775   5.986 -0.0178  0.2404  0.2823
 4756POPC   C1B57597   3.303   5.836   7.235  0.2818 -0.0533 -0.0048
 4756POPC   C2B57598   3.085   5.984   6.877 -0.1090 -0.1243  0.4834
 4756POPC   C3B57599   2.709   5.918   6.638 -0.0852  0.0829  0.0114
 4756POPC   C4B57600   2.289   5.755   6.550 -0.2303 -0.0599 -0.0576
 4757POPC   NC357601  24.270  14.323   8.073  0.2041 -0.1924  0.4382
 4757POPC   PO457602  23.926  14.118   7.908 -0.0524 -0.0722 -0.0382
 4757POPC   GL157603  23.853  14.303   7.572  0.0866  0.1442  0.0290
 4757POPC   GL257604  24.107  14.506   7.601 -0.2374 -0.2432  0.0687
 4757POPC   C1A57605  24.075  14.196   7.144  0.1871  0.2618  0.0132
 4757POPC   D2A57606  24.208  14.002   6.758 -0.0907  0.1158  0.1196
 4757POPC   C3A57607  24.081  14.233   6.372  0.1200 -0.0265 -0.1403
 4757POPC   C4A57608  24.272  14.484   6.054  0.3366  0.2682  0.0091
 4757POPC   C1B57609  24.339  14.625   7.231 -0.0240  0.0475 -0.1511
 4757POPC   C2B57610  24.511  14.990   6.976  0.0699 -0.3161  0.1716
 4757POPC   C3B57611  24.661  14.966   6.537  0.1558 -0.1194 -0.4727
 4757POPC   C4B57612  24.738  14.591   6.278 -0.0381  0.0055  0.1814
 4758POPC   NC357613   7.563  28.252   7.975 -0.0840 -0.2020  0.1158
 4758POPC   PO457614   7.877  28.074   8.049 -0.0945 -0.0799 -0.0078
 4758POPC   GL157615   7.996  28.158   7.742 -0.0253  0.4907 -0.2188
 4758POPC   GL257616   8.141  28.189   7.502 -0.1213 -0.2407  0.1159
 4758POPC   C1A57617   7.666  28.110   7.393 -0.3796 -0.1709 -0.1949
 4758POPC   D2A57618   7.541  28.295   7.017 -0.1526 -0.1117  0.0404
 4758POPC   C3A57619   7.849  28.485   6.727  0.1800 -0.0403 -0.0427
 4758POPC   C4A57620   8.045  28.344   6.339  0.0303  0.1064  0.3399
 4758POPC   C1B57621   8.079  27.839   7.182  0.0658  0.0766 -0.0908
 4758POPC   C2B57622   7.756  27.898   6.837  0.1018 -0.2719 -0.0617
 4758POPC   C3B57623   7.615  28.088   6.450  0.1935  0.0930 -0.2317
 4758POPC   C4B57624   7.561  28.351   6.042  0.0199  0.1488 -0.0408
 4759POPC   NC357625   3.017   9.980   7.908  0.1385 -0.2225  0.0097
 4759POPC   PO457626   3.416  10.029   7.885  0.3183 -0.1074 -0.1081
 4759POPC   GL157627   3.701  10.149   7.500 -0.2968  0.2071 -0.0312
 4759POPC   GL257628   3.930  10.348   7.478 -0.3850 -0.1153  0.5187
 4759POPC   C1A57629   3.858  10.019   7.087 -0.2227 -0.4702  0.1934
 4759POPC   D2A57630   4.067   9.985   6.693  0.2684 -0.1061  0.4639
 4759POPC   C3A57631   4.382   9.668   6.500 -0.1150 -0.1128 -0.0982
 4759POPC   C4A57632   4.469   9.428   6.104 -0.0870 -0.0023 -0.2190
 4759POPC   C1B57633   3.545  10.535   7.224  0.1753 -0.2820 -0.2457
 4759POPC   C2B57634   3.224  10.811   6.931 -0.0413 -0.0762  0.1366
 4759POPC   C3B57635   3.136  10.857   6.495  0.0969  0.2286  0.1107
 4759POPC   C4B57636   3.021  10.899   6.073 -0.2484 -0.2247  0.0356
 4760POPC   NC357637  12.988  19.850   7.513  0.1964 -0.0782 -0.2118
 4760POPC   PO457638  13.279  19.569   7.482 -0.0506  0.2122 -0.2155
 4760POPC   GL157639  13.589  19.444   7.191 -0.0892 -0.4477 -0.1108
 4760POPC   GL257640  13.587  19.166   7.291  0.0437 -0.1976 -0.1284
 4760POPC   C1A57641  13.780  19.761   6.886  0.0267  0.0700  0.1123
 4760POPC   D2A57642  13.582  19.968   6.497  0.0804 -0.1858 -0.0645
 4760POPC   C3A57643  13.262  19.728   6.269  0.2991  0.1740  0.2826
 4760POPC   C4A57644  12.854  19.603   5.988  0.3421  0.2125  0.2613
 4760POPC   C1B57645  13.875  19.183   6.934 -0.2155  0.2115  0.0055
 4760POPC   C2B57646  14.031  19.134   6.496  0.0737  0.1965 -0.1715
 4760POPC   C3B57647  14.382  18.843   6.291 -0.0728  0.3062 -0.3573
 4760POPC   C4B57648  14.823  18.723   6.259 -0.2153 -0.0218 -0.1028
 4761POPC   NC357649   4.522  20.819   7.721  0.1916  0.0229 -0.5191
 4761POPC   PO457650   4.720  20.463   7.737  0.0291  0.2005 -0.1551
 4761POPC   GL157651   4.839  20.747   7.382  0.1189 -0.2552  0.3372
 4761POPC   GL257652   5.048  20.941   7.477  0.2479  0.1152  0.1525
 4761POPC   C1A57653   4.736  21.042   7.029 -0.0266 -0.0747  0.0479
 4761POPC   D2A57654   4.791  21.317   6.645 -0.1698 -0.0094 -0.0054
 4761POPC   C3A57655   4.781  21.328   6.160  0.1991 -0.0765 -0.0446
 4761POPC   C4A57656   4.404  21.295   5.835 -0.0117  0.0687 -0.0901
 4761POPC   C1B57657   5.202  20.865   7.082 -0.0938  0.2589  0.2141
 4761POPC   C2B57658   5.171  20.991   6.648 -0.0527  0.2160  0.1051
 4761POPC   C3B57659   5.363  21.167   6.252 -0.1475  0.1272  0.2467
 4761POPC   C4B57660   5.612  20.947   5.891 -0.0169 -0.1735  0.1402
 4762POPC   NC357661  22.460  15.030   7.494  0.0182 -0.0906 -0.1853
 4762POPC   PO457662  22.173  14.778   7.577  0.2295 -0.2291  0.4410
 4762POPC   GL157663  22.273  14.688   7.242  0.0098  0.4831  0.0773
 4762POPC   GL257664  22.064  14.572   7.050  0.0898 -0.1601  0.0587
 4762POPC   C1A57665  22.660  14.898   7.041 -0.0303  0.1116 -0.3358
 4762POPC   D2A57666  23.131  14.926   7.202  0.0070 -0.0538  0.1174
 4762POPC   C3A57667  23.546  14.831   7.019 -0.0264 -0.0025 -0.1582
 4762POPC   C4A57668  23.961  14.627   6.863 -0.1164  0.1719  0.1824
 4762POPC   C1B57669  22.348  14.641   6.686 -0.0779  0.0506 -0.2803
 4762POPC   C2B57670  22.581  14.660   6.333  0.2029  0.1676  0.1002
 4762POPC   C3B57671  22.654  14.504   5.904  0.0402  0.0954 -0.1776
 4762POPC   C4B57672  22.450  14.252   5.570 -0.2644  0.0603 -0.1096
 4763POPC   NC357673   5.512   3.647   7.621  0.0382 -0.4268 -0.0783
 4763POPC   PO457674   5.222   3.530   7.847 -0.2474 -0.1065 -0.2171
 4763POPC   GL157675   5.131   3.415   7.460  0.0941  0.1018 -0.1360
 4763POPC   GL257676   5.303   3.272   7.333  0.2425  0.3888  0.0713
 4763POPC   C1A57677   4.703   3.311   7.272  0.0508 -0.3575  0.0191
 4763POPC   D2A57678   4.403   3.674   7.226  0.4477  0.2288 -0.0601
 4763POPC   C3A57679   3.965   3.633   7.099 -0.2201 -0.0480 -0.0601
 4763POPC   C4A57680   3.564   3.701   6.869  0.2958  0.2212  0.1312
 4763POPC   C1B57681   5.193   3.215   6.886 -0.3221 -0.0354  0.2535
 4763POPC   C2B57682   5.139   3.242   6.393  0.0020 -0.2344  0.0524
 4763POPC   C3B57683   5.316   3.244   6.021 -0.2274  0.0694  0.0772
 4763POPC   C4B57684   5.202   2.957   5.691 -0.3234 -0.0769  0.0083
 4764POPC   NC357685   8.000  10.779   7.752  0.2114 -0.0624 -0.0742
 4764POPC   PO457686   7.830  11.133   7.650  0.1750 -0.2945 -0.2300
 4764POPC   GL157687   7.620  10.881   7.445 -0.0967 -0.0927  0.1038
 4764POPC   GL257688   7.344  10.990   7.537 -0.0019  0.0320  0.2833
 4764POPC   C1A57689   7.789  10.763   7.068 -0.2715 -0.2618 -0.1161
 4764POPC   D2A57690   8.003  10.797   6.623  0.2699 -0.4361  0.1083
 4764POPC   C3A57691   7.938  10.738   6.189  0.0825  0.0387 -0.0626
 4764POPC   C4A57692   7.983  10.431   5.882 -0.0473  0.0992 -0.0079
 4764POPC   C1B57693   7.349  11.066   7.089  0.0897 -0.1649  0.4773
 4764POPC   C2B57694   7.534  10.987   6.690  0.0965 -0.0399  0.1054
 4764POPC   C3B57695   7.453  10.663   6.322  0.1476 -0.0252 -0.0560
 4764POPC   C4B57696   7.508  10.558   5.825  0.2674 -0.1089 -0.0594
 4765POPC   NC357697  30.489  11.488   7.938 -0.1929  0.2232  0.0898
 4765POPC   PO457698  30.704  11.824   7.970 -0.4139  0.0318  0.2167
 4765POPC   GL157699  30.603  11.895   7.665 -0.0833  0.1048 -0.1526
 4765POPC   GL257700  30.552  11.665   7.444  0.3598 -0.0709 -0.1030
 4765POPC   C1A57701  30.873  12.117   7.325 -0.0961 -0.0351  0.0224
 4765POPC   D2A57702  31.063  12.221   6.970  0.0780 -0.1810 -0.1507
 4765POPC   C3A57703  31.009  12.438   6.608 -0.1182 -0.1769 -0.0356
 4765POPC   C4A57704  31.069  12.429   6.197 -0.3459 -0.0050  0.2042
 4765POPC   C1B57705  30.516  11.780   6.989 -0.1611  0.1541 -0.2907
 4765POPC   C2B57706  30.587  12.224   6.874  0.0303 -0.1021 -0.0995
 4765POPC   C3B57707  30.563  12.325   6.403  0.0066 -0.1169 -0.1810
 4765POPC   C4B57708  30.199  12.170   6.147  0.1559  0.4704 -0.1776
 4766POPC   NC357709  23.562  22.107   7.736  0.0093 -0.2391 -0.0811
 4766POPC   PO457710  23.750  22.450   7.703 -0.0203  0.0071 -0.1875
 4766POPC   GL157711  23.823  22.455   7.334 -0.0278  0.1072  0.2204
 4766POPC   GL257712  23.605  22.601   7.186 -0.1530  0.0460 -0.2682
 4766POPC   C1A57713  24.005  22.185   6.989  0.2903  0.1131 -0.2065
 4766POPC   D2A57714  23.973  22.344   6.559  0.2276  0.0119  0.0449
 4766POPC   C3A57715  24.375  22.393   6.342  0.1347 -0.2726 -0.1991
 4766POPC   C4A57716  24.377  22.503   5.876 -0.1438 -0.0320 -0.2094
 4766POPC   C1B57717  23.489  22.238   6.940  0.0438 -0.1123  0.1847
 4766POPC   C2B57718  23.538  21.893   6.617 -0.0443 -0.1690 -0.2051
 4766POPC   C3B57719  23.571  21.521   6.319  0.2049 -0.0221 -0.2794
 4766POPC   C4B57720  23.172  21.385   6.052  0.2676 -0.3267 -0.0326
 4767POPC   NC357721  14.691  11.850   8.027  0.2183  0.0650  0.2725
 4767POPC   PO457722  15.037  11.642   7.915 -0.0854 -0.2260 -0.0722
 4767POPC   GL157723  15.103  11.778   7.501  0.1696  0.1207  0.1262
 4767POPC   GL257724  14.831  11.678   7.493  0.1244  0.0270 -0.1853
 4767POPC   C1A57725  15.242  12.028   7.104  0.1237  0.2448  0.2046
 4767POPC   D2A57726  15.455  12.027   6.719  0.1627 -0.1001 -0.0912
 4767POPC   C3A57727  15.894  11.943   6.838  0.0878 -0.0357 -0.3120
 4767POPC   C4A57728  16.256  11.941   7.132  0.0795 -0.0500 -0.0131
 4767POPC   C1B57729  14.610  11.954   7.121 -0.2835 -0.4032  0.0586
 4767POPC   C2B57730  14.585  11.846   6.737 -0.1142 -0.0248 -0.0131
 4767POPC   C3B57731  14.521  11.822   6.242 -0.0943  0.1431  0.1567
 4767POPC   C4B57732  14.380  11.826   5.779  0.2777 -0.2933 -0.2941
 4768POPC   NC357733  31.697  24.751   7.238  0.0296 -0.0272 -0.0078
 4768POPC   PO457734  31.658  25.103   7.362  0.3411 -0.0431 -0.1456
 4768POPC   GL157735  31.583  25.254   7.122 -0.2680 -0.2927  0.0673
 4768POPC   GL257736  31.720  25.154   6.863  0.0185  0.3162  0.0798
 4768POPC   C1A57737  31.253  25.507   6.986  0.2805 -0.0441 -0.1934
 4768POPC   D2A57738  30.918  25.438   6.669 -0.2791 -0.3637 -0.4455
 4768POPC   C3A57739  31.121  25.512   6.261  0.1770  0.0306  0.1602
 4768POPC   C4A57740  31.249  25.434   5.843 -0.1622  0.1895  0.1770
 4768POPC   C1B57741  31.832  25.061   6.488  0.0821 -0.0711 -0.0534
 4768POPC   C2B57742  32.015  24.974   6.074 -0.1567  0.0291  0.0299
 4768POPC   C3B57743  32.293  24.946   5.713  0.2070  0.0859  0.1084
 4768POPC   C4B57744  32.665  24.879   5.544  0.2949  0.0964  0.3308
 4769POPC   NC357745  15.226   9.469   7.762 -0.0951  0.1704 -0.1058
 4769POPC   PO457746  15.511   9.721   7.782  0.1350  0.2856  0.1075
 4769POPC   GL157747  15.564   9.796   7.424  0.3323  0.1115  0.4741
 4769POPC   GL257748  15.805   9.694   7.321 -0.5348  0.0065  0.3800
 4769POPC   C1A57749  15.361   9.961   7.019 -0.2488 -0.0469  0.2239
 4769POPC   D2A57750  15.579  10.191   6.680  0.0807 -0.0820  0.1791
 4769POPC   C3A57751  15.838   9.968   6.381  0.1887  0.1437  0.0897
 4769POPC   C4A57752  16.079   9.917   6.001  0.4296  0.0614 -0.1378
 4769POPC   C1B57753  15.797   9.767   6.857 -0.0811 -0.0863 -0.0684
 4769POPC   C2B57754  15.487   9.647   6.611  0.1211  0.0460  0.2636
 4769POPC   C3B57755  15.322   9.479   6.249 -0.0799 -0.0746  0.1069
 4769POPC   C4B57756  15.498   9.224   5.879 -0.2009 -0.0808 -0.0619
 4770POPC   NC357757  15.212  10.115   7.513  0.0820  0.0249 -0.2407
 4770POPC   PO457758  15.612  10.212   7.575  0.4968  0.3139  0.0552
 4770POPC   GL157759  15.697  10.277   7.199 -0.0123 -0.0354  0.2273
 4770POPC   GL257760  15.463  10.455   7.104 -0.0438  0.2260 -0.0424
 4770POPC   C1A57761  15.848  10.581   6.870 -0.0375 -0.1455  0.4675
 4770POPC   D2A57762  15.823  10.610   6.425  0.1096 -0.0468 -0.2588
 4770POPC   C3A57763  15.570  10.359   6.159  0.2556  0.1026 -0.0676
 4770POPC   C4A57764  15.313  10.014   6.230 -0.2564  0.1320 -0.0375
 4770POPC   C1B57765  15.369  10.667   6.644 -0.2721 -0.1116 -0.3556
 4770POPC   C2B57766  15.363  10.842   6.235  0.2310 -0.0053 -0.1301
 4770POPC   C3B57767  15.184  11.080   5.919 -0.1081  0.0048  0.3325
 4770POPC   C4B57768  15.126  11.374   5.575 -0.0448  0.1638 -0.1323
 4771POPC   NC357769  14.850  22.031   7.855  0.1607 -0.3071 -0.0634
 4771POPC   PO457770  15.201  21.839   7.714  0.1413 -0.2901 -0.0365
 4771POPC   GL157771  15.109  21.629   7.321 -0.1052 -0.0690  0.0537
 4771POPC   GL257772  15.168  21.353   7.321 -0.0462  0.0456 -0.1588
 4771POPC   C1A57773  15.284  21.831   6.925  0.2057 -0.0034  0.0861
 4771POPC   D2A57774  15.155  22.098   6.559 -0.0390 -0.1479 -0.3836
 4771POPC   C3A57775  15.323  22.162   6.085 -0.3200  0.4548 -0.0184
 4771POPC   C4A57776  15.541  22.060   5.660  0.0738  0.0418 -0.1812
 4771POPC   C1B57777  15.343  21.269   6.929  0.0038 -0.1696 -0.0001
 4771POPC   C2B57778  15.400  21.038   6.503  0.0469  0.2877 -0.0489
 4771POPC   C3B57779  15.495  21.101   6.116  0.3966 -0.0242  0.0372
 4771POPC   C4B57780  15.843  21.104   5.800 -0.0877 -0.2858  0.2241
 4772POPC   NC357781  17.395  15.973   8.178 -0.2931  0.1386  0.1450
 4772POPC   PO457782  17.016  16.077   8.122  0.1411 -0.0099  0.0238
 4772POPC   GL157783  16.927  16.115   7.764  0.0947 -0.0562 -0.0316
 4772POPC   GL257784  17.075  15.958   7.576  0.0351 -0.1899  0.0480
 4772POPC   C1A57785  16.853  16.463   7.396  0.0592  0.2166 -0.2065
 4772POPC   D2A57786  16.591  16.736   7.103 -0.1105  0.2570  0.1206
 4772POPC   C3A57787  16.727  16.742   6.660 -0.5394  0.3034  0.3299
 4772POPC   C4A57788  16.679  16.795   6.223  0.0650 -0.0315  0.0048
 4772POPC   C1B57789  16.703  15.989   7.276 -0.2889 -0.2383  0.1281
 4772POPC   C2B57790  16.633  15.885   6.851  0.1150 -0.0737 -0.0437
 4772POPC   C3B57791  16.513  16.042   6.438 -0.0494 -0.0118 -0.0061
 4772POPC   C4B57792  16.698  16.231   6.139 -0.0168 -0.1267 -0.0774
 4773POPC   NC357793   1.603   9.580   7.899  0.0355 -0.1828  0.0214
 4773POPC   PO457794   1.493   9.936   7.995  0.0708 -0.1890  0.3166
 4773POPC   GL157795   1.451  10.094   7.605 -0.2793  0.0476  0.1135
 4773POPC   GL257796   1.386  10.324   7.668 -0.1651  0.0400  0.2571
 4773POPC   C1A57797   1.302   9.898   7.172 -0.1545  0.0021  0.0525
 4773POPC   D2A57798   1.316   9.989   6.740  0.0522  0.1764  0.1147
 4773POPC   C3A57799   1.025   9.911   6.332 -0.0884 -0.1830 -0.1442
 4773POPC   C4A57800   1.035   9.620   5.993 -0.1838 -0.0002  0.1861
 4773POPC   C1B57801   1.459  10.400   7.244 -0.1176  0.0268  0.1340
 4773POPC   C2B57802   1.622  10.416   6.827  0.3202  0.1492 -0.1538
 4773POPC   C3B57803   2.055  10.404   6.600 -0.0786  0.1451  0.1097
 4773POPC   C4B57804   2.297  10.468   6.232 -0.1590 -0.2457  0.0951
 4774POPC   NC357805  12.041   1.835   7.542 -0.1006 -0.3610 -0.3892
 4774POPC   PO457806  12.420   1.840   7.535 -0.0512  0.0189  0.1447
 4774POPC   GL157807  12.339   1.804   7.113  0.0132 -0.0358 -0.2289
 4774POPC   GL257808  12.528   1.589   7.060 -0.1237 -0.0083 -0.1802
 4774POPC   C1A57809  12.437   1.863   6.648 -0.1730  0.1383  0.0989
 4774POPC   D2A57810  12.635   1.639   6.277  0.2588 -0.3241  0.1991
 4774POPC   C3A57811  12.415   1.554   5.905  0.2634 -0.4038 -0.1544
 4774POPC   C4A57812  12.016   1.410   5.772  0.1671  0.1127 -0.2503
 4774POPC   C1B57813  12.544   1.354   6.667  0.1390 -0.0670 -0.0831
 4774POPC   C2B57814  12.501   1.150   6.275  0.4450  0.0384 -0.0536
 4774POPC   C3B57815  12.709   0.856   5.981  0.2453  0.0843  0.2483
 4774POPC   C4B57816  13.128   0.784   5.817 -0.0082 -0.0866 -0.0451
 4775POPC   NC357817  12.985  14.507   7.770 -0.0398  0.1400 -0.0918
 4775POPC   PO457818  13.319  14.594   7.587 -0.0057 -0.0009  0.0649
 4775POPC   GL157819  13.210  14.660   7.209  0.0485  0.0607 -0.5850
 4775POPC   GL257820  13.001  14.561   7.185  0.0915  0.2822 -0.0126
 4775POPC   C1A57821  13.173  14.920   6.839  0.1682  0.0419  0.2376
 4775POPC   D2A57822  13.260  14.827   6.385  0.1294 -0.0309  0.2364
 4775POPC   C3A57823  13.122  15.076   6.041 -0.3461  0.0280  0.0233
 4775POPC   C4A57824  12.800  14.866   5.756  0.1504 -0.0815 -0.0200
 4775POPC   C1B57825  13.138  14.424   6.785  0.1625  0.2807 -0.1889
 4775POPC   C2B57826  13.195  14.205   6.382  0.0924  0.2411  0.1845
 4775POPC   C3B57827  12.978  13.952   6.092  0.3334  0.0782 -0.4518
 4775POPC   C4B57828  12.726  13.600   6.218  0.0085  0.2022 -0.0990
 4776POPC   NC357829  26.089  10.812   7.835 -0.0635 -0.1869  0.2025
 4776POPC   PO457830  25.931  11.203   7.881 -0.2929 -0.0558 -0.0934
 4776POPC   GL157831  25.797  11.145   7.447 -0.0435 -0.0082 -0.1986
 4776POPC   GL257832  25.975  11.202   7.282 -0.1679  0.0225  0.1699
 4776POPC   C1A57833  25.428  11.073   7.200 -0.0124  0.2364  0.1443
 4776POPC   D2A57834  25.165  10.684   7.094 -0.0267 -0.0077 -0.2807
 4776POPC   C3A57835  25.244  10.384   6.807  0.1862  0.1334 -0.2589
 4776POPC   C4A57836  25.450  10.162   6.474 -0.0199 -0.2318  0.1054
 4776POPC   C1B57837  25.842  11.132   6.891  0.1256 -0.3218 -0.0459
 4776POPC   C2B57838  25.653  10.978   6.512  0.2983  0.0795  0.0378
 4776POPC   C3B57839  25.351  10.673   6.356 -0.0383  0.0374 -0.0913
 4776POPC   C4B57840  24.977  10.377   6.303 -0.0479 -0.0258 -0.0732
 4777POPC   NC357841  15.841  23.838   7.411  0.1148  0.1522  0.0033
 4777POPC   PO457842  15.536  23.695   7.632 -0.2733  0.0922 -0.0968
 4777POPC   GL157843  15.415  23.973   7.354  0.3000 -0.1419 -0.1592
 4777POPC   GL257844  15.261  24.196   7.355  0.0894  0.2742 -0.1057
 4777POPC   C1A57845  15.547  23.919   6.866 -0.1926  0.2751  0.3729
 4777POPC   D2A57846  15.542  24.154   6.440 -0.1200  0.1560 -0.0568
 4777POPC   C3A57847  15.476  24.611   6.476  0.0667  0.5303  0.1059
 4777POPC   C4A57848  15.147  24.931   6.374 -0.1092  0.0914  0.2998
 4777POPC   C1B57849  15.072  23.934   7.009 -0.1745  0.0890 -0.1492
 4777POPC   C2B57850  15.083  23.945   6.591 -0.1115 -0.4469  0.2847
 4777POPC   C3B57851  15.154  23.663   6.290 -0.1786  0.2387  0.1897
 4777POPC   C4B57852  15.116  23.234   6.319 -0.1755  0.0564  0.0407
 4778POPC   NC357853   5.881  19.570   7.608 -0.0811  0.3522 -0.0830
 4778POPC   PO457854   6.059  19.884   7.514  0.0104 -0.5239 -0.1423
 4778POPC   GL157855   6.251  20.101   7.204 -0.2766  0.1415 -0.2166
 4778POPC   GL257856   6.034  20.034   7.032  0.0690  0.1217  0.1569
 4778POPC   C1A57857   6.544  20.285   6.942  0.0300  0.1207  0.0171
 4778POPC   D2A57858   6.596  20.258   6.461 -0.0034 -0.4071 -0.0146
 4778POPC   C3A57859   6.530  20.449   6.046 -0.1312 -0.1475  0.3642
 4778POPC   C4A57860   6.550  20.850   5.751 -0.0047  0.2396  0.0503
 4778POPC   C1B57861   6.153  20.066   6.588 -0.1357  0.0434 -0.1906
 4778POPC   C2B57862   6.021  20.219   6.173  0.0555  0.2882  0.1210
 4778POPC   C3B57863   5.861  20.309   5.769  0.5382  0.2118 -0.4174
 4778POPC   C4B57864   5.482  20.467   5.564  0.0382  0.0096 -0.0099
 4779POPC   NC357865   5.016  30.956   7.781  0.0342 -0.0105  0.1625
 4779POPC   PO457866   5.400  31.025   7.884 -0.1822 -0.1269  0.1134
 4779POPC   GL157867   5.286  31.156   7.453  0.2458  0.2244 -0.0487
 4779POPC   GL257868   5.121  30.995   7.228  0.1394 -0.0235  0.0416
 4779POPC   C1A57869   5.542  31.108   7.089 -0.0542 -0.0019  0.2095
 4779POPC   D2A57870   5.630  31.303   6.681 -0.1439 -0.0823 -0.1979
 4779POPC   C3A57871   5.635  31.303   6.260 -0.1716  0.0992 -0.0179
 4779POPC   C4A57872   5.764  31.209   5.857 -0.0416  0.2051 -0.0140
 4779POPC   C1B57873   5.261  30.845   6.782  0.3376 -0.0373 -0.0740
 4779POPC   C2B57874   5.162  30.560   6.372 -0.0465  0.0302 -0.0107
 4779POPC   C3B57875   5.104  30.587   5.904  0.1324  0.0163 -0.2805
 4779POPC   C4B57876   4.765  30.633   5.603 -0.0859 -0.1075  0.4434
 4780POPC   NC357877  19.997  20.307   7.672  0.1084 -0.0757 -0.1208
 4780POPC   PO457878  19.601  20.334   7.756 -0.0165 -0.1013 -0.0414
 4780POPC   GL157879  19.473  20.551   7.361  0.1163  0.1702  0.3192
 4780POPC   GL257880  19.748  20.540   7.241  0.0247 -0.0547  0.1197
 4780POPC   C1A57881  19.604  21.014   7.225  0.1176  0.0708 -0.2002
 4780POPC   D2A57882  19.578  21.362   6.953 -0.0147  0.1908  0.0722
 4780POPC   C3A57883  19.900  21.350   6.661 -0.1822  0.0344 -0.0088
 4780POPC   C4A57884  20.379  21.314   6.725  0.0237  0.2340  0.2233
 4780POPC   C1B57885  19.479  20.324   6.936  0.0420  0.1243 -0.1724
 4780POPC   C2B57886  19.462  20.199   6.501 -0.0050 -0.1249 -0.0263
 4780POPC   C3B57887  19.536  20.187   5.991  0.3649  0.1804  0.0221
 4780POPC   C4B57888  19.569  20.307   5.546 -0.0658 -0.0038  0.2376
 4781POPC   NC357889  10.205  14.147   7.874  0.1140  0.0513 -0.1130
 4781POPC   PO457890  10.413  14.326   7.578 -0.1048  0.1403  0.4210
 4781POPC   GL157891  10.382  14.101   7.192 -0.2710 -0.0007 -0.0611
 4781POPC   GL257892  10.680  13.970   7.181  0.0169 -0.2614 -0.0795
 4781POPC   C1A57893  10.350  13.920   6.779 -0.2295 -0.0934 -0.2807
 4781POPC   D2A57894  10.361  13.862   6.326 -0.0316  0.2487  0.0198
 4781POPC   C3A57895  10.460  13.593   5.973 -0.2276  0.0914  0.0280
 4781POPC   C4A57896  10.344  13.106   5.906  0.2483  0.2579  0.1600
 4781POPC   C1B57897  10.868  13.700   6.872 -0.0115 -0.0190 -0.1918
 4781POPC   C2B57898  10.789  13.567   6.441  0.0131 -0.0525 -0.2371
 4781POPC   C3B57899  10.857  13.202   6.142  0.2322  0.3073  0.2799
 4781POPC   C4B57900  10.909  12.781   5.943 -0.1588 -0.2085 -0.1578
 4782POPC   NC357901  13.449  17.683   7.630 -0.3972 -0.0405  0.2046
 4782POPC   PO457902  13.078  17.819   7.636  0.0756  0.0075  0.0871
 4782POPC   GL157903  13.225  17.953   7.308 -0.1671 -0.1211  0.0000
 4782POPC   GL257904  13.009  17.909   7.076  0.1530 -0.3379  0.1423
 4782POPC   C1A57905  13.481  17.866   6.918  0.2423 -0.0611  0.0444
 4782POPC   D2A57906  13.567  17.817   6.425 -0.0812 -0.0314  0.0491
 4782POPC   C3A57907  13.609  17.947   5.982  0.4327  0.0285 -0.1492
 4782POPC   C4A57908  13.484  17.727   5.521  0.2776  0.0267 -0.0659
 4782POPC   C1B57909  13.033  17.965   6.623 -0.0134 -0.0343  0.1070
 4782POPC   C2B57910  13.125  17.970   6.171 -0.1050 -0.0692  0.2381
 4782POPC   C3B57911  13.231  18.174   5.738  0.2297  0.3060 -0.1904
 4782POPC   C4B57912  13.295  18.419   5.347 -0.1289 -0.2508  0.1313
 4783POPC   NC357913  23.179  15.250   7.897 -0.0385 -0.4440 -0.0990
 4783POPC   PO457914  23.541  15.208   7.983 -0.1764 -0.0306  0.0994
 4783POPC   GL157915  23.695  15.484   8.244  0.0244  0.1185 -0.2206
 4783POPC   GL257916  23.464  15.689   8.286  0.1694  0.1322  0.4026
 4783POPC   C1A57917  24.062  15.645   8.491  0.0181  0.0849  0.0641
 4783POPC   D2A57918  24.532  15.790   8.588 -0.0368  0.1935 -0.4863
 4783POPC   C3A57919  24.318  16.147   8.344 -0.1881  0.0423  0.5289
 4783POPC   C4A57920  24.219  16.337   7.934  0.1475 -0.2152 -0.2861
 4783POPC   C1B57921  23.562  16.038   8.020 -0.0159  0.0566  0.1555
 4783POPC   C2B57922  23.776  16.321   7.682 -0.3882  0.1577 -0.0737
 4783POPC   C3B57923  24.100  16.532   7.478 -0.2451 -0.3115  0.1774
 4783POPC   C4B57924  24.539  16.451   7.392 -0.0676 -0.0614 -0.0118
 4784POPC   NC357925  22.567  15.906   9.108 -0.3422  0.1007  0.0265
 4784POPC   PO457926  22.365  15.889   8.741 -0.3646 -0.3051 -0.1202
 4784POPC   GL157927  22.731  16.136   8.716 -0.0766  0.1122 -0.1544
 4784POPC   GL257928  22.892  16.097   8.435 -0.4595  0.0282 -0.2010
 4784POPC   C1A57929  22.756  16.603   8.674  0.0243  0.0984 -0.0105
 4784POPC   D2A57930  22.910  17.021   8.778 -0.1622 -0.1113  0.0122
 4784POPC   C3A57931  22.889  17.283   9.100  0.0100 -0.2142  0.0936
 4784POPC   C4A57932  23.128  17.605   9.316  0.0102 -0.2595 -0.3116
 4784POPC   C1B57933  23.282  16.406   8.416  0.1447 -0.2558 -0.4294
 4784POPC   C2B57934  23.414  16.796   8.624  0.3083 -0.2962 -0.3809
 4784POPC   C3B57935  23.565  17.231   8.563 -0.0154 -0.0560  0.0300
 4784POPC   C4B57936  23.743  17.659   8.520  0.0228 -0.0978 -0.4076
 4785POPC   NC357937  10.080  19.610   7.975  0.4919  0.0044 -0.2624
 4785POPC   PO457938   9.837  19.374   7.758 -0.0563  0.3486  0.1415
 4785POPC   GL157939  10.164  19.391   7.487  0.2884  0.0797  0.1090
 4785POPC   GL257940   9.988  19.212   7.268  0.1545 -0.1644 -0.1823
 4785POPC   C1A57941  10.188  19.671   7.096  0.0086 -0.1286 -0.1600
 4785POPC   D2A57942  10.246  20.013   6.790  0.1187  0.4832  0.2174
 4785POPC   C3A57943  10.017  20.034   6.440 -0.0899 -0.2017  0.1766
 4785POPC   C4A57944   9.763  19.917   6.070 -0.0752 -0.0100  0.1169
 4785POPC   C1B57945   9.950  19.279   6.829  0.0284 -0.2256  0.2171
 4785POPC   C2B57946   9.832  19.460   6.405 -0.2050  0.0425 -0.3002
 4785POPC   C3B57947   9.464  19.462   6.138 -0.0843 -0.1424 -0.1856
 4785POPC   C4B57948   9.312  19.302   5.782  0.0085  0.0231  0.0082
 4786POPC   NC357949  29.813   6.094   7.542 -0.0584  0.2722  0.2973
 4786POPC   PO457950  29.756   5.703   7.624  0.0593 -0.1486 -0.0061
 4786POPC   GL157951  29.837   5.557   7.261  0.2237  0.0956  0.6541
 4786POPC   GL257952  29.807   5.214   7.305 -0.1696  0.1385  0.0782
 4786POPC   C1A57953  29.759   5.706   6.821  0.1398  0.4122 -0.0605
 4786POPC   D2A57954  30.073   5.753   6.473  0.1248  0.0355  0.2054
 4786POPC   C3A57955  30.090   5.613   5.993 -0.1485  0.1464 -0.2374
 4786POPC   C4A57956  30.245   5.308   5.598 -0.0223 -0.0065 -0.2838
 4786POPC   C1B57957  29.729   5.205   6.866  0.0929 -0.2128  0.1446
 4786POPC   C2B57958  29.578   5.336   6.436  0.0508 -0.1343  0.1085
 4786POPC   C3B57959  29.559   5.125   5.994  0.0120  0.0951 -0.0082
 4786POPC   C4B57960  29.658   5.369   5.571  0.1468  0.1214 -0.1474
 4787POPC   NC357961   8.725  24.559   7.108  0.1387  0.0865  0.0902
 4787POPC   PO457962   8.413  24.591   7.355 -0.1004 -0.2726 -0.1352
 4787POPC   GL157963   8.270  24.345   7.107  0.2092  0.0450 -0.0810
 4787POPC   GL257964   8.372  24.392   6.857 -0.0823 -0.2684  0.1817
 4787POPC   C1A57965   8.063  24.060   6.770 -0.1426 -0.0005 -0.2746
 4787POPC   D2A57966   7.865  23.744   6.476  0.1501 -0.0396 -0.2890
 4787POPC   C3A57967   7.506  23.770   6.179  0.0083 -0.0595  0.4912
 4787POPC   C4A57968   7.484  23.681   5.722  0.1236 -0.0931  0.3124
 4787POPC   C1B57969   8.101  24.482   6.439  0.0807  0.1967  0.0606
 4787POPC   C2B57970   7.885  24.796   6.177 -0.4667  0.0898 -0.0727
 4787POPC   C3B57971   7.868  25.053   5.775 -0.1175  0.0824 -0.2768
 4787POPC   C4B57972   7.938  24.979   5.341  0.1519 -0.0755 -0.0592
 4788POPC   NC357973  19.589   5.405   7.522  0.2915  0.2306 -0.1454
 4788POPC   PO457974  19.468   5.006   7.439  0.0886 -0.3769 -0.0949
 4788POPC   GL157975  19.522   5.223   7.085 -0.1523  0.1772  0.2173
 4788POPC   GL257976  19.826   5.254   7.055  0.2433  0.0385  0.1362
 4788POPC   C1A57977  19.274   5.339   6.705 -0.0591  0.0842  0.0963
 4788POPC   D2A57978  19.183   5.599   6.339  0.0891 -0.1253 -0.0547
 4788POPC   C3A57979  18.954   5.670   5.957  0.0072 -0.1581  0.0966
 4788POPC   C4A57980  18.662   5.484   5.673  0.2077  0.1863  0.0812
 4788POPC   C1B57981  20.148   5.205   6.725 -0.1455 -0.0276  0.0775
 4788POPC   C2B57982  20.406   5.309   6.325  0.0174 -0.0460 -0.2970
 4788POPC   C3B57983  20.727   5.236   6.013 -0.1656 -0.2016 -0.0882
 4788POPC   C4B57984  20.863   5.040   5.657 -0.3485 -0.3283 -0.1043
 4789POPC   NC357985  17.473  17.415   8.554 -0.1856  0.1515 -0.0430
 4789POPC   PO457986  17.564  17.260   8.199  0.2040 -0.1441  0.1560
 4789POPC   GL157987  17.424  17.286   7.819  0.1456 -0.3948  0.1470
 4789POPC   GL257988  17.217  17.160   7.664 -0.0385 -0.0287  0.2093
 4789POPC   C1A57989  17.701  17.201   7.416  0.0192 -0.0432  0.0102
 4789POPC   D2A57990  17.641  17.071   6.990  0.1319  0.0702 -0.0505
 4789POPC   C3A57991  17.398  17.339   6.656 -0.1491  0.1398  0.1493
 4789POPC   C4A57992  17.341  17.412   6.175 -0.0739 -0.1769 -0.1405
 4789POPC   C1B57993  17.262  16.910   7.236  0.0131  0.0243 -0.1197
 4789POPC   C2B57994  17.280  16.881   6.752  0.1257 -0.1004  0.1390
 4789POPC   C3B57995  17.276  16.890   6.272 -0.1723 -0.1179 -0.1819
 4789POPC   C4B57996  17.039  16.692   5.898 -0.2715 -0.0193 -0.0099
 4790POPC   NC357997  11.029  19.408   7.654 -0.2868 -0.2977 -0.2382
 4790POPC   PO457998  11.135  19.051   7.765 -0.0829 -0.1262 -0.2248
 4790POPC   GL157999  11.183  19.062   7.365 -0.1148  0.0431  0.0243
 4790POPC   GL258000  11.436  19.252   7.265 -0.0152  0.4226  0.0522
 4790POPC   C1A58001  11.020  19.436   7.065 -0.0560  0.0420 -0.1435
 4790POPC   D2A58002  10.542  19.422   6.827 -0.0684  0.4438  0.0307
 4790POPC   C3A58003  10.292  19.620   6.425  0.1266 -0.2223 -0.1432
 4790POPC   C4A58004  10.097  19.525   6.024  0.0801  0.2917  0.0632
 4790POPC   C1B58005  11.289  19.073   6.865 -0.4998  0.2665  0.1250
 4790POPC   C2B58006  10.981  19.273   6.572 -0.2663 -0.0181 -0.1842
 4790POPC   C3B58007  10.679  19.422   6.235 -0.1170  0.0512  0.1842
 4790POPC   C4B58008  10.534  19.622   5.775  0.6559  0.2563 -0.2933
 4791POPC   NC358009  30.992  10.972   7.374 -0.3135 -0.0006 -0.0843
 4791POPC   PO458010  30.819  11.281   7.600 -0.1634 -0.2439  0.2738
 4791POPC   GL158011  30.918  11.393   7.154  0.1676  0.0527  0.2014
 4791POPC   GL258012  31.008  11.684   7.079 -0.2563  0.2864  0.0929
 4791POPC   C1A58013  30.775  11.288   6.725 -0.1423  0.0811  0.0564
 4791POPC   D2A58014  30.824  11.427   6.292  0.0593 -0.2992  0.0779
 4791POPC   C3A58015  30.478  11.554   5.990  0.0235 -0.2109 -0.0566
 4791POPC   C4A58016  30.321  11.913   5.686 -0.2326 -0.2557  0.1313
 4791POPC   C1B58017  31.042  11.841   6.599  0.1531 -0.0843 -0.2099
 4791POPC   C2B58018  31.270  11.896   6.230 -0.0105 -0.2988 -0.0443
 4791POPC   C3B58019  31.352  12.114   5.840 -0.1817  0.2656  0.1030
 4791POPC   C4B58020  31.628  11.906   5.459  0.2810  0.3106  0.2990
 4792POPC   NC358021  12.066  14.958   8.180 -0.0560 -0.0652 -0.2088
 4792POPC   PO458022  11.769  15.058   7.903  0.0326  0.3904 -0.2301
 4792POPC   GL158023  11.886  14.867   7.540  0.0348  0.2885 -0.1131
 4792POPC   GL258024  12.129  14.990   7.427  0.1239  0.2193 -0.0959
 4792POPC   C1A58025  11.763  14.805   7.108  0.0547 -0.1979  0.0727
 4792POPC   D2A58026  11.822  14.891   6.676  0.1094 -0.1249 -0.0790
 4792POPC   C3A58027  12.112  14.727   6.369 -0.0450  0.1450  0.2679
 4792POPC   C4A58028  12.433  14.741   6.012  0.3145  0.0563 -0.0782
 4792POPC   C1B58029  12.205  15.069   7.012 -0.1762  0.0424  0.0200
 4792POPC   C2B58030  12.291  15.128   6.594 -0.1861 -0.1729  0.0691
 4792POPC   C3B58031  12.153  15.166   6.117  0.1096  0.2612 -0.5305
 4792POPC   C4B58032  11.903  14.901   5.810 -0.1317  0.0206  0.1905
 4793POPC   NC358033  30.656   4.566   7.882 -0.4043  0.0012  0.1392
 4793POPC   PO458034  31.024   4.526   7.950 -0.1678  0.2261  0.1337
 4793POPC   GL158035  31.002   4.237   7.733  0.2591  0.0842  0.0835
 4793POPC   GL258036  30.854   4.259   7.531 -0.1549 -0.1518  0.2354
 4793POPC   C1A58037  31.237   3.874   7.540  0.2576 -0.2825 -0.3518
 4793POPC   D2A58038  31.627   3.723   7.684 -0.0348 -0.3387  0.0586
 4793POPC   C3A58039  32.052   3.601   7.414  0.1419  0.0418 -0.1764
 4793POPC   C4A58040  32.441   3.403   7.245  0.0693 -0.0225 -0.1461
 4793POPC   C1B58041  31.046   4.408   7.077 -0.2332  0.4763 -0.2038
 4793POPC   C2B58042  30.929   4.622   6.699 -0.2814  0.1329  0.3258
 4793POPC   C3B58043  30.921   4.661   6.253 -0.1509  0.0312 -0.2069
 4793POPC   C4B58044  30.635   4.650   5.888  0.1510 -0.1338  0.0515
 4794POPC   NC358045  13.955  30.952   7.717 -0.1241 -0.1832  0.2708
 4794POPC   PO458046  14.259  30.721   7.811 -0.1512 -0.1505  0.4066
 4794POPC   GL158047  14.305  30.678   7.422  0.4377 -0.2726 -0.2047
 4794POPC   GL258048  14.276  30.914   7.340 -0.6133  0.0534 -0.2322
 4794POPC   C1A58049  14.035  30.480   7.084 -0.2571 -0.4631 -0.2383
 4794POPC   D2A58050  13.818  30.368   6.686 -0.1940  0.6763 -0.2206
 4794POPC   C3A58051  13.915  29.948   6.491  0.0865  0.0538 -0.0839
 4794POPC   C4A58052  14.031  29.788   6.152  0.2386 -0.0047 -0.1638
 4794POPC   C1B58053  14.403  30.818   6.948  0.1600 -0.0411  0.0194
 4794POPC   C2B58054  14.249  30.608   6.609  0.1910 -0.2804 -0.1490
 4794POPC   C3B58055  14.113  30.356   6.220  0.0648 -0.0354  0.0840
 4794POPC   C4B58056  14.108  30.162   5.868 -0.1122 -0.1279  0.0004
 4795POPC   NC358057   9.442   3.802   8.101 -0.3250  0.1662  0.1682
 4795POPC   PO458058   9.142   3.934   7.921  0.0253 -0.0339 -0.2541
 4795POPC   GL158059   9.204   3.539   7.743 -0.1846 -0.0375  0.0413
 4795POPC   GL258060   9.436   3.681   7.620 -0.4046  0.0100  0.0352
 4795POPC   C1A58061   9.320   3.094   7.859 -0.3266 -0.3820  0.1298
 4795POPC   D2A58062   9.189   2.685   7.937 -0.1309 -0.2490 -0.1455
 4795POPC   C3A58063   9.409   2.612   7.535 -0.0837  0.2409  0.0894
 4795POPC   C4A58064   9.845   2.681   7.315 -0.2219 -0.0791  0.1361
 4795POPC   C1B58065   9.479   3.236   7.406  0.0858  0.3008  0.2030
 4795POPC   C2B58066   9.457   2.927   7.048 -0.1869 -0.0462 -0.4998
 4795POPC   C3B58067   9.604   2.566   6.846 -0.3599 -0.5140  0.0221
 4795POPC   C4B58068   9.447   2.290   6.519  0.1104 -0.0394  0.1024
 4796POPC   NC358069  22.445  16.120   8.209  0.1875  0.0831 -0.2651
 4796POPC   PO458070  22.085  16.062   8.022 -0.3052 -0.2607  0.1224
 4796POPC   GL158071  22.303  16.110   7.726 -0.5295 -0.1182  0.3023
 4796POPC   GL258072  22.517  15.986   7.706 -0.1747 -0.0059 -0.1591
 4796POPC   C1A58073  22.340  16.484   7.377 -0.0731 -0.0098 -0.2263
 4796POPC   D2A58074  22.629  16.663   7.082  0.1511 -0.0616  0.0854
 4796POPC   C3A58075  22.771  16.657   6.665 -0.0054 -0.3093  0.0639
 4796POPC   C4A58076  22.782  16.861   6.256  0.1401  0.1804 -0.3057
 4796POPC   C1B58077  22.777  16.188   7.363 -0.1457 -0.2473  0.1675
 4796POPC   C2B58078  23.090  16.379   6.997 -0.0763 -0.0878 -0.2971
 4796POPC   C3B58079  23.337  16.564   6.663 -0.1427  0.0953 -0.1321
 4796POPC   C4B58080  23.623  16.912   6.593  0.2732 -0.0211  0.0937
 4797POPC   NC358081   3.683  23.585   8.696 -0.2443 -0.0922  0.1771
 4797POPC   PO458082   3.954  23.846   8.514  0.0484  0.1571 -0.3328
 4797POPC   GL158083   3.716  23.752   8.191 -0.1685  0.1254  0.0299
 4797POPC   GL258084   3.527  23.535   8.202 -0.0630 -0.0682 -0.0860
 4797POPC   C1A58085   3.637  24.005   7.763 -0.1353  0.2152  0.3205
 4797POPC   D2A58086   3.601  24.232   7.342  0.0065  0.1379 -0.0735
 4797POPC   C3A58087   3.846  24.107   6.942 -0.0283 -0.0111  0.1660
 4797POPC   C4A58088   3.965  24.163   6.534 -0.1300 -0.0178  0.2013
 4797POPC   C1B58089   3.798  23.477   7.851 -0.0090  0.1679  0.1083
 4797POPC   C2B58090   3.939  23.665   7.462  0.4241  0.1010 -0.1077
 4797POPC   C3B58091   4.089  23.656   7.018  0.0024  0.0521 -0.2238
 4797POPC   C4B58092   4.359  23.871   6.684  0.1417  0.5788  0.0640
 4798POPC   NC358093   3.045   5.168   8.001  0.1120  0.4543 -0.0806
 4798POPC   PO458094   3.443   5.161   7.839  0.0420 -0.0908 -0.1879
 4798POPC   GL158095   3.528   5.063   7.471  0.0375 -0.0308  0.0776
 4798POPC   GL258096   3.753   5.078   7.347 -0.2263 -0.2750 -0.0529
 4798POPC   C1A58097   3.376   5.240   7.071  0.2586 -0.0665  0.1930
 4798POPC   D2A58098   3.270   5.109   6.690  0.0103  0.0882  0.1662
 4798POPC   C3A58099   3.603   5.345   6.434 -0.1569 -0.2134 -0.1561
 4798POPC   C4A58100   3.833   5.584   6.069 -0.2275  0.0652  0.1150
 4798POPC   C1B58101   3.990   5.257   6.980  0.2297 -0.1504 -0.1892
 4798POPC   C2B58102   4.118   5.418   6.552  0.0827 -0.2821  0.0915
 4798POPC   C3B58103   4.422   5.390   6.299 -0.0295  0.0322  0.1532
 4798POPC   C4B58104   4.814   5.286   6.317 -0.2699 -0.0536  0.2117
 4799POPC   NC358105  10.145  29.516   8.004 -0.6265  0.1019 -0.3097
 4799POPC   PO458106  10.286  29.128   7.908 -0.0528  0.0971  0.0575
 4799POPC   GL158107  10.359  28.761   7.716 -0.0155  0.2354  0.2076
 4799POPC   GL258108  10.601  28.847   7.601  0.2328 -0.1738  0.0282
 4799POPC   C1A58109  10.116  28.680   7.316 -0.0373 -0.0966  0.1921
 4799POPC   D2A58110   9.752  28.779   7.098  0.3339  0.0928  0.1528
 4799POPC   C3A58111   9.764  28.808   6.633 -0.1376 -0.0752 -0.2462
 4799POPC   C4A58112   9.841  28.492   6.302  0.0254 -0.0846 -0.1165
 4799POPC   C1B58113  10.840  29.191   7.391 -0.1791 -0.0307  0.0299
 4799POPC   C2B58114  10.976  29.190   6.934  0.1311 -0.1083  0.1419
 4799POPC   C3B58115  11.148  29.240   6.526 -0.4602  0.0324 -0.0089
 4799POPC   C4B58116  11.199  29.059   6.105 -0.0285 -0.0460 -0.2118
 4800POPC   NC358117   4.229  22.033   7.862  0.2077  0.2078  0.1604
 4800POPC   PO458118   4.383  22.198   8.167  0.2684 -0.1018 -0.0173
 4800POPC   GL158119   4.416  22.447   7.859 -0.0452 -0.5342 -0.1154
 4800POPC   GL258120   4.196  22.658   7.893 -0.3144 -0.2819  0.1775
 4800POPC   C1A58121   4.392  22.317   7.435 -0.0431  0.3461 -0.1772
 4800POPC   D2A58122   4.344  22.592   6.988  0.0346  0.3085 -0.2326
 4800POPC   C3A58123   4.433  22.960   6.735 -0.0538 -0.2899  0.0552
 4800POPC   C4A58124   4.354  22.934   6.252  0.1665  0.1217 -0.5494
 4800POPC   C1B58125   4.312  23.074   7.961 -0.2267  0.0594 -0.3438
 4800POPC   C2B58126   4.618  23.406   8.055  0.1654 -0.0294  0.1731
 4800POPC   C3B58127   5.023  23.492   8.219 -0.0799  0.2517  0.0981
 4800POPC   C4B58128   5.293  23.781   8.382 -0.2532 -0.1428 -0.0573
 4801POPC   NC358129   4.720   9.008   7.992 -0.0849 -0.0921  0.0063
 4801POPC   PO458130   4.424   8.999   7.726 -0.0632 -0.0769 -0.0865
 4801POPC   GL158131   4.598   9.320   7.491 -0.2335 -0.0022 -0.0939
 4801POPC   GL258132   4.411   9.301   7.295 -0.1339  0.2099 -0.0542
 4801POPC   C1A58133   4.759   9.712   7.235  0.0442 -0.0768 -0.0107
 4801POPC   D2A58134   4.828   9.662   6.758  0.3146 -0.1883  0.0435
 4801POPC   C3A58135   4.775   9.292   6.493  0.0561 -0.2183  0.2271
 4801POPC   C4A58136   4.874   9.059   6.093 -0.2160  0.0698 -0.1943
 4801POPC   C1B58137   4.467   9.225   6.851 -0.0913 -0.0382 -0.3464
 4801POPC   C2B58138   4.321   9.071   6.445  0.0875  0.0345 -0.0011
 4801POPC   C3B58139   4.335   8.936   5.991  0.1302  0.0041 -0.0036
 4801POPC   C4B58140   4.662   8.766   5.657  0.0793  0.0124 -0.4819
 4802POPC   NC358141  23.442  20.742   7.956 -0.3928  0.0490  0.1419
 4802POPC   PO458142  23.643  20.900   7.673  0.2001  0.1995  0.1786
 4802POPC   GL158143  23.608  20.946   7.324  0.1984 -0.2885  0.0052
 4802POPC   GL258144  23.777  21.039   7.136 -0.0501 -0.0516 -0.2635
 4802POPC   C1A58145  23.276  20.931   6.994 -0.2359  0.0032  0.0406
 4802POPC   D2A58146  22.940  21.067   6.718  0.0598 -0.0202 -0.0803
 4802POPC   C3A58147  22.837  21.151   6.291 -0.2346  0.1493 -0.1248
 4802POPC   C4A58148  22.613  20.946   5.939 -0.0299  0.1207 -0.0499
 4802POPC   C1B58149  23.840  21.203   6.669  0.2560  0.1268 -0.1798
 4802POPC   C2B58150  23.831  21.164   6.216 -0.2007  0.0892  0.0379
 4802POPC   C3B58151  23.854  20.903   5.830  0.0754 -0.0720  0.0837
 4802POPC   C4B58152  24.047  20.645   5.437  0.1761 -0.0594  0.0183
 4803POPC   NC358153  19.891   3.269   7.555 -0.2914  0.2022  0.1510
 4803POPC   PO458154  20.250   3.125   7.564  0.0741 -0.0021  0.0892
 4803POPC   GL158155  20.266   3.136   7.101  0.0456 -0.1592 -0.2370
 4803POPC   GL258156  20.180   2.868   7.095 -0.0142 -0.0642  0.2395
 4803POPC   C1A58157  20.537   3.171   6.718  0.0900 -0.2174 -0.0183
 4803POPC   D2A58158  20.418   2.968   6.335  0.2218  0.1092 -0.0437
 4803POPC   C3A58159  20.717   2.950   5.982 -0.2128  0.0058 -0.2575
 4803POPC   C4A58160  21.089   3.092   5.796  0.4159 -0.0784 -0.1333
 4803POPC   C1B58161  20.014   2.954   6.637  0.1238  0.0182  0.0304
 4803POPC   C2B58162  19.802   2.997   6.261  0.0248  0.0285  0.2097
 4803POPC   C3B58163  19.469   3.074   5.903  0.0386  0.1206 -0.0396
 4803POPC   C4B58164  19.021   3.085   5.764  0.0316 -0.0356  0.2235
 4804POPC   NC358165  31.045   1.975   8.034 -0.0519 -0.0781 -0.0126
 4804POPC   PO458166  30.650   1.867   8.018 -0.1531  0.1051 -0.1247
 4804POPC   GL158167  30.334   1.814   7.695  0.3330 -0.0432  0.1544
 4804POPC   GL258168  30.056   1.780   7.624 -0.0587  0.0271  0.0998
 4804POPC   C1A58169  30.446   1.842   7.245  0.2638  0.0547  0.0008
 4804POPC   D2A58170  30.397   2.017   6.820  0.1907  0.1769 -0.0039
 4804POPC   C3A58171  30.255   1.925   6.411 -0.1379  0.0051  0.1467
 4804POPC   C4A58172  30.012   1.857   6.017  0.0560 -0.3070 -0.0699
 4804POPC   C1B58173  30.042   1.516   7.244 -0.0787 -0.0565  0.0791
 4804POPC   C2B58174  30.144   1.515   6.781  0.4415  0.2600  0.1575
 4804POPC   C3B58175  29.952   1.459   6.360  0.1456 -0.0754  0.0595
 4804POPC   C4B58176  29.757   1.444   5.945 -0.0568 -0.0143 -0.0405
 4805POPC   NC358177  18.525  11.217   8.008 -0.0037  0.0177  0.1258
 4805POPC   PO458178  18.879  11.279   8.134 -0.0406  0.1302 -0.2748
 4805POPC   GL158179  18.955  11.100   7.763  0.2585 -0.0581 -0.0012
 4805POPC   GL258180  18.817  11.209   7.584 -0.1160 -0.0179 -0.1728
 4805POPC   C1A58181  18.982  10.729   7.490 -0.2421 -0.2361  0.1722
 4805POPC   D2A58182  19.045  10.276   7.363  0.2097 -0.2967  0.1628
 4805POPC   C3A58183  19.253  10.139   7.736  0.0079 -0.0564 -0.1065
 4805POPC   C4A58184  19.120   9.809   8.034  0.2181 -0.2010 -0.4619
 4805POPC   C1B58185  18.809  11.073   7.145 -0.2531 -0.2099 -0.0690
 4805POPC   C2B58186  18.633  11.288   6.733  0.1544  0.5325 -0.4187
 4805POPC   C3B58187  18.608  11.282   6.284 -0.2043 -0.2653 -0.0056
 4805POPC   C4B58188  18.568  11.350   5.854 -0.2033  0.4596  0.2415
 4806POPC   NC358189  16.176  21.615   8.025 -0.1103 -0.0392 -0.3302
 4806POPC   PO458190  16.316  21.326   7.749  0.1711  0.1013  0.0809
 4806POPC   GL158191  16.279  21.674   7.523 -0.0362 -0.2123 -0.0467
 4806POPC   GL258192  16.058  21.504   7.282  0.0990  0.0241  0.0672
 4806POPC   C1A58193  16.262  21.919   7.092 -0.0682 -0.3406 -0.1542
 4806POPC   D2A58194  16.126  21.918   6.653  0.1404  0.0307 -0.2902
 4806POPC   C3A58195  16.139  22.207   6.299  0.0439  0.2830 -0.0645
 4806POPC   C4A58196  16.131  22.186   5.816 -0.3840 -0.3588  0.0312
 4806POPC   C1B58197  15.829  21.664   6.973  0.4076  0.0729  0.0581
 4806POPC   C2B58198  15.598  21.576   6.592  0.0323 -0.0203  0.1876
 4806POPC   C3B58199  15.220  21.525   6.327  0.0829  0.0204  0.1914
 4806POPC   C4B58200  15.002  21.528   5.910 -0.3283  0.2779  0.0068
 4807POPC   NC358201  15.863   2.607   8.164  0.2793 -0.1768  0.1508
 4807POPC   PO458202  15.898   2.926   7.962 -0.2104  0.0924  0.0765
 4807POPC   GL158203  16.022   2.950   7.649  0.3019  0.0778 -0.2786
 4807POPC   GL258204  16.116   2.737   7.423  0.0313 -0.1108  0.0197
 4807POPC   C1A58205  15.985   3.316   7.384 -0.3439  0.0273 -0.3829
 4807POPC   D2A58206  16.118   3.696   7.158 -0.0566  0.0657  0.1383
 4807POPC   C3A58207  16.302   3.542   6.745 -0.1522 -0.1842  0.2698
 4807POPC   C4A58208  16.510   3.514   6.344 -0.0684 -0.0115  0.1518
 4807POPC   C1B58209  16.070   2.738   6.978  0.2699  0.4891  0.3106
 4807POPC   C2B58210  16.148   2.854   6.547 -0.0485  0.0145  0.0923
 4807POPC   C3B58211  16.130   2.997   6.103 -0.1338  0.2408 -0.2501
 4807POPC   C4B58212  16.133   3.107   5.615 -0.0921  0.0492 -0.1708
 4808POPC   NC358213  29.188  22.071   8.109 -0.0803  0.4576 -0.0099
 4808POPC   PO458214  28.948  21.909   7.846  0.1957 -0.3012 -0.3051
 4808POPC   GL158215  29.070  21.824   7.583 -0.2762  0.0189 -0.2486
 4808POPC   GL258216  29.258  21.587   7.535 -0.1422  0.2193 -0.2396
 4808POPC   C1A58217  29.102  21.828   7.092  0.1618 -0.0805 -0.2703
 4808POPC   D2A58218  29.297  21.659   6.702  0.3199 -0.1044 -0.2956
 4808POPC   C3A58219  29.413  21.935   6.340 -0.0086  0.0156  0.0365
 4808POPC   C4A58220  29.231  22.085   5.926  0.1975  0.1328 -0.2733
 4808POPC   C1B58221  29.255  21.380   7.129 -0.2298  0.2741  0.3849
 4808POPC   C2B58222  29.142  21.176   6.750 -0.2590  0.1035 -0.0862
 4808POPC   C3B58223  28.784  21.053   6.401  0.0862 -0.1834  0.2166
 4808POPC   C4B58224  28.369  20.936   6.219  0.2028  0.3839  0.1418
 4809POPC   NC358225   0.906   3.787   8.172  0.3237  0.0155  0.2506
 4809POPC   PO458226   0.843   4.151   8.026 -0.2695 -0.4760 -0.0761
 4809POPC   GL158227   0.906   4.002   7.610  0.0834  0.0463  0.0096
 4809POPC   GL258228   1.186   4.085   7.573 -0.0962  0.3537 -0.1687
 4809POPC   C1A58229   0.730   4.067   7.154  0.1121  0.1824  0.1665
 4809POPC   D2A58230   0.527   4.273   6.811  0.0670  0.0624 -0.4470
 4809POPC   C3A58231   0.329   4.033   6.451  0.1892 -0.1299 -0.0791
 4809POPC   C4A58232  -0.148   3.866   6.373  0.1299 -0.0264  0.0176
 4809POPC   C1B58233   1.190   3.954   7.134 -0.2620 -0.3054  0.1822
 4809POPC   C2B58234   1.123   3.843   6.727  0.1665  0.0395  0.0095
 4809POPC   C3B58235   0.957   3.457   6.492  0.0427 -0.1423 -0.0715
 4809POPC   C4B58236   0.807   3.451   6.042  0.0793  0.1341 -0.1308
 4810POPC   NC358237  26.607   9.227   7.466  0.0324  0.0693 -0.3258
 4810POPC   PO458238  26.348   9.480   7.621 -0.2647 -0.0177 -0.0460
 4810POPC   GL158239  26.036   9.204   7.590  0.0719 -0.1418 -0.0211
 4810POPC   GL258240  26.071   9.161   7.301 -0.2788 -0.0103 -0.0269
 4810POPC   C1A58241  25.551   9.159   7.451  0.1212  0.2252 -0.2675
 4810POPC   D2A58242  25.329   8.938   7.032 -0.1103 -0.1382  0.1611
 4810POPC   C3A58243  25.478   9.098   6.635  0.1543 -0.4899 -0.0985
 4810POPC   C4A58244  25.801   8.967   6.261  0.4405 -0.2106  0.3562
 4810POPC   C1B58245  26.153   9.033   6.814  0.0627 -0.1582  0.1106
 4810POPC   C2B58246  26.365   8.971   6.391  0.0218 -0.2776  0.0797
 4810POPC   C3B58247  26.314   8.659   5.999  0.0992  0.0365  0.2918
 4810POPC   C4B58248  26.157   8.360   5.685 -0.1136  0.1474 -0.1134
 4811POPC   NC358249   4.818  10.465   7.998 -0.1528 -0.0159  0.0629
 4811POPC   PO458250   4.796  10.717   7.676 -0.1084  0.1145 -0.0219
 4811POPC   GL158251   4.648  10.677   7.430 -0.0547 -0.0734  0.0359
 4811POPC   GL258252   4.679  10.945   7.248  0.3030  0.0327 -0.1573
 4811POPC   C1A58253   4.247  10.561   7.167  0.1464  0.2980 -0.0354
 4811POPC   D2A58254   4.136  10.518   6.740 -0.2266 -0.1162  0.1552
 4811POPC   C3A58255   3.743  10.365   6.671  0.1720  0.0975 -0.0885
 4811POPC   C4A58256   3.408  10.396   6.337 -0.0847 -0.0892 -0.2114
 4811POPC   C1B58257   4.751  11.105   6.887  0.2889  0.2089  0.5558
 4811POPC   C2B58258   4.746  11.102   6.434  0.2779  0.0353  0.0973
 4811POPC   C3B58259   4.943  11.112   6.009 -0.2222 -0.2020  0.0518
 4811POPC   C4B58260   5.153  11.353   5.655  0.0473 -0.0281  0.1169
 4812POPC   NC358261  20.828  27.495   7.900  0.0537 -0.0799  0.2206
 4812POPC   PO458262  20.990  27.827   7.969 -0.2465 -0.0969 -0.0548
 4812POPC   GL158263  21.077  27.892   7.585  0.2601 -0.3973 -0.1846
 4812POPC   GL258264  21.282  27.749   7.506  0.0804  0.1851  0.1454
 4812POPC   C1A58265  21.008  28.176   7.237 -0.0686 -0.0161 -0.0194
 4812POPC   D2A58266  20.670  28.479   7.118 -0.3196  0.4403  0.1974
 4812POPC   C3A58267  20.697  28.513   6.706  0.1493 -0.0131  0.0656
 4812POPC   C4A58268  20.844  28.411   6.317 -0.1519 -0.0555  0.0757
 4812POPC   C1B58269  21.196  27.542   7.074  0.0081  0.0561 -0.2036
 4812POPC   C2B58270  21.189  27.733   6.642 -0.0489  0.0632 -0.1129
 4812POPC   C3B58271  20.998  27.625   6.230  0.0452 -0.0351 -0.1120
 4812POPC   C4B58272  20.806  27.450   5.828 -0.0846  0.4443 -0.1826
 4813POPC   NC358273   0.043   0.860   8.141  0.1179 -0.0248  0.1490
 4813POPC   PO458274  -0.145   0.912   7.846 -0.1203 -0.2449 -0.1921
 4813POPC   GL158275  -0.071   0.911   7.437  0.2064 -0.0828  0.1661
 4813POPC   GL258276  -0.043   1.170   7.409  0.4318 -0.1059 -0.0765
 4813POPC   C1A58277   0.112   0.917   6.941 -0.0330 -0.0122 -0.1526
 4813POPC   D2A58278  -0.020   0.910   6.522  0.0219  0.0663  0.2453
 4813POPC   C3A58279  -0.092   0.750   6.080 -0.1292  0.2403  0.0253
 4813POPC   C4A58280  -0.067   0.298   5.949 -0.0780 -0.1900  0.4231
 4813POPC   C1B58281  -0.206   1.257   6.993 -0.1276 -0.0358  0.2392
 4813POPC   C2B58282  -0.145   1.479   6.579  0.0654  0.1896 -0.1760
 4813POPC   C3B58283  -0.057   1.280   6.187 -0.0988  0.3364  0.0183
 4813POPC   C4B58284   0.143   1.148   5.815  0.1510 -0.1481  0.1471
 4814POPC   NC358285  22.634  21.584   7.358  0.0972 -0.0595  0.1461
 4814POPC   PO458286  23.015  21.547   7.322 -0.0337 -0.0991 -0.3514
 4814POPC   GL158287  22.953  21.484   6.913  0.1284 -0.3753 -0.1990
 4814POPC   GL258288  22.677  21.475   6.822 -0.0749  0.1604 -0.4608
 4814POPC   C1A58289  23.018  21.619   6.483 -0.1979  0.1808  0.3422
 4814POPC   D2A58290  23.021  21.891   6.172 -0.2823  0.0510  0.2414
 4814POPC   C3A58291  23.149  22.188   5.824 -0.0714  0.1177 -0.2127
 4814POPC   C4A58292  23.055  22.545   5.564 -0.2656  0.0426 -0.2086
 4814POPC   C1B58293  22.479  21.506   6.387 -0.0561  0.0993 -0.0190
 4814POPC   C2B58294  22.716  21.564   5.946  0.2430 -0.3715  0.0794
 4814POPC   C3B58295  22.794  21.501   5.505  0.0479 -0.2045 -0.1027
 4814POPC   C4B58296  23.168  21.206   5.450 -0.0571  0.2369  0.1916
 4815POPC   NC358297  24.690  31.300   7.520 -0.0605 -0.0931  0.1299
 4815POPC   PO458298  24.320  31.157   7.418 -0.0136  0.1297 -0.0050
 4815POPC   GL158299  24.206  31.424   7.101  0.1091  0.6317 -0.1030
 4815POPC   GL258300  24.470  31.553   7.008 -0.1738 -0.0876 -0.0715
 4815POPC   C1A58301  24.289  31.100   6.732 -0.0151 -0.1865  0.1735
 4815POPC   D2A58302  24.289  31.018   6.253 -0.0927  0.1407  0.4720
 4815POPC   C3A58303  24.186  30.577   6.022 -0.1776 -0.0108 -0.3642
 4815POPC   C4A58304  24.174  30.091   6.078  0.1502 -0.0473  0.0358
 4815POPC   C1B58305  24.387  31.620   6.562 -0.0646 -0.0238 -0.1664
 4815POPC   C2B58306  24.256  31.569   6.084 -0.0137 -0.1462  0.0831
 4815POPC   C3B58307  24.250  31.468   5.622 -0.0425 -0.0482  0.0637
 4815POPC   C4B58308  24.010  31.302   5.272  0.0208  0.2193  0.1626
 4816POPC   NC358309   3.895  10.295   7.919  0.2405  0.1482  0.0021
 4816POPC   PO458310   3.979  10.695   8.002 -0.0428  0.0668 -0.0747
 4816POPC   GL158311   3.933  10.954   7.653  0.2097  0.0016  0.2831
 4816POPC   GL258312   3.870  11.210   7.616  0.1882 -0.1227 -0.0784
 4816POPC   C1A58313   3.904  10.902   7.173  0.0947 -0.2257 -0.0041
 4816POPC   D2A58314   3.787  10.869   6.724  0.2579 -0.0041 -0.2038
 4816POPC   C3A58315   3.859  10.745   6.337  0.3180  0.0160  0.1063
 4816POPC   C4A58316   3.814  10.489   5.956  0.0632 -0.1132 -0.0534
 4816POPC   C1B58317   3.751  11.484   7.304 -0.0655 -0.1369  0.0845
 4816POPC   C2B58318   3.841  11.377   6.849 -0.2890  0.0037 -0.1985
 4816POPC   C3B58319   3.716  11.232   6.441  0.2159  0.1842  0.1509
 4816POPC   C4B58320   3.709  11.094   6.011 -0.0293 -0.4087 -0.1196
 4817POPC   NC358321  30.532  17.818   8.096  0.1348 -0.1559  0.1233
 4817POPC   PO458322  30.785  17.591   7.913  0.0546  0.3515  0.2766
 4817POPC   GL158323  30.959  17.704   7.533  0.1662 -0.1165  0.4436
 4817POPC   GL258324  30.813  17.916   7.437 -0.1258  0.3886 -0.0533
 4817POPC   C1A58325  31.125  17.762   7.098  0.4071  0.0485  0.1334
 4817POPC   D2A58326  31.224  17.358   6.886 -0.0659  0.0760  0.0215
 4817POPC   C3A58327  31.347  17.292   6.452 -0.1339 -0.0324  0.2123
 4817POPC   C4A58328  31.627  17.009   6.244 -0.2225 -0.0805  0.1650
 4817POPC   C1B58329  30.931  18.270   7.222  0.0447 -0.0420  0.1944
 4817POPC   C2B58330  31.027  18.646   7.078  0.0173  0.0515 -0.1987
 4817POPC   C3B58331  31.024  19.070   7.043  0.3304 -0.0019  0.2360
 4817POPC   C4B58332  31.120  19.478   7.154  0.3297 -0.0685 -0.1690
 4818POPC   NC358333   3.967   9.102   7.450 -0.0831  0.1832  0.2529
 4818POPC   PO458334   3.683   9.325   7.600 -0.1628 -0.1402 -0.1217
 4818POPC   GL158335   3.684   9.624   7.313 -0.0511 -0.2175  0.1507
 4818POPC   GL258336   3.963   9.568   7.259 -0.2587  0.1539 -0.0248
 4818POPC   C1A58337   3.574   9.655   6.851  0.0595  0.2852 -0.2186
 4818POPC   D2A58338   3.588   9.922   6.498  0.2584 -0.0412  0.1325
 4818POPC   C3A58339   3.895  10.028   6.185  0.1596  0.0428  0.0770
 4818POPC   C4A58340   4.264   9.895   5.984 -0.0788  0.0311  0.2343
 4818POPC   C1B58341   4.038   9.475   6.813  0.0904  0.1359 -0.0546
 4818POPC   C2B58342   3.987   9.429   6.363 -0.2509 -0.3066  0.0687
 4818POPC   C3B58343   4.011   9.422   5.900 -0.3928 -0.2907  0.0462
 4818POPC   C4B58344   4.177   9.131   5.595 -0.3206  0.0394  0.0553
 4819POPC   NC358345  10.568  21.816   7.715  0.4077  0.0349  0.3591
 4819POPC   PO458346  10.867  21.614   7.701  0.1724 -0.2256 -0.0081
 4819POPC   GL158347  10.925  21.815   7.384  0.3375  0.2363 -0.1450
 4819POPC   GL258348  11.217  21.890   7.431 -0.1930  0.2597 -0.1085
 4819POPC   C1A58349  10.719  21.958   6.974 -0.1865  0.1349  0.1950
 4819POPC   D2A58350  10.731  22.289   6.651  0.2114 -0.0344 -0.0858
 4819POPC   C3A58351  11.071  22.408   6.361  0.0799 -0.2500 -0.0615
 4819POPC   C4A58352  11.175  22.670   5.961  0.1060 -0.4354 -0.3829
 4819POPC   C1B58353  11.243  21.856   6.961 -0.1438 -0.0941 -0.0724
 4819POPC   C2B58354  11.289  21.933   6.534 -0.0008  0.1654 -0.0997
 4819POPC   C3B58355  11.341  22.056   6.110  0.1225 -0.0818  0.0123
 4819POPC   C4B58356  11.222  21.937   5.710  0.1669 -0.4076 -0.3830
 4820POPC   NC358357   5.679   9.789   7.500 -0.0646  0.1057 -0.1282
 4820POPC   PO458358   5.326   9.827   7.668 -0.0676  0.1160 -0.0891
 4820POPC   GL158359   5.204   9.905   7.332  0.1486  0.3807 -0.1117
 4820POPC   GL258360   5.246   9.640   7.131 -0.3619  0.2342  0.0294
 4820POPC   C1A58361   5.150  10.148   6.976  0.3249 -0.0885  0.0701
 4820POPC   D2A58362   4.974  10.213   6.549 -0.0579  0.3472 -0.0836
 4820POPC   C3A58363   4.905   9.865   6.321  0.2500  0.1880 -0.2229
 4820POPC   C4A58364   4.953   9.628   5.968 -0.0294  0.1067  0.2412
 4820POPC   C1B58365   5.326   9.425   6.662 -0.1634 -0.0227 -0.1001
 4820POPC   C2B58366   5.222   9.040   6.449 -0.1089 -0.3374 -0.0902
 4820POPC   C3B58367   5.239   8.618   6.244  0.0399 -0.1350 -0.1486
 4820POPC   C4B58368   5.191   8.345   5.847 -0.3533 -0.1364  0.0489
 4821POPC   NC358369   2.300  10.341   7.830 -0.0677  0.0867 -0.0808
 4821POPC   PO458370   2.669  10.277   7.802 -0.0614  0.3752 -0.1997
 4821POPC   GL158371   2.677  10.305   7.441 -0.3547  0.3573 -0.0220
 4821POPC   GL258372   2.411  10.437   7.352  0.0969 -0.4817  0.2384
 4821POPC   C1A58373   2.838  10.037   7.089  0.0715 -0.2950 -0.1278
 4821POPC   D2A58374   2.977   9.872   6.665 -0.1146 -0.3227  0.2035
 4821POPC   C3A58375   3.171   9.981   6.260 -0.0123 -0.1876  0.0751
 4821POPC   C4A58376   3.431  10.097   5.912 -0.1422  0.1676  0.1065
 4821POPC   C1B58377   2.387  10.875   7.185  0.4759 -0.1069  0.2227
 4821POPC   C2B58378   2.317  11.038   6.772  0.2382  0.2099 -0.1513
 4821POPC   C3B58379   2.026  11.035   6.394 -0.0993  0.0515  0.2114
 4821POPC   C4B58380   2.103  10.932   5.931  0.0919 -0.1792 -0.1491
 4822POPC   NC358381  29.574   8.082   7.473 -0.1754 -0.1098  0.2886
 4822POPC   PO458382  29.827   7.804   7.531  0.0619 -0.0769  0.0367
 4822POPC   GL158383  29.822   7.611   7.170 -0.3341 -0.2361  0.0069
 4822POPC   GL258384  29.716   7.856   6.985 -0.0348 -0.2661  0.1559
 4822POPC   C1A58385  29.633   7.392   6.788 -0.1048 -0.0718  0.0605
 4822POPC   D2A58386  29.399   7.171   6.485 -0.1060  0.2871  0.1956
 4822POPC   C3A58387  29.380   7.276   6.041  0.0298 -0.2064  0.3098
 4822POPC   C4A58388  29.486   7.359   5.624 -0.2325 -0.1039  0.2743
 4822POPC   C1B58389  29.877   7.759   6.516  0.1273 -0.1829  0.0785
 4822POPC   C2B58390  30.214   7.781   6.285  0.1225  0.2594 -0.1294
 4822POPC   C3B58391  30.318   7.846   5.830  0.0625  0.1157 -0.2888
 4822POPC   C4B58392  30.417   8.196   5.527  0.0650 -0.0125 -0.1819
 4823POPC   NC358393   9.750  23.230   8.179 -0.0301  0.1743 -0.1421
 4823POPC   PO458394   9.900  23.136   7.835 -0.3588 -0.1275  0.0939
 4823POPC   GL158395   9.899  23.280   7.526  0.0135  0.0299  0.0300
 4823POPC   GL258396  10.008  23.459   7.401  0.0471  0.0362 -0.1352
 4823POPC   C1A58397   9.566  23.363   7.222  0.0952 -0.1966 -0.0649
 4823POPC   D2A58398   9.503  23.525   6.770  0.0806 -0.0892  0.1317
 4823POPC   C3A58399   9.155  23.499   6.424  0.2595 -0.0375  0.2304
 4823POPC   C4A58400   9.171  23.760   6.009 -0.2907  0.1131 -0.0701
 4823POPC   C1B58401  10.149  23.212   7.099 -0.2890 -0.0188 -0.2318
 4823POPC   C2B58402  10.422  23.216   6.791  0.2930 -0.1220 -0.0615
 4823POPC   C3B58403  10.728  23.501   6.533  0.0282  0.1627  0.0198
 4823POPC   C4B58404  10.762  23.364   6.063  0.1907  0.4286 -0.0214
 4824POPC   NC358405  29.913  18.280   7.318 -0.0488  0.0636 -0.1757
 4824POPC   PO458406  29.651  17.971   7.263 -0.2636  0.1530  0.1400
 4824POPC   GL158407  29.601  17.800   6.946 -0.1740  0.0372  0.5535
 4824POPC   GL258408  29.703  17.534   7.083  0.1790  0.2026 -0.0670
 4824POPC   C1A58409  29.793  17.888   6.477 -0.3519  0.3138 -0.0925
 4824POPC   D2A58410  29.929  17.977   6.043  0.0690  0.1051 -0.0701
 4824POPC   C3A58411  29.676  18.017   5.701 -0.1114 -0.0602  0.1424
 4824POPC   C4A58412  29.412  18.219   5.411 -0.0890  0.0775 -0.1612
 4824POPC   C1B58413  29.838  17.410   6.654  0.1267  0.0531 -0.1963
 4824POPC   C2B58414  29.966  17.439   6.209  0.0492 -0.1658 -0.1717
 4824POPC   C3B58415  29.968  17.391   5.812  0.1167  0.0068 -0.2238
 4824POPC   C4B58416  30.329  17.123   5.615  0.2510 -0.0208 -0.1511
 4825POPC   NC358417   0.051  27.821   8.952 -0.1393  0.3672  0.0216
 4825POPC   PO458418  -0.008  27.934   8.600  0.0327  0.2119 -0.1879
 4825POPC   GL158419  -0.023  28.105   8.250  0.2405  0.0554  0.0659
 4825POPC   GL258420   0.226  28.118   8.084  0.3121 -0.0697 -0.0836
 4825POPC   C1A58421  -0.264  28.576   8.189  0.1693 -0.2039 -0.1936
 4825POPC   D2A58422  -0.491  28.815   7.954 -0.1905  0.2242 -0.1060
 4825POPC   C3A58423  -0.665  29.166   7.857  0.2070 -0.2171 -0.0118
 4825POPC   C4A58424  -0.740  29.574   8.030 -0.2001  0.0003  0.0024
 4825POPC   C1B58425  -0.149  28.192   7.835  0.0618  0.1172  0.0326
 4825POPC   C2B58426  -0.142  28.443   7.401 -0.0355  0.2197  0.0231
 4825POPC   C3B58427  -0.151  28.461   6.951 -0.0194  0.1773 -0.4607
 4825POPC   C4B58428   0.042  28.606   6.570  0.0189 -0.1152 -0.4557
 4826POPC   NC358429  25.305  25.870   7.756 -0.0249 -0.0795  0.2646
 4826POPC   PO458430  25.094  25.573   7.604  0.2103 -0.0670 -0.0382
 4826POPC   GL158431  25.196  25.472   7.255 -0.0856  0.1335 -0.1752
 4826POPC   GL258432  25.203  25.114   7.290  0.2718  0.1567 -0.0726
 4826POPC   C1A58433  25.184  25.633   6.770 -0.0453 -0.0370 -0.1040
 4826POPC   D2A58434  25.180  25.763   6.344  0.1161  0.3098 -0.1323
 4826POPC   C3A58435  24.818  25.858   6.100  0.3168 -0.2409  0.0202
 4826POPC   C4A58436  24.632  25.898   5.696  0.0541  0.1775  0.1109
 4826POPC   C1B58437  24.930  25.235   6.923 -0.0351  0.0697  0.2859
 4826POPC   C2B58438  24.800  25.056   6.484  0.2033  0.0844 -0.1798
 4826POPC   C3B58439  24.835  24.832   6.115 -0.0678 -0.3167  0.1505
 4826POPC   C4B58440  25.093  24.837   5.708  0.0379  0.4286 -0.0535
 4827POPC   NC358441  11.347  17.470   7.305  0.0773  0.0361  0.2785
 4827POPC   PO458442  11.250  17.784   7.537 -0.2417 -0.1792 -0.1336
 4827POPC   GL158443  11.383  17.903   7.192 -0.2410  0.0808 -0.2243
 4827POPC   GL258444  11.344  18.204   7.208 -0.0222 -0.0270 -0.1726
 4827POPC   C1A58445  11.282  17.845   6.779  0.2752  0.0912  0.3891
 4827POPC   D2A58446  11.251  18.042   6.344 -0.0198 -0.1045  0.0421
 4827POPC   C3A58447  11.485  18.022   5.962  0.0130  0.1431  0.4231
 4827POPC   C4A58448  11.235  17.883   5.527 -0.0813  0.0331  0.0163
 4827POPC   C1B58449  11.607  18.306   6.790 -0.4575 -0.2623 -0.1652
 4827POPC   C2B58450  11.745  18.204   6.358  0.1079  0.0997 -0.1212
 4827POPC   C3B58451  11.952  18.226   5.953 -0.2931  0.1338 -0.1459
 4827POPC   C4B58452  12.227  18.165   5.638  0.0231  0.0661  0.0074
 4828POPC   NC358453  27.816  18.547   7.726  0.0484  0.0271  0.1359
 4828POPC   PO458454  27.825  18.917   7.536 -0.0065 -0.1381 -0.4490
 4828POPC   GL158455  27.760  18.919   7.159 -0.2546  0.3300 -0.0114
 4828POPC   GL258456  27.458  18.969   7.167  0.1180  0.2821 -0.0778
 4828POPC   C1A58457  27.622  18.687   6.800  0.3753 -0.1057  0.0485
 4828POPC   D2A58458  27.411  18.783   6.429  0.0977  0.1275  0.1365
 4828POPC   C3A58459  27.224  18.484   6.095  0.0652 -0.1113  0.1615
 4828POPC   C4A58460  27.372  18.231   5.703  0.2131 -0.0298 -0.2483
 4828POPC   C1B58461  27.483  19.271   6.786  0.0829  0.2305  0.0730
 4828POPC   C2B58462  27.312  19.327   6.344 -0.3949  0.0439 -0.2651
 4828POPC   C3B58463  27.433  19.607   6.095 -0.2088  0.2330  0.1256
 4828POPC   C4B58464  27.516  19.785   5.694  0.1681  0.2921  0.3667
 4829POPC   NC358465   6.637   0.589   8.215 -0.3062 -0.0451 -0.0744
 4829POPC   PO458466   6.368   0.477   7.967  0.1995  0.1912 -0.0331
 4829POPC   GL158467   6.450   0.332   7.637  0.1127 -0.0384  0.2287
 4829POPC   GL258468   6.109   0.356   7.517  0.4923 -0.0786  0.1584
 4829POPC   C1A58469   6.504   0.599   7.240 -0.0968  0.3041 -0.1790
 4829POPC   D2A58470   6.344   0.798   6.862 -0.0406 -0.0534 -0.2574
 4829POPC   C3A58471   6.520   0.664   6.465 -0.0523  0.2899 -0.2076
 4829POPC   C4A58472   6.440   0.707   6.008 -0.0145  0.4244 -0.2554
 4829POPC   C1B58473   6.150   0.250   7.063  0.0504 -0.1761 -0.1734
 4829POPC   C2B58474   6.285   0.170   6.621 -0.0376 -0.1755 -0.2328
 4829POPC   C3B58475   6.408   0.226   6.210  0.2335 -0.0653  0.1771
 4829POPC   C4B58476   6.411  -0.063   5.866 -0.1124 -0.0845 -0.1012
 4830POPC   NC358477  16.854   1.670   8.278  0.2993  0.1677  0.1459
 4830POPC   PO458478  17.195   1.641   8.082 -0.0857  0.1789  0.0983
 4830POPC   GL158479  17.098   1.517   7.665 -0.2763 -0.0922 -0.0221
 4830POPC   GL258480  16.869   1.458   7.646 -0.0522  0.0642 -0.1114
 4830POPC   C1A58481  16.781   1.826   7.416 -0.0580  0.1111 -0.1251
 4830POPC   D2A58482  16.739   2.295   7.496 -0.0300  0.1235 -0.0365
 4830POPC   C3A58483  16.468   2.461   7.181  0.1077 -0.3055  0.0019
 4830POPC   C4A58484  16.464   2.475   6.688  0.0192 -0.0903  0.1519
 4830POPC   C1B58485  16.854   1.184   7.290 -0.0175  0.3211  0.0373
 4830POPC   C2B58486  16.688   1.077   6.871 -0.0584  0.0337  0.0304
 4830POPC   C3B58487  16.397   1.052   6.525  0.1321 -0.1438 -0.0644
 4830POPC   C4B58488  16.186   1.088   6.076  0.0261  0.1684  0.0394
 4831POPC   NC358489  21.593  25.744   8.037 -0.2737 -0.0152 -0.1396
 4831POPC   PO458490  21.571  25.364   8.087 -0.2785  0.0177  0.0186
 4831POPC   GL158491  21.344  25.230   7.815  0.0325 -0.0893  0.1326
 4831POPC   GL258492  21.462  25.479   7.651 -0.3413 -0.0874 -0.0470
 4831POPC   C1A58493  21.093  25.095   7.490 -0.1650  0.0400  0.0267
 4831POPC   D2A58494  20.848  24.893   7.174  0.1502  0.0973 -0.2036
 4831POPC   C3A58495  20.727  25.046   6.757  0.2090 -0.0094  0.1604
 4831POPC   C4A58496  20.834  24.960   6.269  0.0685  0.2018 -0.4321
 4831POPC   C1B58497  21.029  25.577   7.401  0.2628 -0.0415 -0.0039
 4831POPC   C2B58498  20.770  25.508   7.038  0.0059 -0.0727  0.0270
 4831POPC   C3B58499  20.526  25.804   6.702 -0.1778 -0.1404 -0.0539
 4831POPC   C4B58500  20.503  26.227   6.488  0.1933  0.0066 -0.0150
 4832POPC   NC358501  10.958  29.401   8.281 -0.5956  0.0430 -0.1622
 4832POPC   PO458502  11.368  29.353   8.152  0.1366  0.0689  0.1624
 4832POPC   GL158503  11.698  29.562   7.858  0.2774 -0.0071 -0.1630
 4832POPC   GL258504  11.603  29.838   8.046  0.0644 -0.0350 -0.0515
 4832POPC   C1A58505  12.129  29.606   7.716 -0.1508 -0.2244 -0.0693
 4832POPC   D2A58506  12.539  29.852   7.799  0.1889 -0.0323  0.1348
 4832POPC   C3A58507  12.660  30.143   7.463  0.0580  0.0257  0.1865
 4832POPC   C4A58508  12.582  30.247   7.022 -0.1486 -0.2004  0.0870
 4832POPC   C1B58509  11.627  29.920   7.593  0.0680 -0.4341  0.2885
 4832POPC   C2B58510  11.704  30.293   7.289 -0.0047  0.1687 -0.0590
 4832POPC   C3B58511  11.804  30.678   7.072  0.2060  0.1770 -0.0951
 4832POPC   C4B58512  11.936  30.703   6.634  0.0501  0.0588 -0.0978
 4833POPC   NC358513  11.860  20.649   7.639 -0.0810  0.0520 -0.0511
 4833POPC   PO458514  11.607  20.382   7.491  0.0925  0.1748  0.0170
 4833POPC   GL158515  11.601  20.370   7.130 -0.1425 -0.1473  0.3318
 4833POPC   GL258516  11.861  20.386   7.050  0.2601  0.0367  0.0123
 4833POPC   C1A58517  11.401  20.519   6.759 -0.3512 -0.1047  0.1296
 4833POPC   D2A58518  11.311  20.888   6.446 -0.0851  0.0479  0.0385
 4833POPC   C3A58519  10.928  21.141   6.485 -0.1287 -0.0286  0.1233
 4833POPC   C4A58520  10.721  21.329   6.106  0.3472 -0.0727 -0.0989
 4833POPC   C1B58521  12.188  20.328   6.752 -0.0761 -0.1244 -0.0704
 4833POPC   C2B58522  12.267  20.055   6.402 -0.1764  0.0490 -0.1441
 4833POPC   C3B58523  11.982  19.886   6.067  0.0668 -0.0824 -0.1997
 4833POPC   C4B58524  11.875  19.888   5.614  0.0772  0.2026  0.1139
 4834POPC   NC358525  29.104  29.677   7.395  0.1389 -0.0534  0.0157
 4834POPC   PO458526  29.282  29.914   7.639 -0.2147  0.1212  0.1981
 4834POPC   GL158527  29.505  30.035   7.408 -0.1273  0.1731 -0.1465
 4834POPC   GL258528  29.529  29.974   7.107 -0.1572 -0.2593  0.1145
 4834POPC   C1A58529  29.948  29.970   7.391  0.3093 -0.3643  0.1104
 4834POPC   D2A58530  30.179  29.591   7.124 -0.1450  0.1617 -0.0352
 4834POPC   C3A58531  30.465  29.242   7.281 -0.0432 -0.4173  0.0018
 4834POPC   C4A58532  30.520  28.790   7.124 -0.3371  0.6357 -0.1638
 4834POPC   C1B58533  29.857  29.901   6.814  0.0010  0.1098 -0.1529
 4834POPC   C2B58534  30.017  29.664   6.480 -0.0087 -0.1126  0.2047
 4834POPC   C3B58535  30.318  29.400   6.217 -0.1663  0.2470 -0.0165
 4834POPC   C4B58536  30.752  29.420   6.083 -0.0683 -0.0032 -0.1245
 4835POPC   NC358537  22.079   6.423   7.814  0.2287 -0.2579  0.4485
 4835POPC   PO458538  22.342   6.690   7.734  0.3462 -0.1939 -0.0107
 4835POPC   GL158539  22.219   6.471   7.348 -0.1521 -0.3510  0.0315
 4835POPC   GL258540  21.995   6.696   7.383 -0.2992  0.0234 -0.2222
 4835POPC   C1A58541  22.311   6.705   6.902 -0.2327 -0.3575 -0.0675
 4835POPC   D2A58542  22.351   6.764   6.419 -0.0081  0.4226  0.2385
 4835POPC   C3A58543  22.216   7.063   6.070 -0.0537 -0.1022  0.1078
 4835POPC   C4A58544  21.992   7.370   5.740  0.1621 -0.0330 -0.1779
 4835POPC   C1B58545  21.877   6.866   7.011 -0.0647  0.3309  0.1018
 4835POPC   C2B58546  21.522   6.849   6.649  0.3364 -0.2919  0.2447
 4835POPC   C3B58547  21.350   6.878   6.270  0.0094  0.0312 -0.0744
 4835POPC   C4B58548  21.287   6.681   5.902  0.1995 -0.4296  0.5607
 4836POPC   NC358549  24.116  25.033   7.420  0.0032 -0.1039 -0.0272
 4836POPC   PO458550  24.428  24.951   7.619  0.2874  0.1753  0.0304
 4836POPC   GL158551  24.493  24.849   7.183  0.4376  0.1176  0.1102
 4836POPC   GL258552  24.774  24.820   7.134 -0.0225  0.2088  0.1078
 4836POPC   C1A58553  24.456  25.198   6.863  0.1712 -0.1498 -0.2147
 4836POPC   D2A58554  24.240  25.241   6.458  0.0467  0.2254  0.0395
 4836POPC   C3A58555  24.411  25.056   6.026 -0.1788 -0.1240 -0.0738
 4836POPC   C4A58556  24.567  24.876   5.592  0.0188  0.2838 -0.1310
 4836POPC   C1B58557  24.745  24.584   6.717  0.2326  0.0032 -0.3875
 4836POPC   C2B58558  24.665  24.268   6.396  0.3980 -0.1078 -0.1145
 4836POPC   C3B58559  24.522  24.021   6.050  0.0752  0.2973 -0.1197
 4836POPC   C4B58560  24.852  23.825   5.811  0.0133  0.0326  0.0111
 4837POPC   NC358561  25.886   4.444   8.044  0.3100  0.1913 -0.1443
 4837POPC   PO458562  25.649   4.465   7.703 -0.1549  0.0523  0.0084
 4837POPC   GL158563  25.815   4.615   7.327 -0.2229  0.4778 -0.0355
 4837POPC   GL258564  26.122   4.572   7.421  0.2061 -0.1761 -0.0218
 4837POPC   C1A58565  25.919   4.417   6.920  0.2060 -0.1147 -0.2213
 4837POPC   D2A58566  25.832   4.412   6.536 -0.3253 -0.4379  0.0970
 4837POPC   C3A58567  26.166   4.200   6.333  0.0035  0.2719  0.0060
 4837POPC   C4A58568  26.482   3.872   6.407  0.1104  0.0237  0.2907
 4837POPC   C1B58569  26.378   4.344   7.204  0.0344 -0.0489  0.0043
 4837POPC   C2B58570  26.472   3.880   7.329 -0.0261 -0.0497  0.1630
 4837POPC   C3B58571  26.510   3.431   7.150  0.0100  0.0770 -0.3026
 4837POPC   C4B58572  26.941   3.271   7.001  0.0906  0.1047  0.0799
 4838POPC   NC358573  14.569  31.304   7.422  0.0256 -0.6823  0.4582
 4838POPC   PO458574  14.891  31.409   7.638 -0.3473  0.1520  0.1701
 4838POPC   GL158575  15.197  31.297   7.265  0.2465 -0.1268 -0.2258
 4838POPC   GL258576  15.255  31.007   7.148 -0.2084 -0.0177  0.1257
 4838POPC   C1A58577  15.552  31.443   6.985 -0.0597 -0.0741 -0.0620
 4838POPC   D2A58578  15.539  31.389   6.501 -0.1119 -0.0217  0.0041
 4838POPC   C3A58579  15.720  31.421   6.093  0.2979  0.1935 -0.1085
 4838POPC   C4A58580  15.947  31.291   5.719 -0.1869  0.0580  0.2733
 4838POPC   C1B58581  15.397  30.759   6.788  0.0499  0.0100 -0.2628
 4838POPC   C2B58582  15.351  30.383   6.596  0.2921  0.3178  0.0978
 4838POPC   C3B58583  15.583  30.078   6.312  0.0507  0.1326 -0.0157
 4838POPC   C4B58584  15.987  30.036   6.155 -0.0770 -0.2327 -0.1382
 4839POPC   NC358585  20.466  19.733   7.641 -0.0652  0.0382 -0.0711
 4839POPC   PO458586  20.396  20.088   7.587  0.0447  0.3011 -0.0284
 4839POPC   GL158587  20.202  20.133   7.241  0.1827 -0.1718  0.0280
 4839POPC   GL258588  20.341  20.438   7.231 -0.3051 -0.0627  0.1661
 4839POPC   C1A58589  19.973  20.159   6.877  0.1421  0.1476  0.1026
 4839POPC   D2A58590  19.986  20.322   6.441 -0.0512  0.1973  0.0075
 4839POPC   C3A58591  20.037  19.955   6.123 -0.4359  0.0102 -0.0644
 4839POPC   C4A58592  20.146  19.604   5.872 -0.2448  0.0258  0.1196
 4839POPC   C1B58593  20.403  20.759   6.893 -0.0839 -0.1051  0.1658
 4839POPC   C2B58594  20.238  20.911   6.465 -0.1569  0.1299 -0.1269
 4839POPC   C3B58595  20.095  21.128   6.083 -0.0067 -0.1544  0.1446
 4839POPC   C4B58596  20.000  21.489   5.802  0.0404 -0.0594 -0.1931
 4840POPC   NC358597   6.698   2.340   7.700 -0.1701 -0.0851 -0.1545
 4840POPC   PO458598   6.719   2.130   8.009 -0.0239 -0.0858 -0.2000
 4840POPC   GL158599   7.026   1.948   7.819 -0.0634  0.0600  0.1393
 4840POPC   GL258600   7.063   2.063   7.473 -0.0219 -0.1921 -0.3491
 4840POPC   C1A58601   7.436   2.170   7.826 -0.1072  0.1578  0.0609
 4840POPC   D2A58602   7.860   2.065   7.594  0.0892  0.0219 -0.1983
 4840POPC   C3A58603   8.034   1.637   7.654  0.1850 -0.0493 -0.0674
 4840POPC   C4A58604   8.166   1.442   7.252  0.2596 -0.0931  0.1153
 4840POPC   C1B58605   7.345   2.057   7.086  0.1167  0.1064  0.1620
 4840POPC   C2B58606   7.731   2.194   6.828  0.0726 -0.2117 -0.0466
 4840POPC   C3B58607   7.821   2.012   6.412 -0.1255  0.1504  0.1173
 4840POPC   C4B58608   7.945   1.714   6.083  0.0706  0.1135 -0.0685
 4841POPC   NC358609  30.428   8.412   7.525 -0.2309  0.0510  0.3821
 4841POPC   PO458610  30.674   8.712   7.593 -0.1152  0.1394 -0.0915
 4841POPC   GL158611  30.645   8.573   7.165 -0.2892  0.1858 -0.1023
 4841POPC   GL258612  30.898   8.583   7.066  0.1234  0.2040  0.0020
 4841POPC   C1A58613  30.254   8.543   6.999  0.1472 -0.1347  0.0921
 4841POPC   D2A58614  30.051   8.692   6.648 -0.0062  0.0810 -0.0080
 4841POPC   C3A58615  29.998   8.714   6.215 -0.2796  0.1411 -0.2122
 4841POPC   C4A58616  30.157   8.850   5.827 -0.0865  0.2236  0.1893
 4841POPC   C1B58617  30.767   8.516   6.627  0.0211 -0.0717  0.2766
 4841POPC   C2B58618  30.492   8.778   6.325  0.0058  0.1543 -0.1256
 4841POPC   C3B58619  30.683   9.012   5.952 -0.1418  0.4247 -0.0023
 4841POPC   C4B58620  31.041   8.957   5.651  0.0314  0.1907 -0.0023
 4842POPC   NC358621   3.664  28.391   8.025 -0.0537 -0.1412 -0.2365
 4842POPC   PO458622   3.443  28.097   7.931 -0.4872  0.1528  0.4352
 4842POPC   GL158623   3.482  28.095   7.461  0.0434 -0.3644 -0.1293
 4842POPC   GL258624   3.263  28.320   7.446  0.0094 -0.1687  0.0588
 4842POPC   C1A58625   3.389  27.982   6.990 -0.0270  0.0806  0.0528
 4842POPC   D2A58626   3.085  28.132   6.691 -0.0004  0.0022  0.3324
 4842POPC   C3A58627   3.286  27.884   6.345 -0.2027  0.1774 -0.0948
 4842POPC   C4A58628   3.512  27.480   6.259  0.1546  0.0014 -0.0278
 4842POPC   C1B58629   3.356  28.785   7.296  0.3233 -0.1687  0.1258
 4842POPC   C2B58630   3.124  29.053   6.933  0.0397 -0.2149 -0.0766
 4842POPC   C3B58631   3.027  29.124   6.465  0.1159 -0.2955 -0.2328
 4842POPC   C4B58632   2.919  29.128   5.982 -0.2410  0.2189 -0.0841
 4843POPC   NC358633   1.659  21.404   7.876  0.0113  0.5783  0.1418
 4843POPC   PO458634   1.360  21.308   7.615  0.0952 -0.0187  0.1074
 4843POPC   GL158635   1.581  21.309   7.375 -0.2416 -0.0734 -0.1987
 4843POPC   GL258636   1.555  21.139   7.212  0.0719  0.4367 -0.1682
 4843POPC   C1A58637   1.475  21.580   6.968 -0.1409  0.0200 -0.1453
 4843POPC   D2A58638   1.229  21.728   6.626 -0.1037 -0.0033  0.1678
 4843POPC   C3A58639   1.014  21.638   6.201  0.0810  0.0993  0.1014
 4843POPC   C4A58640   0.743  21.462   5.912  0.0780 -0.0540  0.3933
 4843POPC   C1B58641   1.164  21.221   6.975  0.2511 -0.1100  0.1528
 4843POPC   C2B58642   0.960  21.140   6.531 -0.1104  0.5260 -0.2787
 4843POPC   C3B58643   1.057  21.140   6.090 -0.0320 -0.0349  0.2478
 4843POPC   C4B58644   0.895  21.072   5.650  0.1174  0.2086  0.2510
 4844POPC   NC358645  19.474   3.890   7.992  0.0365 -0.0820  0.1748
 4844POPC   PO458646  19.327   4.143   7.785 -0.1226  0.1263  0.0345
 4844POPC   GL158647  19.306   4.109   7.349 -0.0047  0.1309 -0.3137
 4844POPC   GL258648  19.063   4.137   7.118  0.3839  0.1444  0.0036
 4844POPC   C1A58649  19.445   4.326   6.941 -0.2979  0.0137  0.1477
 4844POPC   D2A58650  19.523   4.767   7.012  0.1130  0.2205  0.2546
 4844POPC   C3A58651  19.612   4.983   6.601  0.0107 -0.0249 -0.0546
 4844POPC   C4A58652  19.896   5.222   6.285 -0.1462  0.0624  0.1053
 4844POPC   C1B58653  18.699   3.929   6.804 -0.1694  0.0672  0.3426
 4844POPC   C2B58654  18.740   3.910   6.333  0.0512  0.3265 -0.0599
 4844POPC   C3B58655  18.930   3.788   5.916  0.0320  0.0859 -0.0121
 4844POPC   C4B58656  18.676   3.451   5.593 -0.2209 -0.0953  0.1318
 4845POPC   NC358657  22.584  11.762   7.466 -0.0791  0.2421 -0.2401
 4845POPC   PO458658  22.743  12.075   7.320 -0.0097  0.1530  0.0778
 4845POPC   GL158659  22.973  12.135   6.974 -0.0537 -0.1301 -0.1131
 4845POPC   GL258660  23.008  12.345   6.797 -0.0685 -0.1496 -0.0843
 4845POPC   C1A58661  23.024  11.920   6.553 -0.3740 -0.2261  0.1037
 4845POPC   D2A58662  23.281  11.838   6.104  0.1080  0.0509 -0.1348
 4845POPC   C3A58663  23.757  11.732   5.978 -0.0245 -0.1054  0.3008
 4845POPC   C4A58664  24.028  11.411   5.870 -0.4112  0.2953 -0.1473
 4845POPC   C1B58665  23.141  12.393   6.365 -0.1273  0.2208  0.0268
 4845POPC   C2B58666  23.410  12.304   6.019 -0.0428  0.0678 -0.2259
 4845POPC   C3B58667  23.540  12.551   5.659  0.0763 -0.4322 -0.0415
 4845POPC   C4B58668  23.689  12.811   5.336 -0.0290  0.0336  0.0736
 4846POPC   NC358669  11.271  30.792   8.190 -0.0932  0.2868  0.1689
 4846POPC   PO458670  10.996  30.986   7.991  0.0427  0.1506  0.2823
 4846POPC   GL158671  11.037  30.779   7.654  0.1869  0.0280  0.2451
 4846POPC   GL258672  11.050  30.510   7.701 -0.0070 -0.3651 -0.0193
 4846POPC   C1A58673  10.893  30.631   7.232  0.3189  0.1704  0.1595
 4846POPC   D2A58674  10.848  30.264   7.003  0.1886  0.0010  0.1625
 4846POPC   C3A58675  11.090  30.206   6.600 -0.3508  0.1827  0.1110
 4846POPC   C4A58676  10.951  30.098   6.101 -0.2635  0.1362  0.0214
 4846POPC   C1B58677  11.195  30.128   7.453  0.1783 -0.3517  0.3267
 4846POPC   C2B58678  11.352  30.022   7.019  0.1359 -0.1999  0.3579
 4846POPC   C3B58679  11.690  30.219   6.791  0.1349 -0.0872 -0.3614
 4846POPC   C4B58680  12.108  30.169   6.902 -0.2400  0.0179 -0.1283
 4847POPC   NC358681  15.517   7.319   7.889 -0.2085  0.2855 -0.0875
 4847POPC   PO458682  15.878   7.166   7.979 -0.2454  0.1238  0.1110
 4847POPC   GL158683  16.079   7.045   7.662  0.3848 -0.2552  0.3290
 4847POPC   GL258684  15.856   6.879   7.572 -0.0528  0.1234 -0.1145
 4847POPC   C1A58685  16.393   7.137   7.299 -0.2807 -0.2063 -0.0322
 4847POPC   D2A58686  16.376   7.141   6.851 -0.0096 -0.4058 -0.0223
 4847POPC   C3A58687  16.431   7.482   6.584 -0.5408  0.2522 -0.3398
 4847POPC   C4A58688  16.622   7.874   6.412  0.1378  0.1148  0.0477
 4847POPC   C1B58689  15.657   6.755   7.100  0.1081 -0.0600  0.0412
 4847POPC   C2B58690  15.436   6.963   6.753 -0.0272  0.0186  0.2466
 4847POPC   C3B58691  15.374   7.092   6.330 -0.0593  0.0030 -0.1836
 4847POPC   C4B58692  15.124   7.011   5.998  0.2483  0.1375  0.1898
 4848POPC   NC358693   7.229  29.272   7.746 -0.1950  0.0865  0.2904
 4848POPC   PO458694   6.936  29.101   7.592  0.0078  0.2223  0.1802
 4848POPC   GL158695   6.986  29.294   7.214  0.0672  0.2044 -0.3841
 4848POPC   GL258696   7.213  29.477   7.262  0.1848  0.3466  0.1829
 4848POPC   C1A58697   7.208  29.326   6.810  0.0394  0.0343 -0.1029
 4848POPC   D2A58698   7.187  29.490   6.407  0.0832  0.0014  0.1769
 4848POPC   C3A58699   7.576  29.292   6.136 -0.0394 -0.0458 -0.0753
 4848POPC   C4A58700   7.652  29.184   5.716 -0.1496  0.6616 -0.0305
 4848POPC   C1B58701   6.986  29.764   7.011  0.0629 -0.2211 -0.1627
 4848POPC   C2B58702   6.715  29.818   6.609 -0.2421 -0.2377  0.4337
 4848POPC   C3B58703   6.817  29.729   6.175 -0.0426 -0.2567 -0.0025
 4848POPC   C4B58704   6.990  29.920   5.746 -0.0352 -0.0033 -0.2606
 4849POPC   NC358705  29.630   3.841   7.698  0.2939 -0.2176 -0.0322
 4849POPC   PO458706  29.251   3.772   7.632  0.2338  0.0735 -0.1219
 4849POPC   GL158707  29.386   3.794   7.236 -0.0077  0.3970 -0.3410
 4849POPC   GL258708  29.652   3.860   7.220 -0.0840 -0.1409  0.0126
 4849POPC   C1A58709  29.412   3.513   6.880 -0.0823 -0.1874 -0.1419
 4849POPC   D2A58710  29.685   3.294   6.545 -0.1574 -0.3691  0.0200
 4849POPC   C3A58711  29.940   3.316   6.187 -0.0649  0.1585  0.0324
 4849POPC   C4A58712  30.181   3.155   5.828  0.0426 -0.1112 -0.1152
 4849POPC   C1B58713  29.890   3.494   6.999 -0.1065  0.2949  0.2394
 4849POPC   C2B58714  30.232   3.368   6.656  0.3734 -0.0184 -0.0248
 4849POPC   C3B58715  30.372   3.526   6.248  0.2274  0.2119 -0.2823
 4849POPC   C4B58716  30.236   3.648   5.794  0.1445 -0.2819 -0.1037
 4850POPC   NC358717  29.129   0.288   8.228 -0.0245  0.0512 -0.0418
 4850POPC   PO458718  29.541   0.317   8.155  0.0673  0.2702  0.1987
 4850POPC   GL158719  29.444   0.347   7.745  0.2811  0.4151 -0.3741
 4850POPC   GL258720  29.297   0.047   7.739  0.0079 -0.2119  0.3725
 4850POPC   C1A58721  29.549   0.395   7.245 -0.3190 -0.2473  0.1032
 4850POPC   D2A58722  29.985   0.511   7.182 -0.4502  0.4240 -0.0009
 4850POPC   C3A58723  30.298   0.495   6.799  0.0785  0.1796 -0.0529
 4850POPC   C4A58724  30.695   0.377   6.584 -0.2999  0.1644 -0.1050
 4850POPC   C1B58725  29.466  -0.112   7.352  0.1113 -0.0246  0.3112
 4850POPC   C2B58726  29.485   0.010   6.902 -0.0824 -0.0343  0.0589
 4850POPC   C3B58727  29.467   0.202   6.466 -0.0052 -0.1346 -0.1284
 4850POPC   C4B58728  29.445   0.057   6.073  0.2055 -0.1050  0.1822
 4851POPC   NC358729  12.651  23.388   7.819  0.0198 -0.2022  0.2163
 4851POPC   PO458730  12.722  23.000   7.901 -0.3266 -0.4045  0.2496
 4851POPC   GL158731  12.842  23.072   7.450 -0.3992  0.1183 -0.0393
 4851POPC   GL258732  12.828  23.360   7.350  0.3577 -0.0449 -0.1458
 4851POPC   C1A58733  13.058  22.764   7.127  0.2285 -0.0852  0.1557
 4851POPC   D2A58734  13.130  22.397   6.967  0.0244  0.1918  0.2930
 4851POPC   C3A58735  13.025  22.541   6.508 -0.2158 -0.0055  0.0021
 4851POPC   C4A58736  12.824  22.850   6.222 -0.1680 -0.2076  0.0385
 4851POPC   C1B58737  12.811  23.510   6.890  0.0329 -0.2221 -0.0984
 4851POPC   C2B58738  12.797  23.518   6.443  0.0329  0.1324  0.0480
 4851POPC   C3B58739  12.803  23.918   6.131  0.0462  0.1156 -0.3286
 4851POPC   C4B58740  13.195  24.188   6.192  0.1724  0.0608  0.0107
 4852POPC   NC358741   9.633  30.055   7.455  0.0440 -0.3383 -0.1065
 4852POPC   PO458742   9.929  30.019   7.742 -0.1372 -0.2428  0.0269
 4852POPC   GL158743  10.107  30.082   7.422  0.3143 -0.1013  0.0565
 4852POPC   GL258744  10.062  29.802   7.293 -0.1148  0.2091 -0.2868
 4852POPC   C1A58745  10.409  30.013   7.071 -0.1649 -0.0851  0.0725
 4852POPC   D2A58746  10.452  29.976   6.593 -0.0426 -0.1027  0.0829
 4852POPC   C3A58747  10.189  30.111   6.222 -0.1062  0.4028  0.5421
 4852POPC   C4A58748   9.982  29.800   5.975  0.0320 -0.0922  0.1841
 4852POPC   C1B58749   9.872  30.128   6.966 -0.0954  0.1644  0.1153
 4852POPC   C2B58750   9.783  30.085   6.532 -0.0771  0.0132 -0.0890
 4852POPC   C3B58751   9.568  29.952   6.202 -0.2087 -0.1478  0.1135
 4852POPC   C4B58752   9.462  29.847   5.771 -0.1210  0.0539 -0.2300
 4853POPC   NC358753  15.487   0.361   7.853  0.0076  0.0176  0.0508
 4853POPC   PO458754  15.624   0.174   7.526 -0.2377  0.2006 -0.1525
 4853POPC   GL158755  15.398   0.053   7.149 -0.1827 -0.3441  0.2005
 4853POPC   GL258756  15.267   0.275   7.133  0.0921  0.0279 -0.0817
 4853POPC   C1A58757  15.426   0.246   6.685  0.1114 -0.1714 -0.1730
 4853POPC   D2A58758  15.200   0.468   6.359 -0.0377  0.1929 -0.1433
 4853POPC   C3A58759  15.447   0.497   5.925  0.0339  0.1326 -0.1434
 4853POPC   C4A58760  15.514   0.749   5.579  0.0176 -0.3198 -0.1757
 4853POPC   C1B58761  15.119   0.675   6.861 -0.2091  0.4649  0.0411
 4853POPC   C2B58762  15.177   1.015   6.571 -0.1078 -0.2785 -0.1045
 4853POPC   C3B58763  15.062   1.152   6.169  0.0071  0.1451 -0.0991
 4853POPC   C4B58764  14.995   1.100   5.686  0.0331 -0.1730  0.3163
 4854POPC   NC358765   9.753  24.296   7.522 -0.1020 -0.2587 -0.2066
 4854POPC   PO458766  10.009  23.956   7.574 -0.0425 -0.0837  0.1956
 4854POPC   GL158767  10.120  23.921   7.155 -0.3260 -0.0494 -0.2298
 4854POPC   GL258768   9.895  23.702   6.978  0.0360 -0.1644 -0.0914
 4854POPC   C1A58769   9.928  24.159   6.806  0.3461  0.1984  0.4382
 4854POPC   D2A58770  10.093  24.194   6.359 -0.2702  0.0087  0.2669
 4854POPC   C3A58771   9.935  23.914   6.072  0.2350 -0.3122  0.2554
 4854POPC   C4A58772   9.628  23.612   6.070  0.2261  0.1636  0.0389
 4854POPC   C1B58773   9.959  23.608   6.468 -0.0060 -0.1385 -0.1389
 4854POPC   C2B58774  10.096  23.396   6.086  0.0835 -0.0707  0.2707
 4854POPC   C3B58775  10.323  23.512   5.721 -0.1746  0.1982  0.2299
 4854POPC   C4B58776  10.707  23.423   5.605 -0.1560  0.3176  0.1264
 4855POPC   NC358777  13.670   1.292   7.856 -0.2935  0.1754  0.0574
 4855POPC   PO458778  13.344   1.280   7.681  0.1657 -0.3733  0.0263
 4855POPC   GL158779  13.716   1.354   7.400  0.1696 -0.1829  0.2272
 4855POPC   GL258780  13.585   1.514   7.134  0.1990  0.3221 -0.2003
 4855POPC   C1A58781  13.842   1.096   6.995  0.2911 -0.2758  0.3367
 4855POPC   D2A58782  14.055   1.042   6.559 -0.1746 -0.1041 -0.2797
 4855POPC   C3A58783  13.817   1.140   6.141 -0.1602  0.0631  0.1752
 4855POPC   C4A58784  13.872   1.468   5.784  0.1587  0.0033  0.2240
 4855POPC   C1B58785  13.260   1.412   6.840 -0.1288 -0.1209 -0.0470
 4855POPC   C2B58786  13.087   1.258   6.426  0.0463  0.1165 -0.0558
 4855POPC   C3B58787  12.967   1.356   5.987  0.2303  0.1155  0.0192
 4855POPC   C4B58788  12.848   1.579   5.593 -0.0051  0.0426  0.0060
 4856POPC   NC358789   0.578  24.431   7.233 -0.4430 -0.0512 -0.0427
 4856POPC   PO458790   0.227  24.315   7.404 -0.0419 -0.4263  0.0210
 4856POPC   GL158791   0.198  24.325   7.005  0.4886 -0.2201 -0.2842
 4856POPC   GL258792   0.164  24.119   6.833 -0.1150 -0.2460  0.0657
 4856POPC   C1A58793   0.072  24.656   6.741  0.0466 -0.3713 -0.1952
 4856POPC   D2A58794  -0.175  24.638   6.378  0.1361  0.1137 -0.1249
 4856POPC   C3A58795  -0.043  24.634   5.927  0.2327 -0.0486  0.0384
 4856POPC   C4A58796  -0.006  24.739   5.448 -0.0597 -0.0159 -0.1309
 4856POPC   C1B58797   0.114  24.218   6.348  0.0607 -0.0484 -0.2555
 4856POPC   C2B58798  -0.166  24.147   5.970 -0.1044 -0.0169  0.0395
 4856POPC   C3B58799  -0.290  24.296   5.582  0.1475 -0.2757 -0.1646
 4856POPC   C4B58800  -0.537  24.635   5.378  0.1654  0.0436  0.1159
 4857POPC   NC358801   1.349  28.030   8.329  0.0072  0.0860 -0.0758
 4857POPC   PO458802   1.214  28.194   7.992 -0.3552 -0.1501  0.0977
 4857POPC   GL158803   1.207  28.188   7.576 -0.2520 -0.1096  0.1090
 4857POPC   GL258804   1.392  28.388   7.352  0.1656  0.2523 -0.0990
 4857POPC   C1A58805   1.011  27.885   7.233  0.2197 -0.0299 -0.0521
 4857POPC   D2A58806   1.023  27.701   6.790 -0.1611 -0.1759  0.1817
 4857POPC   C3A58807   1.214  27.723   6.368 -0.0138  0.0302 -0.0750
 4857POPC   C4A58808   1.539  27.751   6.041  0.1043 -0.3000 -0.1894
 4857POPC   C1B58809   1.184  28.317   6.958 -0.0672  0.0622  0.1273
 4857POPC   C2B58810   0.958  28.252   6.561  0.1464 -0.0398 -0.1374
 4857POPC   C3B58811   0.615  28.224   6.265  0.2008 -0.1944  0.1740
 4857POPC   C4B58812   0.307  28.035   5.934  0.1818  0.1969  0.0729
 4858POPC   NC358813   1.200   8.825   7.843 -0.0230 -0.1246 -0.1886
 4858POPC   PO458814   1.185   9.229   7.783 -0.2350  0.1250 -0.2027
 4858POPC   GL158815   1.242   9.260   7.371  0.3659 -0.0920 -0.1309
 4858POPC   GL258816   1.217   9.035   7.247  0.1198  0.3041  0.0046
 4858POPC   C1A58817   1.280   9.434   6.924  0.1747 -0.1458  0.1207
 4858POPC   D2A58818   1.301   9.535   6.488 -0.0504  0.0104  0.2157
 4858POPC   C3A58819   0.928   9.285   6.341 -0.0379 -0.0510 -0.2288
 4858POPC   C4A58820   0.522   9.189   6.181  0.3225  0.0267  0.0671
 4858POPC   C1B58821   1.290   8.998   6.763  0.1682  0.1894 -0.0948
 4858POPC   C2B58822   1.567   8.898   6.417  0.0411  0.0436 -0.1265
 4858POPC   C3B58823   1.627   8.696   6.035 -0.0168  0.2469  0.2358
 4858POPC   C4B58824   1.520   8.678   5.594 -0.0366  0.0488 -0.1677
 4859POPC   NC358825  27.380  30.515   7.868 -0.0843  0.1504 -0.0375
 4859POPC   PO458826  27.524  30.652   7.522 -0.0586 -0.0908  0.4144
 4859POPC   GL158827  27.350  30.649   7.153  0.1150  0.0426  0.0734
 4859POPC   GL258828  27.103  30.447   7.117 -0.0640  0.0557  0.1606
 4859POPC   C1A58829  27.352  30.815   6.708 -0.0637 -0.1573 -0.0739
 4859POPC   D2A58830  27.505  31.060   6.336  0.0207  0.1784 -0.2102
 4859POPC   C3A58831  27.792  30.868   6.042 -0.0427 -0.0746  0.0922
 4859POPC   C4A58832  28.027  30.915   5.607 -0.2335  0.0510 -0.0883
 4859POPC   C1B58833  27.091  30.369   6.608 -0.1764  0.0750 -0.2425
 4859POPC   C2B58834  27.134  30.694   6.275  0.1042  0.1834  0.1631
 4859POPC   C3B58835  27.267  30.982   5.957  0.0684  0.2805 -0.2934
 4859POPC   C4B58836  27.111  31.064   5.536 -0.1605 -0.1130 -0.3287
 4860POPC   NC358837  10.893  15.402   7.420  0.0856  0.1923  0.1176
 4860POPC   PO458838  11.267  15.515   7.369  0.2623  0.0817  0.0557
 4860POPC   GL158839  11.518  15.707   7.147 -0.0634  0.3509  0.0782
 4860POPC   GL258840  11.362  15.759   6.958  0.3195  0.2165 -0.3015
 4860POPC   C1A58841  11.900  15.699   6.906 -0.2522 -0.0520 -0.1857
 4860POPC   D2A58842  12.352  15.669   6.822 -0.1972  0.4610  0.1494
 4860POPC   C3A58843  12.512  15.540   6.395 -0.3971 -0.0489 -0.2644
 4860POPC   C4A58844  12.632  15.198   6.069  0.2005  0.1336 -0.0807
 4860POPC   C1B58845  11.243  15.867   6.548  0.1674 -0.2560 -0.2429
 4860POPC   C2B58846  11.300  16.205   6.290 -0.0991 -0.0807 -0.1646
 4860POPC   C3B58847  11.038  16.319   5.879  0.1169 -0.1180 -0.0095
 4860POPC   C4B58848  10.613  16.359   5.871  0.1975  0.1327  0.0238
 4861POPC   NC358849  19.465  15.553   7.675  0.1472  0.0150 -0.0896
 4861POPC   PO458850  19.817  15.322   7.575  0.0358  0.1403 -0.1535
 4861POPC   GL158851  19.704  15.444   7.176  0.2567  0.1456  0.2185
 4861POPC   GL258852  19.531  15.202   7.026 -0.2506 -0.0895 -0.0354
 4861POPC   C1A58853  19.951  15.651   6.787 -0.1303 -0.1182  0.0805
 4861POPC   D2A58854  20.015  15.651   6.388  0.1719  0.2150 -0.2330
 4861POPC   C3A58855  20.177  15.956   6.030  0.1944  0.1044 -0.0905
 4861POPC   C4A58856  20.182  15.979   5.593 -0.0373  0.0268 -0.1206
 4861POPC   C1B58857  19.399  14.961   6.664 -0.1949  0.0744  0.2210
 4861POPC   C2B58858  19.509  14.670   6.323 -0.2412 -0.0974 -0.0331
 4861POPC   C3B58859  19.523  14.459   5.899  0.0989 -0.1606  0.0955
 4861POPC   C4B58860  19.395  14.051   5.772 -0.0873  0.2273 -0.3495
 4862POPC   NC358861  24.343   4.695   7.621  0.2124  0.0215 -0.0798
 4862POPC   PO458862  23.995   4.881   7.633 -0.2059  0.0441 -0.2111
 4862POPC   GL158863  23.986   4.747   7.287 -0.2769  0.0268 -0.1400
 4862POPC   GL258864  24.052   4.471   7.270 -0.0960  0.2067  0.4006
 4862POPC   C1A58865  23.704   4.716   6.922 -0.1269  0.1454  0.1653
 4862POPC   D2A58866  23.348   4.673   6.614 -0.1529 -0.0894  0.3615
 4862POPC   C3A58867  23.549   4.818   6.215  0.1646  0.0208  0.1179
 4862POPC   C4A58868  23.820   4.859   5.843  0.0124  0.0953  0.0633
 4862POPC   C1B58869  24.116   4.355   6.860 -0.2517  0.0820 -0.4080
 4862POPC   C2B58870  24.213   4.045   6.542 -0.0542  0.3357 -0.0239
 4862POPC   C3B58871  24.296   3.700   6.240  0.0648  0.1312  0.1306
 4862POPC   C4B58872  24.371   3.364   5.941  0.0645 -0.3086  0.0258
 4863POPC   NC358873  25.988  12.355   8.005 -0.1959  0.0998 -0.1491
 4863POPC   PO458874  25.946  12.102   7.693  0.0808  0.2735 -0.2575
 4863POPC   GL158875  25.875  12.325   7.329 -0.1906  0.3773  0.0469
 4863POPC   GL258876  25.604  12.483   7.348  0.2518 -0.1879  0.4160
 4863POPC   C1A58877  25.964  12.182   6.864  0.2536  0.0165  0.1229
 4863POPC   D2A58878  25.987  12.521   6.587  0.1447  0.0119  0.0938
 4863POPC   C3A58879  26.105  12.424   6.182  0.0131 -0.0589 -0.0218
 4863POPC   C4A58880  26.300  12.096   5.995  0.0047  0.1392  0.3421
 4863POPC   C1B58881  25.458  12.476   6.921 -0.2287  0.0277 -0.0237
 4863POPC   C2B58882  25.492  12.589   6.486 -0.1503 -0.0439  0.1624
 4863POPC   C3B58883  25.243  12.659   6.108 -0.2574  0.0406  0.2470
 4863POPC   C4B58884  24.904  12.875   5.789 -0.2647  0.2234 -0.0630
 4864POPC   NC358885  13.357  13.279   7.859  0.2357 -0.0961 -0.3290
 4864POPC   PO458886  13.474  13.220   7.496 -0.1813 -0.2176 -0.0496
 4864POPC   GL158887  13.532  13.304   7.131  0.2221 -0.0283  0.3098
 4864POPC   GL258888  13.793  13.428   7.138  0.0372 -0.0919 -0.1160
 4864POPC   C1A58889  13.607  13.352   6.660  0.0375 -0.2228  0.3107
 4864POPC   D2A58890  13.705  13.296   6.197  0.3525  0.0606  0.3547
 4864POPC   C3A58891  13.948  13.613   5.945 -0.1664 -0.1419 -0.3338
 4864POPC   C4A58892  13.782  13.862   5.609  0.0125 -0.1402  0.0880
 4864POPC   C1B58893  13.881  13.029   6.902 -0.0743  0.0826  0.0706
 4864POPC   C2B58894  14.138  12.937   6.514  0.0707 -0.2239 -0.4563
 4864POPC   C3B58895  14.017  12.730   6.113 -0.0897  0.2034  0.2323
 4864POPC   C4B58896  13.644  12.635   5.774 -0.0165 -0.0323  0.3247
 4865POPC   NC358897  14.922  20.000   7.880  0.2590 -0.1266 -0.1419
 4865POPC   PO458898  14.970  19.687   7.623 -0.2914 -0.0960  0.0811
 4865POPC   GL158899  15.132  19.813   7.263 -0.0586 -0.0934 -0.0912
 4865POPC   GL258900  15.221  19.603   7.064  0.0642 -0.0362 -0.1741
 4865POPC   C1A58901  15.079  20.034   6.821  0.0512  0.1417  0.3231
 4865POPC   D2A58902  14.976  20.249   6.437 -0.2808 -0.1445  0.1795
 4865POPC   C3A58903  15.370  20.287   6.213 -0.1456  0.0650  0.2534
 4865POPC   C4A58904  15.550  20.091   5.857 -0.0628 -0.2430 -0.1639
 4865POPC   C1B58905  15.244  19.662   6.553  0.0677 -0.3848  0.1648
 4865POPC   C2B58906  15.313  19.735   6.171 -0.0845  0.1347  0.0889
 4865POPC   C3B58907  15.315  19.593   5.718 -0.1503  0.0559  0.2558
 4865POPC   C4B58908  15.187  19.600   5.220 -0.1216  0.0123  0.0213
 4866POPC   NC358909  28.095  30.254   8.100 -0.2957  0.1435 -0.1221
 4866POPC   PO458910  28.266  30.127   7.763 -0.0174 -0.0847  0.1615
 4866POPC   GL158911  28.329  29.887   7.466 -0.0276  0.0141  0.3794
 4866POPC   GL258912  28.253  30.083   7.271 -0.0283 -0.3213  0.0694
 4866POPC   C1A58913  28.648  29.841   7.112  0.1641 -0.0602 -0.0043
 4866POPC   D2A58914  28.967  29.842   6.706 -0.0760 -0.0765  0.0324
 4866POPC   C3A58915  29.277  30.250   6.708 -0.0848 -0.0750 -0.2803
 4866POPC   C4A58916  29.629  30.374   6.470 -0.1029 -0.3299 -0.2077
 4866POPC   C1B58917  28.161  30.022   6.882  0.1533  0.3434  0.1118
 4866POPC   C2B58918  27.946  30.038   6.483 -0.0806 -0.0903 -0.0823
 4866POPC   C3B58919  27.767  30.080   6.067  0.4493 -0.4095  0.1639
 4866POPC   C4B58920  27.709  30.040   5.579  0.1077  0.3159 -0.1250
 4867POPC   NC358921   5.721  11.950   7.422 -0.3340  0.4203 -0.2623
 4867POPC   PO458922   6.014  11.852   7.167 -0.0863  0.0316  0.0203
 4867POPC   GL158923   6.052  11.939   6.816  0.4401  0.0584  0.1352
 4867POPC   GL258924   6.300  11.774   6.719 -0.2748 -0.0991 -0.3413
 4867POPC   C1A58925   6.084  12.033   6.332 -0.1291 -0.0228 -0.0089
 4867POPC   D2A58926   6.041  12.136   5.903 -0.0951  0.1366  0.0342
 4867POPC   C3A58927   5.711  12.050   5.563 -0.1015 -0.1505  0.3304
 4867POPC   C4A58928   5.235  11.804   5.467 -0.3158 -0.2391 -0.0703
 4867POPC   C1B58929   6.292  11.489   6.393 -0.0394  0.1875  0.0435
 4867POPC   C2B58930   5.915  11.242   6.192  0.0880  0.0869  0.0163
 4867POPC   C3B58931   5.759  10.969   5.849 -0.1249  0.0389 -0.3200
 4867POPC   C4B58932   5.520  11.001   5.463 -0.0265 -0.2136  0.1666
 4868POPC   NC358933   2.905   4.532   8.543  0.0337 -0.1052 -0.0115
 4868POPC   PO458934   2.582   4.485   8.296  0.2900  0.0090  0.0753
 4868POPC   GL158935   2.503   4.451   7.902  0.2202 -0.0716 -0.2957
 4868POPC   GL258936   2.446   4.090   8.024  0.0771 -0.1632 -0.2174
 4868POPC   C1A58937   2.105   4.497   7.715  0.0283 -0.0689 -0.1686
 4868POPC   D2A58938   1.654   4.495   7.550 -0.0695  0.1257 -0.1496
 4868POPC   C3A58939   1.524   4.357   7.136  0.0250  0.0085  0.0765
 4868POPC   C4A58940   1.444   4.274   6.723 -0.1371  0.0120 -0.0121
 4868POPC   C1B58941   2.070   4.014   7.770  0.0400 -0.0013  0.4359
 4868POPC   C2B58942   1.674   3.921   7.474  0.1333 -0.0366 -0.3430
 4868POPC   C3B58943   1.718   3.856   7.026  0.0671 -0.3314 -0.3574
 4868POPC   C4B58944   1.804   3.832   6.575  0.1590  0.0987  0.1373
 4869POPC   NC358945   2.842  26.117   7.726  0.4598  0.3252 -0.1623
 4869POPC   PO458946   3.060  26.393   7.728  0.1491  0.1622  0.3270
 4869POPC   GL158947   2.943  26.290   7.271 -0.3848 -0.0461 -0.2259
 4869POPC   GL258948   3.276  26.341   7.200 -0.0683 -0.1578 -0.1776
 4869POPC   C1A58949   2.893  26.345   6.805  0.0302  0.1778 -0.3270
 4869POPC   D2A58950   3.055  26.350   6.348 -0.0381  0.1212  0.0362
 4869POPC   C3A58951   3.019  26.481   5.884  0.1697  0.0724 -0.6010
 4869POPC   C4A58952   2.757  26.752   5.591 -0.0566 -0.2357 -0.1626
 4869POPC   C1B58953   3.409  26.287   6.783  0.2159  0.0726 -0.1354
 4869POPC   C2B58954   3.521  26.033   6.394  0.0422 -0.2718 -0.4828
 4869POPC   C3B58955   3.735  25.861   6.026 -0.0368  0.1768 -0.0561
 4869POPC   C4B58956   4.081  25.963   5.673 -0.1820 -0.0976 -0.1301
 4870POPC   NC358957  19.908   4.610   7.995  0.0162 -0.1967 -0.1908
 4870POPC   PO458958  20.025   4.236   8.020  0.0804  0.1902 -0.0243
 4870POPC   GL158959  20.056   4.436   7.601  0.3026  0.1820  0.0460
 4870POPC   GL258960  20.231   4.594   7.418 -0.2672 -0.0949 -0.1361
 4870POPC   C1A58961  19.867   4.304   7.177  0.0009 -0.4721  0.1151
 4870POPC   D2A58962  19.712   3.947   7.008  0.2801 -0.1836 -0.0618
 4870POPC   C3A58963  19.804   3.887   6.523 -0.0363 -0.0188  0.2534
 4870POPC   C4A58964  19.871   4.134   6.150  0.0733  0.2294  0.4292
 4870POPC   C1B58965  20.345   4.257   7.161 -0.0550 -0.0966  0.1281
 4870POPC   C2B58966  20.220   4.180   6.757  0.2164  0.0251  0.1377
 4870POPC   C3B58967  20.335   4.033   6.324 -0.0795 -0.3248 -0.2852
 4870POPC   C4B58968  20.256   3.822   5.878  0.0602 -0.0387 -0.2856
 4871POPC   NC358969  27.308  28.578   7.803 -0.0540  0.0866  0.0657
 4871POPC   PO458970  27.615  28.598   7.588  0.1473 -0.1274 -0.1824
 4871POPC   GL158971  27.381  28.535   7.232  0.1553 -0.3042  0.0867
 4871POPC   GL258972  27.233  28.778   7.305 -0.1097 -0.2359  0.1916
 4871POPC   C1A58973  27.580  28.805   6.855  0.0330 -0.1292  0.3774
 4871POPC   D2A58974  27.417  28.702   6.416 -0.0671 -0.0117 -0.1735
 4871POPC   C3A58975  26.933  28.699   6.433 -0.0059  0.1516  0.1184
 4871POPC   C4A58976  26.513  28.574   6.590 -0.0710  0.0910  0.2129
 4871POPC   C1B58977  27.063  28.559   6.894 -0.1571 -0.2300  0.1248
 4871POPC   C2B58978  27.200  28.259   6.602  0.1078  0.4520  0.1999
 4871POPC   C3B58979  27.077  28.272   6.225 -0.4350  0.0732 -0.1283
 4871POPC   C4B58980  27.200  28.046   5.841 -0.0019  0.0073 -0.2165
 4872POPC   NC358981  27.814  10.406   7.932 -0.3481  0.0455  0.1881
 4872POPC   PO458982  28.120  10.613   7.997  0.3829  0.1971 -0.0171
 4872POPC   GL158983  28.188  10.515   7.585 -0.0931  0.0627 -0.2482
 4872POPC   GL258984  28.138  10.216   7.629  0.2677  0.0298  0.0878
 4872POPC   C1A58985  28.201  10.444   7.075  0.0303  0.0982  0.1382
 4872POPC   D2A58986  28.331  10.495   6.611 -0.1387 -0.0486 -0.0208
 4872POPC   C3A58987  28.459  10.102   6.452  0.1969 -0.0776 -0.0686
 4872POPC   C4A58988  28.627   9.895   6.050  0.2021 -0.2755 -0.1134
 4872POPC   C1B58989  28.443  10.040   7.333 -0.3426  0.1962 -0.1299
 4872POPC   C2B58990  28.579   9.616   7.267 -0.0359  0.0615  0.2298
 4872POPC   C3B58991  28.688   9.154   7.288 -0.0308 -0.0138 -0.1781
 4872POPC   C4B58992  28.809   8.758   7.389 -0.0733  0.0145  0.1176
 4873POPC   NC358993   7.574   0.995   8.568  0.1701 -0.3427  0.0525
 4873POPC   PO458994   7.452   0.990   8.183  0.2794  0.3668  0.0076
 4873POPC   GL158995   7.297   0.983   7.802  0.1320  0.0661  0.2023
 4873POPC   GL258996   7.289   0.763   7.533 -0.1051  0.1340  0.0241
 4873POPC   C1A58997   7.354   1.235   7.413 -0.2486 -0.0731 -0.2842
 4873POPC   D2A58998   7.249   1.156   7.014 -0.0619 -0.2641 -0.4434
 4873POPC   C3A58999   7.250   1.302   6.585 -0.0122 -0.1103  0.3552
 4873POPC   C4A59000   7.451   1.666   6.271 -0.0954  0.0915  0.1248
 4873POPC   C1B59001   7.615   0.746   7.244  0.2855  0.0965  0.1228
 4873POPC   C2B59002   7.704   0.692   6.799  0.2452 -0.0687  0.2303
 4873POPC   C3B59003   7.974   0.868   6.540 -0.2092 -0.1683 -0.0426
 4873POPC   C4B59004   7.973   1.246   6.241  0.3143 -0.3201 -0.1746
 4874POPC   NC359005  18.797   6.047   8.155  0.2492 -0.0932  0.2642
 4874POPC   PO459006  18.574   6.004   7.839  0.2832  0.0177  0.1529
 4874POPC   GL159007  18.784   5.923   7.548  0.0984  0.1771  0.5254
 4874POPC   GL259008  18.718   5.704   7.324  0.2689 -0.0618  0.0848
 4874POPC   C1A59009  19.114   6.005   7.247  0.1610 -0.0126 -0.0273
 4874POPC   D2A59010  19.408   5.672   7.092  0.1691  0.2469  0.1688
 4874POPC   C3A59011  19.676   5.620   6.734  0.0683 -0.1177  0.1729
 4874POPC   C4A59012  19.659   5.714   6.230 -0.3018  0.3240 -0.1931
 4874POPC   C1B59013  18.840   5.792   6.860  0.1065 -0.0299 -0.0740
 4874POPC   C2B59014  19.203   5.988   6.642  0.0309  0.2147  0.1350
 4874POPC   C3B59015  19.569   6.158   6.409  0.1223 -0.1834  0.2655
 4874POPC   C4B59016  19.994   6.204   6.211 -0.0630  0.1145 -0.0705
 4875POPC   NC359017   1.480  12.548   8.536  0.2785 -0.2334  0.0155
 4875POPC   PO459018   1.271  12.550   8.181 -0.2106  0.0300 -0.0998
 4875POPC   GL159019   1.191  12.759   7.861  0.0494  0.4701  0.1939
 4875POPC   GL259020   1.211  13.054   7.805 -0.1748  0.0529  0.2709
 4875POPC   C1A59021   1.026  12.733   7.443 -0.0870  0.3023 -0.0166
 4875POPC   D2A59022   0.966  12.612   7.030  0.0506 -0.0251 -0.2141
 4875POPC   C3A59023   1.205  12.653   6.635 -0.0826 -0.3696  0.0757
 4875POPC   C4A59024   1.524  12.308   6.563 -0.1004 -0.2603 -0.2159
 4875POPC   C1B59025   1.373  13.473   7.656 -0.3240 -0.1083 -0.1838
 4875POPC   C2B59026   1.496  13.724   7.298 -0.1574 -0.1708 -0.2628
 4875POPC   C3B59027   1.900  13.836   7.078 -0.1435  0.3431 -0.0387
 4875POPC   C4B59028   2.384  13.695   7.164  0.0711  0.2763 -0.0867
 4876POPC   NC359029  28.040   5.017   7.437 -0.0004 -0.2456  0.4062
 4876POPC   PO459030  28.322   5.034   7.700  0.0854 -0.1313  0.1503
 4876POPC   GL159031  28.450   5.155   7.245 -0.2987 -0.0206  0.1353
 4876POPC   GL259032  28.345   4.923   7.050 -0.0263 -0.0429  0.0147
 4876POPC   C1A59033  28.366   5.408   6.865 -0.1682  0.1803  0.1191
 4876POPC   D2A59034  28.303   5.644   6.481  0.0763  0.1578  0.2585
 4876POPC   C3A59035  27.867   5.656   6.282  0.0757 -0.2541  0.2310
 4876POPC   C4A59036  27.390   5.668   6.203  0.2461 -0.1061 -0.3599
 4876POPC   C1B59037  28.320   4.910   6.658  0.2316 -0.1733  0.1797
 4876POPC   C2B59038  28.491   4.752   6.238  0.0062  0.0977 -0.3949
 4876POPC   C3B59039  28.567   4.406   5.966  0.1686 -0.1148  0.0823
 4876POPC   C4B59040  28.546   4.084   5.649  0.1921  0.1260  0.1601
 4877POPC   NC359041  29.181  30.408   7.678 -0.0432  0.1157 -0.3044
 4877POPC   PO459042  28.797  30.484   7.696 -0.0041  0.1833  0.0678
 4877POPC   GL159043  28.869  30.434   7.319 -0.0559  0.5395 -0.0057
 4877POPC   GL259044  29.000  30.168   7.244  0.0508 -0.2021  0.0912
 4877POPC   C1A59045  28.984  30.670   6.905 -0.4022 -0.3470 -0.0301
 4877POPC   D2A59046  29.165  30.704   6.446  0.0971 -0.1365  0.1247
 4877POPC   C3A59047  28.946  30.627   6.021 -0.1599 -0.0766  0.1409
 4877POPC   C4A59048  28.809  31.001   5.754 -0.0546  0.0915 -0.3724
 4877POPC   C1B59049  28.696  30.226   6.862 -0.1738  0.2993  0.1452
 4877POPC   C2B59050  28.358  30.288   6.535 -0.3067  0.0100  0.0852
 4877POPC   C3B59051  28.253  30.293   6.088 -0.0159 -0.1556  0.1288
 4877POPC   C4B59052  27.952  30.412   5.736 -0.0600  0.0017  0.0096
 4878POPC   NC359053   8.306  25.759   7.874  0.1028 -0.0050  0.0844
 4878POPC   PO459054   8.655  25.863   8.011 -0.1188  0.0100  0.0781
 4878POPC   GL159055   8.759  25.861   7.559  0.0659  0.0007 -0.1795
 4878POPC   GL259056   8.548  25.850   7.332 -0.0948 -0.0872  0.0330
 4878POPC   C1A59057   9.073  25.578   7.333  0.2194  0.1780 -0.0578
 4878POPC   D2A59058   9.439  25.613   7.130  0.1475  0.1031 -0.2365
 4878POPC   C3A59059   9.526  25.516   6.702  0.0432 -0.0633  0.1210
 4878POPC   C4A59060   9.291  25.395   6.285  0.2041 -0.1444  0.3348
 4878POPC   C1B59061   8.746  25.769   6.942  0.0598  0.1667  0.0466
 4878POPC   C2B59062   9.100  25.756   6.593  0.0515 -0.0303  0.2960
 4878POPC   C3B59063   9.355  25.926   6.195  0.0653 -0.1379  0.0316
 4878POPC   C4B59064   9.594  25.830   5.824 -0.1816 -0.0079 -0.0159
 4879POPC   NC359065  11.381  13.785   8.369 -0.2520 -0.1958  0.1013
 4879POPC   PO459066  11.640  13.713   8.055  0.2516 -0.0414  0.1777
 4879POPC   GL159067  11.483  13.530   7.769 -0.2215  0.2932 -0.2539
 4879POPC   GL259068  11.331  13.255   7.649  0.0764 -0.0362  0.0508
 4879POPC   C1A59069  11.407  13.586   7.287  0.3272 -0.0092  0.0169
 4879POPC   D2A59070  11.529  13.454   6.890 -0.1754 -0.2034 -0.0760
 4879POPC   C3A59071  11.193  13.315   6.575  0.0120  0.0077  0.1053
 4879POPC   C4A59072  10.779  13.020   6.686  0.1482 -0.3885 -0.2346
 4879POPC   C1B59073  10.952  13.131   7.879  0.0675 -0.0267 -0.1360
 4879POPC   C2B59074  10.604  12.945   8.086 -0.1745 -0.0584 -0.1967
 4879POPC   C3B59075  10.210  12.812   8.130 -0.0184 -0.2920 -0.3449
 4879POPC   C4B59076   9.785  12.795   8.019  0.2974 -0.2464 -0.0647
 4880POPC   NC359077   2.007  20.443   7.500  0.0592  0.2490 -0.0710
 4880POPC   PO459078   2.148  20.263   7.214  0.7009  0.0457 -0.1143
 4880POPC   GL159079   1.775  20.401   7.044  0.0743  0.0614  0.0473
 4880POPC   GL259080   1.641  20.636   7.188 -0.0178  0.2494  0.0964
 4880POPC   C1A59081   1.712  20.473   6.623 -0.2064  0.0991  0.0680
 4880POPC   D2A59082   1.556  20.584   6.165 -0.1675 -0.2236 -0.1287
 4880POPC   C3A59083   1.386  20.870   5.873  0.0153 -0.0834  0.0818
 4880POPC   C4A59084   1.387  21.172   5.550 -0.1739 -0.1870 -0.1269
 4880POPC   C1B59085   1.552  20.885   6.798  0.1499 -0.0479  0.1804
 4880POPC   C2B59086   1.479  21.018   6.348  0.3404 -0.3964 -0.1267
 4880POPC   C3B59087   1.493  21.485   6.156 -0.2229  0.1668  0.1228
 4880POPC   C4B59088   1.519  21.911   5.920 -0.2437 -0.0373  0.0092
 4881POPC   NC359089  26.412  19.786   7.853  0.0647 -0.2968 -0.3469
 4881POPC   PO459090  26.293  20.137   7.732 -0.2919 -0.1047  0.1363
 4881POPC   GL159091  26.048  20.353   7.442  0.2755  0.1637 -0.3461
 4881POPC   GL259092  25.834  20.277   7.421 -0.0305  0.0615 -0.0029
 4881POPC   C1A59093  26.172  20.451   7.019  0.2173 -0.2764  0.2011
 4881POPC   D2A59094  25.993  20.369   6.578 -0.1840 -0.1598  0.3312
 4881POPC   C3A59095  26.173  20.060   6.281  0.1047  0.0177  0.0448
 4881POPC   C4A59096  26.055  20.036   5.832  0.0245 -0.2627  0.0008
 4881POPC   C1B59097  25.701  20.453   7.029  0.0313  0.0629  0.0569
 4881POPC   C2B59098  25.626  20.711   6.669 -0.2673  0.0685 -0.0203
 4881POPC   C3B59099  25.357  20.854   6.298 -0.0724 -0.0723 -0.0133
 4881POPC   C4B59100  25.222  20.485   6.011 -0.0830 -0.2624  0.0234
 4882POPC   NC359101  22.721   1.375   7.757  0.3901 -0.0743 -0.0089
 4882POPC   PO459102  23.106   1.556   7.825 -0.1049  0.1020 -0.2107
 4882POPC   GL159103  23.352   1.562   7.596 -0.3149 -0.1220 -0.2304
 4882POPC   GL259104  23.190   1.462   7.310 -0.0581  0.0284  0.0225
 4882POPC   C1A59105  23.628   1.812   7.350  0.2791 -0.1386  0.1311
 4882POPC   D2A59106  23.863   1.823   6.965  0.0373 -0.0751 -0.0924
 4882POPC   C3A59107  24.280   2.015   7.049  0.3586 -0.2947  0.0577
 4882POPC   C4A59108  24.487   2.357   6.871  0.0715  0.0141 -0.1761
 4882POPC   C1B59109  23.132   1.471   6.868 -0.1688 -0.1923  0.1019
 4882POPC   C2B59110  23.110   1.443   6.400  0.2060  0.2399 -0.0205
 4882POPC   C3B59111  23.419   1.163   6.154 -0.3399 -0.0767  0.1534
 4882POPC   C4B59112  23.863   1.149   6.192  0.3089 -0.2197 -0.1081
 4883POPC   NC359113   6.599   6.766   8.451 -0.1852 -0.1065  0.0492
 4883POPC   PO459114   6.472   6.433   8.267 -0.1486  0.1227  0.1459
 4883POPC   GL159115   6.303   6.814   8.126  0.0027 -0.1807 -0.0279
 4883POPC   GL259116   6.273   6.627   7.854  0.0732  0.2042  0.0243
 4883POPC   C1A59117   6.392   7.273   8.214 -0.0555  0.1922 -0.0427
 4883POPC   D2A59118   6.784   7.529   8.243  0.0182 -0.2077 -0.2197
 4883POPC   C3A59119   6.833   8.028   8.347  0.1903 -0.3768  0.0944
 4883POPC   C4A59120   6.647   8.429   8.254  0.0106  0.0456  0.3456
 4883POPC   C1B59121   6.027   6.444   7.549 -0.1161  0.0366  0.5684
 4883POPC   C2B59122   6.006   6.471   7.041  0.0987 -0.1562 -0.1178
 4883POPC   C3B59123   5.959   6.602   6.599  0.0590 -0.3126  0.3211
 4883POPC   C4B59124   5.997   6.860   6.237 -0.1776 -0.2050  0.1393
 4884POPC   NC359125  14.570  10.693   7.898 -0.0599  0.0710 -0.0569
 4884POPC   PO459126  14.789  10.438   7.717 -0.1814  0.4086 -0.0911
 4884POPC   GL159127  14.659  10.421   7.400 -0.2923 -0.0357 -0.0220
 4884POPC   GL259128  14.484  10.626   7.262 -0.0133 -0.1695  0.0531
 4884POPC   C1A59129  14.789  10.090   7.097  0.1350 -0.0544 -0.0498
 4884POPC   D2A59130  14.963   9.829   6.743 -0.0071 -0.0576 -0.3456
 4884POPC   C3A59131  14.851   9.941   6.315  0.1004  0.0833 -0.0824
 4884POPC   C4A59132  14.982   9.672   5.916 -0.0551 -0.0993 -0.1884
 4884POPC   C1B59133  14.569  10.504   6.848  0.1540  0.0243  0.0335
 4884POPC   C2B59134  14.507  10.474   6.396  0.0654  0.0439 -0.0128
 4884POPC   C3B59135  14.549  10.248   6.004  0.1030  0.0370 -0.0635
 4884POPC   C4B59136  14.805  10.081   5.707 -0.0344  0.2838  0.2021
 4885POPC   NC359137  12.015   4.937   7.876  0.3015  0.1963  0.1907
 4885POPC   PO459138  11.705   4.815   7.707  0.0465 -0.0991 -0.0382
 4885POPC   GL159139  11.727   4.648   7.263 -0.0902 -0.1529 -0.1937
 4885POPC   GL259140  11.910   4.878   7.238  0.2969  0.0583  0.3198
 4885POPC   C1A59141  11.453   4.736   6.941 -0.0029  0.1622  0.2715
 4885POPC   D2A59142  11.216   4.825   6.523 -0.0502 -0.0087 -0.0389
 4885POPC   C3A59143  10.958   4.858   6.201  0.1109  0.0750  0.0055
 4885POPC   C4A59144  10.807   4.535   5.901 -0.1362 -0.0602  0.0612
 4885POPC   C1B59145  11.970   4.976   6.800 -0.1084 -0.1478  0.1151
 4885POPC   C2B59146  12.018   4.991   6.343  0.0295 -0.0537 -0.0541
 4885POPC   C3B59147  11.942   5.263   5.987  0.0922  0.1151  0.1171
 4885POPC   C4B59148  11.988   5.513   5.600  0.0292 -0.3564 -0.2257
 4886POPC   NC359149  18.336  21.841   7.627 -0.0996 -0.1913  0.1791
 4886POPC   PO459150  17.963  21.828   7.708 -0.0652 -0.0567 -0.1385
 4886POPC   GL159151  17.954  21.915   7.329 -0.1236 -0.0307  0.0002
 4886POPC   GL259152  17.749  22.021   7.247  0.2989  0.3200 -0.0577
 4886POPC   C1A59153  18.361  22.044   7.138 -0.1002  0.0297 -0.1197
 4886POPC   D2A59154  18.643  21.941   6.802 -0.0380  0.3484  0.0692
 4886POPC   C3A59155  18.802  21.935   6.305  0.0645  0.0708  0.0772
 4886POPC   C4A59156  18.724  21.789   5.851 -0.0929  0.0406  0.4390
 4886POPC   C1B59157  17.544  21.894   6.865 -0.2689 -0.0232 -0.0951
 4886POPC   C2B59158  17.498  22.040   6.415 -0.2583 -0.1646  0.2470
 4886POPC   C3B59159  17.771  22.191   6.121 -0.0765 -0.2850 -0.2621
 4886POPC   C4B59160  18.291  22.070   5.997  0.0333 -0.2884 -0.1517
 4887POPC   NC359161   0.469  26.118   7.671  0.2102  0.1310 -0.1089
 4887POPC   PO459162   0.097  26.090   7.584 -0.1318  0.2362  0.1954
 4887POPC   GL159163  -0.047  26.119   7.226  0.2589  0.2707  0.1472
 4887POPC   GL259164  -0.370  26.155   7.412  0.2408 -0.0651 -0.0882
 4887POPC   C1A59165  -0.364  25.968   6.951 -0.0684 -0.1998  0.0141
 4887POPC   D2A59166  -0.415  26.020   6.431 -0.0257 -0.4333  0.0503
 4887POPC   C3A59167  -0.236  25.851   6.029 -0.2257  0.0700  0.1688
 4887POPC   C4A59168   0.054  25.740   5.648 -0.2581  0.4145  0.1215
 4887POPC   C1B59169  -0.677  26.318   7.114  0.2404 -0.1396 -0.0078
 4887POPC   C2B59170  -0.851  26.369   6.682  0.1942 -0.2097 -0.1903
 4887POPC   C3B59171  -0.776  26.453   6.247  0.1094 -0.4224  0.2251
 4887POPC   C4B59172  -0.838  26.648   5.826  0.1881  0.0797 -0.0833
 4888POPC   NC359173  23.698   5.253   7.622 -0.0883  0.1386  0.2540
 4888POPC   PO459174  24.026   5.426   7.648 -0.2042  0.0024  0.3305
 4888POPC   GL159175  24.076   5.458   7.256 -0.2586  0.0706  0.1200
 4888POPC   GL259176  23.999   5.236   7.194 -0.2181  0.2926  0.0842
 4888POPC   C1A59177  24.261   5.866   7.098 -0.0713 -0.0061  0.0489
 4888POPC   D2A59178  24.237   6.188   6.782 -0.0221  0.0039  0.1204
 4888POPC   C3A59179  24.533   6.368   6.367 -0.1885  0.4302  0.0183
 4888POPC   C4A59180  24.565   6.432   5.924 -0.0089  0.3272  0.2815
 4888POPC   C1B59181  24.264   5.386   6.862 -0.0710 -0.0794  0.2117
 4888POPC   C2B59182  24.337   5.777   6.566 -0.1494  0.0511 -0.1841
 4888POPC   C3B59183  24.391   5.907   6.112 -0.0985  0.1001 -0.0698
 4888POPC   C4B59184  24.231   5.681   5.697  0.1675 -0.0999  0.0653
 4889POPC   NC359185  28.133  21.271   8.490  0.4554  0.1416 -0.3115
 4889POPC   PO459186  28.370  20.989   8.334  0.3152 -0.0014 -0.2658
 4889POPC   GL159187  28.168  21.141   8.022  0.1291 -0.2219  0.1014
 4889POPC   GL259188  28.255  21.187   7.786  0.1276 -0.1193 -0.0980
 4889POPC   C1A59189  28.025  21.591   7.974 -0.0290 -0.0484 -0.0879
 4889POPC   D2A59190  27.827  21.951   7.817  0.0117 -0.1954  0.2628
 4889POPC   C3A59191  27.572  21.996   7.414  0.1151 -0.1173  0.1408
 4889POPC   C4A59192  27.496  22.172   7.022  0.0500 -0.1443 -0.0213
 4889POPC   C1B59193  28.161  20.902   7.447  0.4059 -0.1488 -0.1750
 4889POPC   C2B59194  28.265  20.829   7.031 -0.0866 -0.1200 -0.1353
 4889POPC   C3B59195  28.139  20.949   6.630  0.0895  0.0068  0.2432
 4889POPC   C4B59196  27.797  21.117   6.334 -0.2828  0.3097 -0.0226
 4890POPC   NC359197  19.264  17.818   8.203  0.1384  0.2441 -0.0443
 4890POPC   PO459198  19.330  17.922   7.802  0.1216  0.0877  0.0647
 4890POPC   GL159199  19.384  17.783   7.408  0.2024 -0.1581 -0.1096
 4890POPC   GL259200  19.093  17.662   7.439  0.1443  0.0622 -0.2562
 4890POPC   C1A59201  19.288  17.719   6.972  0.1744 -0.1554  0.2407
 4890POPC   D2A59202  19.054  17.674   6.542 -0.4927  0.1162 -0.2398
 4890POPC   C3A59203  18.742  17.486   6.263  0.3439  0.0449 -0.2272
 4890POPC   C4A59204  18.431  17.420   5.940  0.0256 -0.3723  0.1422
 4890POPC   C1B59205  18.886  17.915   7.097  0.1857  0.0603  0.2527
 4890POPC   C2B59206  18.782  18.060   6.618  0.1591 -0.3012 -0.0276
 4890POPC   C3B59207  18.781  17.945   6.176  0.1423 -0.2044 -0.0560
 4890POPC   C4B59208  18.984  17.682   5.792 -0.0416  0.2654 -0.0684
 4891POPC   NC359209  12.733  16.763   7.625  0.1032 -0.2144 -0.1960
 4891POPC   PO459210  12.351  16.733   7.580 -0.3278  0.0614  0.1370
 4891POPC   GL159211  12.284  16.651   7.185  0.2293 -0.1171 -0.1827
 4891POPC   GL259212  12.011  16.495   7.195  0.3475  0.2320 -0.0982
 4891POPC   C1A59213  12.426  16.732   6.723  0.0872  0.0676  0.0788
 4891POPC   D2A59214  12.524  16.721   6.270  0.1700 -0.1246 -0.2154
 4891POPC   C3A59215  12.608  16.707   5.845 -0.0974 -0.3095 -0.4533
 4891POPC   C4A59216  12.325  16.809   5.505  0.0043  0.1827 -0.1333
 4891POPC   C1B59217  12.186  16.157   6.839  0.2115 -0.2932 -0.2819
 4891POPC   C2B59218  12.202  15.964   6.407 -0.0028  0.1482 -0.1971
 4891POPC   C3B59219  12.291  15.697   6.012  0.0404  0.0420 -0.1738
 4891POPC   C4B59220  12.386  15.450   5.649 -0.0197 -0.0369 -0.2614
 4892POPC   NC359221  23.603  28.056   8.301 -0.2786  0.4161 -0.2219
 4892POPC   PO459222  23.346  27.888   8.019 -0.0496 -0.2277 -0.1037
 4892POPC   GL159223  23.324  27.751   7.693  0.2813 -0.0093  0.1923
 4892POPC   GL259224  23.566  27.987   7.526  0.2443 -0.0935  0.0222
 4892POPC   C1A59225  23.555  27.470   7.451 -0.4913  0.0214 -0.0015
 4892POPC   D2A59226  23.858  27.248   7.164 -0.1770 -0.0741  0.1803
 4892POPC   C3A59227  23.731  27.189   6.703  0.3305  0.1257  0.0039
 4892POPC   C4A59228  23.693  26.826   6.363 -0.0343  0.0438  0.1265
 4892POPC   C1B59229  23.449  27.891   7.082  0.0730 -0.1437 -0.2422
 4892POPC   C2B59230  23.347  28.048   6.689 -0.2160  0.0394  0.3846
 4892POPC   C3B59231  23.465  28.072   6.239  0.2177 -0.1489 -0.2272
 4892POPC   C4B59232  23.335  28.403   5.961 -0.0658 -0.0818  0.2278
 4893POPC   NC359233   8.303  31.015   7.665 -0.3614 -0.1536 -0.1513
 4893POPC   PO459234   8.467  31.394   7.617  0.0700  0.4586 -0.2225
 4893POPC   GL159235   8.128  31.404   7.430  0.2840 -0.1746  0.1402
 4893POPC   GL259236   8.224  31.564   7.245  0.0347  0.1293 -0.1496
 4893POPC   C1A59237   8.040  31.097   7.030 -0.4038 -0.5012 -0.1630
 4893POPC   D2A59238   8.013  31.117   6.554 -0.1156 -0.0587 -0.0183
 4893POPC   C3A59239   7.768  31.393   6.302  0.0249 -0.3477  0.0019
 4893POPC   C4A59240   7.453  31.241   5.995  0.0829  0.2241  0.0582
 4893POPC   C1B59241   7.841  31.637   7.010  0.1843 -0.1150 -0.1510
 4893POPC   C2B59242   7.686  31.858   6.657 -0.0910  0.2049 -0.0683
 4893POPC   C3B59243   7.525  32.194   6.375 -0.1534  0.0043 -0.0171
 4893POPC   C4B59244   7.346  32.602   6.416  0.2199  0.1519 -0.1410
 4894POPC   NC359245  12.991  28.524   8.033  0.3237 -0.1532 -0.1818
 4894POPC   PO459246  13.262  28.238   8.083  0.1223 -0.1065 -0.4098
 4894POPC   GL159247  13.298  28.133   7.761  0.1162  0.0823  0.2999
 4894POPC   GL259248  13.250  27.861   7.632 -0.1708  0.1545 -0.0253
 4894POPC   C1A59249  13.376  28.417   7.386  0.1454  0.0694 -0.0256
 4894POPC   D2A59250  13.426  28.435   6.884 -0.1221  0.1301 -0.0261
 4894POPC   C3A59251  13.407  28.533   6.479 -0.0216  0.1327  0.2396
 4894POPC   C4A59252  13.230  28.814   6.271  0.1386 -0.2062 -0.0722
 4894POPC   C1B59253  13.045  28.104   7.238  0.2273 -0.1831  0.0052
 4894POPC   C2B59254  12.634  28.297   7.059  0.0530  0.2077  0.2543
 4894POPC   C3B59255  12.246  28.569   6.961  0.0651  0.0565  0.1116
 4894POPC   C4B59256  11.943  28.972   7.129 -0.1509 -0.1973  0.3384
 4895POPC   NC359257  15.672  29.373   7.584  0.1857 -0.0600 -0.1053
 4895POPC   PO459258  15.960  29.072   7.653  0.0782 -0.2618 -0.1456
 4895POPC   GL159259  15.993  28.935   7.245 -0.5872  0.2839  0.0797
 4895POPC   GL259260  15.869  29.139   7.115  0.1645 -0.0193  0.2850
 4895POPC   C1A59261  15.827  28.771   6.831  0.0083  0.1855 -0.0309
 4895POPC   D2A59262  16.045  28.618   6.433  0.2656  0.3011 -0.1532
 4895POPC   C3A59263  16.345  28.347   6.270 -0.0642 -0.0318 -0.0390
 4895POPC   C4A59264  16.607  28.413   5.923  0.1049 -0.3164 -0.3000
 4895POPC   C1B59265  15.607  29.251   6.668 -0.3290 -0.1437 -0.1553
 4895POPC   C2B59266  15.621  29.258   6.179  0.2437  0.0739  0.1375
 4895POPC   C3B59267  15.360  29.086   5.856  0.0906 -0.2256  0.1525
 4895POPC   C4B59268  15.059  28.970   5.542 -0.1257 -0.2331 -0.2262
 4896POPC   NC359269   4.200   8.787   8.356 -0.0545  0.0935 -0.0749
 4896POPC   PO459270   4.330   8.563   8.096  0.1289  0.2707  0.2024
 4896POPC   GL159271   4.619   8.538   7.801  0.3666 -0.2966  0.0207
 4896POPC   GL259272   4.829   8.336   7.703 -0.3269  0.1370  0.3587
 4896POPC   C1A59273   5.047   8.766   7.673 -0.2632  0.3596 -0.0271
 4896POPC   D2A59274   5.514   8.809   7.843  0.0011  0.0437 -0.2558
 4896POPC   C3A59275   5.793   8.465   7.751  0.3757  0.2703 -0.1826
 4896POPC   C4A59276   5.806   8.250   7.336  0.1386 -0.0373  0.1443
 4896POPC   C1B59277   4.778   8.231   7.247  0.2450  0.1865  0.1310
 4896POPC   C2B59278   4.659   8.405   6.828 -0.2001  0.0992  0.0283
 4896POPC   C3B59279   4.270   8.627   6.660 -0.4061  0.3947 -0.1872
 4896POPC   C4B59280   4.048   8.965   6.904  0.4254  0.0204 -0.0501
 4897POPC   NC359281  21.286  26.436   7.812 -0.1445 -0.2169  0.6772
 4897POPC   PO459282  21.621  26.344   7.970 -0.2157 -0.0258  0.0763
 4897POPC   GL159283  21.636  26.213   7.568 -0.2685 -0.1078  0.1130
 4897POPC   GL259284  21.622  25.935   7.583 -0.2890 -0.0275  0.0136
 4897POPC   C1A59285  21.836  26.287   7.165 -0.2062 -0.0643 -0.2735
 4897POPC   D2A59286  21.922  26.399   6.677  0.1817 -0.2785 -0.3054
 4897POPC   C3A59287  22.174  26.114   6.430  0.0459 -0.1318 -0.0642
 4897POPC   C4A59288  22.405  26.254   6.074 -0.1271  0.0354  0.3831
 4897POPC   C1B59289  21.393  25.915   7.205  0.1906  0.1391  0.1907
 4897POPC   C2B59290  21.273  25.698   6.869  0.1931 -0.0370 -0.0868
 4897POPC   C3B59291  21.002  25.458   6.555 -0.1304  0.0811  0.3099
 4897POPC   C4B59292  21.083  25.461   6.110  0.0623 -0.0702  0.1315
 4898POPC   NC359293  31.571  14.376   7.856  0.0340  0.1282 -0.1932
 4898POPC   PO459294  31.714  14.024   7.819 -0.0306  0.0564  0.1807
 4898POPC   GL159295  31.783  14.071   7.439 -0.1138 -0.2080 -0.0330
 4898POPC   GL259296  31.933  13.829   7.364 -0.0055  0.0498 -0.1498
 4898POPC   C1A59297  31.571  13.941   7.037  0.0056  0.0473 -0.1726
 4898POPC   D2A59298  31.472  13.881   6.584  0.0953  0.1923 -0.0268
 4898POPC   C3A59299  31.084  13.779   6.416  0.3042  0.0569  0.0015
 4898POPC   C4A59300  30.902  13.941   6.085 -0.2099  0.0571 -0.3033
 4898POPC   C1B59301  32.148  13.933   6.972  0.1920  0.1815  0.0529
 4898POPC   C2B59302  32.395  13.924   6.618  0.1570  0.1502  0.0439
 4898POPC   C3B59303  32.525  13.804   6.174  0.1666 -0.1395  0.2038
 4898POPC   C4B59304  32.430  13.880   5.724  0.1431  0.0640 -0.1517
 4899POPC   NC359305  20.238   6.879   7.681  0.0120  0.2284  0.3064
 4899POPC   PO459306  20.024   7.219   7.658  0.3045 -0.1862  0.1658
 4899POPC   GL159307  19.810   7.237   7.334 -0.0199 -0.0461 -0.1039
 4899POPC   GL259308  19.574   7.361   7.320  0.0076  0.0051 -0.1467
 4899POPC   C1A59309  19.967   7.307   6.853 -0.1219 -0.0680  0.2156
 4899POPC   D2A59310  20.055   7.562   6.462 -0.0333 -0.0163  0.0801
 4899POPC   C3A59311  20.078   7.620   5.993  0.0656  0.0466  0.2301
 4899POPC   C4A59312  20.063   7.953   5.684  0.2794  0.1177  0.1118
 4899POPC   C1B59313  19.725   7.655   6.992  0.1368 -0.2437 -0.2693
 4899POPC   C2B59314  19.599   7.770   6.593  0.0434 -0.1439 -0.4292
 4899POPC   C3B59315  19.331   8.065   6.312 -0.0145  0.2529  0.0696
 4899POPC   C4B59316  19.077   8.401   6.244 -0.1468  0.4601  0.2384
 4900POPC   NC359317  23.128   0.687   7.664  0.1649 -0.0211 -0.3650
 4900POPC   PO459318  23.107   1.067   7.621 -0.0530  0.2370 -0.0855
 4900POPC   GL159319  23.369   1.096   7.367 -0.1540  0.0284  0.0488
 4900POPC   GL259320  23.502   0.829   7.285 -0.1868 -0.2319 -0.3037
 4900POPC   C1A59321  23.656   1.350   7.041  0.1200 -0.0202 -0.0040
 4900POPC   D2A59322  23.656   1.532   6.606  0.1271 -0.0823  0.1363
 4900POPC   C3A59323  23.561   1.949   6.443 -0.1016  0.3448  0.1215
 4900POPC   C4A59324  23.719   2.337   6.303 -0.0287 -0.3025  0.0891
 4900POPC   C1B59325  23.668   0.860   6.897  0.2184 -0.3051  0.2109
 4900POPC   C2B59326  23.605   0.739   6.479 -0.1916 -0.1903  0.0731
 4900POPC   C3B59327  23.282   0.708   6.074 -0.1871 -0.2633  0.1145
 4900POPC   C4B59328  23.226   0.491   5.647  0.1354  0.2248 -0.2463
 4901POPC   NC359329  21.522   9.535   8.008  0.3151 -0.0315 -0.3791
 4901POPC   PO459330  21.490   9.125   8.019 -0.0840 -0.2570  0.2749
 4901POPC   GL159331  21.367   8.970   7.613  0.0986 -0.1123 -0.0740
 4901POPC   GL259332  21.348   9.294   7.581  0.2724  0.3370  0.2255
 4901POPC   C1A59333  21.243   8.546   7.605  0.1904 -0.0205 -0.0296
 4901POPC   D2A59334  21.030   8.120   7.491 -0.1102  0.2245 -0.2491
 4901POPC   C3A59335  20.639   8.104   7.188 -0.2128  0.1052  0.0338
 4901POPC   C4A59336  20.428   8.267   6.801  0.0116  0.0744  0.1642
 4901POPC   C1B59337  21.202   9.223   7.108 -0.1273 -0.1989 -0.0265
 4901POPC   C2B59338  21.042   8.976   6.800  0.1608 -0.4069  0.3983
 4901POPC   C3B59339  20.775   9.078   6.452  0.1215 -0.0369 -0.0532
 4901POPC   C4B59340  20.461   9.087   6.118 -0.1855  0.0721 -0.0545
 4902POPC   NC359341  12.114  17.137   7.629 -0.2097 -0.0802  0.1754
 4902POPC   PO459342  11.794  17.308   7.478 -0.0916 -0.2985  0.1533
 4902POPC   GL159343  11.735  17.428   7.108 -0.1087 -0.3123 -0.1815
 4902POPC   GL259344  11.797  17.685   7.046  0.0258 -0.1337  0.2129
 4902POPC   C1A59345  11.955  17.267   6.726 -0.0648  0.0280 -0.1351
 4902POPC   D2A59346  12.129  16.966   6.344  0.1963 -0.1686  0.1895
 4902POPC   C3A59347  12.033  16.744   5.926  0.5124  0.1362 -0.0085
 4902POPC   C4A59348  11.987  16.417   5.648 -0.0147 -0.0123  0.0463
 4902POPC   C1B59349  11.764  17.747   6.608 -0.2965 -0.0379  0.1684
 4902POPC   C2B59350  11.887  17.741   6.188  0.3039  0.3124  0.2516
 4902POPC   C3B59351  11.923  17.711   5.715 -0.1628 -0.0970 -0.2613
 4902POPC   C4B59352  11.779  18.107   5.498  0.0166  0.2619 -0.0738
 4903POPC   NC359353  13.512  26.848   7.764 -0.3958  0.0119 -0.0026
 4903POPC   PO459354  13.141  26.901   7.758 -0.0983  0.2364 -0.1734
 4903POPC   GL159355  13.130  27.164   7.422 -0.1687  0.4951 -0.2070
 4903POPC   GL259356  13.076  26.909   7.195  0.0055 -0.1415  0.2523
 4903POPC   C1A59357  13.268  27.541   7.148  0.3862  0.2981  0.2557
 4903POPC   D2A59358  12.983  27.730   6.895  0.0682  0.0386  0.1243
 4903POPC   C3A59359  12.662  27.410   6.730  0.2811 -0.0465  0.0550
 4903POPC   C4A59360  12.552  27.170   6.343 -0.0283  0.2235 -0.0256
 4903POPC   C1B59361  13.064  27.031   6.812  0.6463 -0.2114  0.3157
 4903POPC   C2B59362  13.196  27.413   6.566  0.0706  0.3579  0.2166
 4903POPC   C3B59363  13.186  27.813   6.384 -0.1646  0.0575  0.2466
 4903POPC   C4B59364  12.998  28.164   6.085  0.1895 -0.2361 -0.1142
 4904POPC   NC359365  12.636   8.660   7.866 -0.0812  0.0394 -0.2052
 4904POPC   PO459366  12.955   8.606   7.687 -0.1659  0.1136 -0.0257
 4904POPC   GL159367  13.010   8.456   7.336 -0.1111 -0.0017 -0.0871
 4904POPC   GL259368  13.182   8.671   7.167  0.1629  0.0448  0.1941
 4904POPC   C1A59369  12.879   8.362   6.904 -0.0522 -0.0573 -0.3920
 4904POPC   D2A59370  13.157   8.208   6.589  0.0032  0.2289  0.0346
 4904POPC   C3A59371  13.160   8.310   6.128  0.0900  0.0946  0.2398
 4904POPC   C4A59372  12.955   8.456   5.767  0.2692 -0.0869 -0.2441
 4904POPC   C1B59373  13.179   8.841   6.801 -0.0674  0.1317 -0.0343
 4904POPC   C2B59374  12.903   8.742   6.470  0.1716 -0.1020  0.2098
 4904POPC   C3B59375  12.710   8.322   6.388 -0.3363  0.2679  0.4677
 4904POPC   C4B59376  12.795   7.900   6.245  0.0426  0.0621 -0.1067
 4905POPC   NC359377  20.298   7.956   7.540 -0.3267  0.0062  0.4026
 4905POPC   PO459378  20.091   8.241   7.754  0.1221  0.1292  0.0735
 4905POPC   GL159379  20.135   8.355   7.404 -0.0524 -0.1613 -0.0579
 4905POPC   GL259380  20.028   8.184   7.185  0.1547  0.0446  0.1862
 4905POPC   C1A59381  20.485   8.577   7.203 -0.2570  0.0527  0.2444
 4905POPC   D2A59382  20.678   8.673   6.762 -0.0159 -0.0376  0.0817
 4905POPC   C3A59383  20.484   8.633   6.345 -0.4017 -0.0467  0.2258
 4905POPC   C4A59384  20.088   8.417   6.179  0.0199 -0.2067 -0.0629
 4905POPC   C1B59385  20.206   7.809   6.893  0.1844 -0.4845  0.2327
 4905POPC   C2B59386  20.588   7.805   6.682 -0.1302  0.1194  0.1884
 4905POPC   C3B59387  20.713   7.532   6.321 -0.0891 -0.1017 -0.2611
 4905POPC   C4B59388  20.859   7.427   5.840  0.2463 -0.0378  0.1670
 4906POPC   NC359389   3.944   2.754   8.318 -0.0409 -0.4065 -0.0163
 4906POPC   PO459390   4.078   2.475   8.029 -0.2469 -0.0161  0.0342
 4906POPC   GL159391   4.043   2.344   7.616 -0.1095  0.3366  0.0129
 4906POPC   GL259392   3.722   2.385   7.647  0.1634 -0.1002 -0.0199
 4906POPC   C1A59393   3.962   2.291   7.153  0.0860  0.0635  0.1084
 4906POPC   D2A59394   3.869   2.215   6.714  0.0969 -0.1886  0.0510
 4906POPC   C3A59395   4.203   2.199   6.431 -0.2973  0.0540  0.2649
 4906POPC   C4A59396   4.422   2.404   6.080  0.0275 -0.0903 -0.2537
 4906POPC   C1B59397   3.576   2.583   7.245  0.0486  0.1250 -0.1101
 4906POPC   C2B59398   3.806   2.722   6.884  0.0614  0.0624 -0.0925
 4906POPC   C3B59399   3.892   2.652   6.406  0.1392  0.0701 -0.2819
 4906POPC   C4B59400   3.966   2.712   5.968  0.0890  0.0368  0.1597
 4907POPC   NC359401   6.309  10.911   7.656 -0.1373  0.4104 -0.0912
 4907POPC   PO459402   6.254  10.969   7.296  0.1688  0.1165 -0.4709
 4907POPC   GL159403   6.261  10.616   7.154 -0.1530  0.1806  0.0048
 4907POPC   GL259404   6.034  10.521   6.992  0.0563 -0.0141  0.0209
 4907POPC   C1A59405   6.596  10.548   6.819 -0.0765 -0.2002 -0.0967
 4907POPC   D2A59406   6.489  10.581   6.420  0.1716  0.1491  0.0993
 4907POPC   C3A59407   6.280  10.286   6.125 -0.0382 -0.1231 -0.1414
 4907POPC   C4A59408   5.998  10.149   5.827 -0.1615  0.1111  0.3879
 4907POPC   C1B59409   6.026  10.381   6.537  0.3267  0.1727 -0.0797
 4907POPC   C2B59410   5.897  10.023   6.277  0.3328  0.1179 -0.4577
 4907POPC   C3B59411   5.946   9.643   6.042 -0.2296  0.1667 -0.0678
 4907POPC   C4B59412   6.024   9.352   5.743 -0.0101  0.0724  0.0077
 4908POPC   NC359413   5.904  18.911   7.475 -0.0647 -0.3108  0.0208
 4908POPC   PO459414   5.812  18.635   7.746  0.0818 -0.0499  0.2028
 4908POPC   GL159415   5.759  18.467   7.366 -0.1120  0.1194  0.0242
 4908POPC   GL259416   5.645  18.711   7.160 -0.0136  0.5868 -0.0415
 4908POPC   C1A59417   5.654  18.117   7.064 -0.1077 -0.0822 -0.1161
 4908POPC   D2A59418   5.629  17.959   6.658  0.2336  0.2500  0.1130
 4908POPC   C3A59419   5.904  17.880   6.342 -0.0758  0.0692  0.1038
 4908POPC   C4A59420   6.027  17.553   6.050 -0.0682 -0.1356  0.0929
 4908POPC   C1B59421   5.589  18.514   6.710  0.1705 -0.0459 -0.2734
 4908POPC   C2B59422   5.422  18.267   6.340  0.2220 -0.0455 -0.1121
 4908POPC   C3B59423   5.480  17.903   6.101  0.0276 -0.0191 -0.1034
 4908POPC   C4B59424   5.642  17.689   5.761  0.1060  0.3652 -0.1382
 4909POPC   NC359425  26.994  15.101   7.825 -0.0549 -0.1425 -0.0262
 4909POPC   PO459426  26.865  14.817   7.608 -0.0104  0.0104 -0.2300
 4909POPC   GL159427  26.694  14.743   7.245 -0.3011 -0.1690 -0.1693
 4909POPC   GL259428  26.652  14.488   7.121  0.0751 -0.3024 -0.0230
 4909POPC   C1A59429  26.847  14.927   6.867  0.1276  0.0760  0.0302
 4909POPC   D2A59430  26.862  15.334   6.652  0.0020  0.3041  0.1850
 4909POPC   C3A59431  26.676  15.041   6.273  0.0602  0.1837 -0.2679
 4909POPC   C4A59432  26.496  14.662   6.197 -0.2838  0.2217  0.1580
 4909POPC   C1B59433  26.815  14.509   6.646  0.0566  0.2725  0.0718
 4909POPC   C2B59434  26.787  14.163   6.317 -0.1698 -0.1995 -0.4391
 4909POPC   C3B59435  26.483  13.975   6.024  0.2228  0.2313  0.0850
 4909POPC   C4B59436  26.007  13.968   5.919  0.0997  0.1281 -0.0130
 4910POPC   NC359437   8.860  29.841   7.566 -0.1452  0.0049  0.5073
 4910POPC   PO459438   8.712  29.469   7.481  0.2464  0.0169  0.3546
 4910POPC   GL159439   8.527  29.620   7.075 -0.2519 -0.2119 -0.4648
 4910POPC   GL259440   8.628  29.346   7.019 -0.0030 -0.2063 -0.1874
 4910POPC   C1A59441   8.750  30.004   6.924 -0.2782 -0.1539 -0.0343
 4910POPC   D2A59442   8.964  30.237   6.592  0.1864 -0.1688  0.1668
 4910POPC   C3A59443   8.708  30.550   6.284  0.2260  0.2287  0.0737
 4910POPC   C4A59444   8.280  30.657   6.353 -0.1486 -0.4739 -0.2400
 4910POPC   C1B59445   8.371  29.285   6.644  0.0818 -0.3802 -0.0418
 4910POPC   C2B59446   8.030  29.298   6.337  0.0601  0.2285 -0.1052
 4910POPC   C3B59447   8.063  29.602   5.942 -0.1085  0.2388  0.3066
 4910POPC   C4B59448   8.177  29.808   5.544 -0.1344  0.0843  0.2928
 4911POPC   NC359449  11.979  24.964   7.985 -0.1547  0.1446  0.0277
 4911POPC   PO459450  12.105  25.229   7.694  0.1505  0.0681  0.2003
 4911POPC   GL159451  11.988  25.148   7.367 -0.1991 -0.0798  0.0541
 4911POPC   GL259452  12.116  25.284   7.132  0.1509 -0.0805 -0.1588
 4911POPC   C1A59453  11.655  25.226   7.096 -0.0927  0.2243 -0.2055
 4911POPC   D2A59454  11.236  25.341   7.033  0.2154  0.1694  0.1620
 4911POPC   C3A59455  10.895  25.085   6.932 -0.0194 -0.1861 -0.2404
 4911POPC   C4A59456  10.534  24.806   7.025  0.1449  0.0264 -0.1848
 4911POPC   C1B59457  12.390  25.434   6.801  0.0261  0.2880 -0.0902
 4911POPC   C2B59458  12.628  25.452   6.395  0.2058  0.1246  0.2283
 4911POPC   C3B59459  12.600  25.316   5.933  0.0570 -0.0010  0.1327
 4911POPC   C4B59460  12.452  25.549   5.538  0.0218  0.0477 -0.1294
 4912POPC   NC359461  16.919  20.712   7.613  0.0647 -0.0284 -0.0301
 4912POPC   PO459462  16.821  20.363   7.790  0.1571 -0.0403  0.0616
 4912POPC   GL159463  16.916  20.070   7.500  0.2989  0.0813 -0.2286
 4912POPC   GL259464  16.734  20.128   7.269  0.0642  0.1838 -0.3524
 4912POPC   C1A59465  16.951  19.670   7.258  0.1854 -0.0038 -0.2983
 4912POPC   D2A59466  16.674  19.357   6.996 -0.0390  0.1501  0.2642
 4912POPC   C3A59467  16.756  19.432   6.524  0.0648  0.3302  0.2491
 4912POPC   C4A59468  17.013  19.197   6.273 -0.0274  0.3231  0.0315
 4912POPC   C1B59469  16.965  20.401   6.885  0.3502  0.1668 -0.2247
 4912POPC   C2B59470  17.201  20.692   6.654  0.0087  0.0819 -0.1633
 4912POPC   C3B59471  17.521  20.898   6.377  0.2724 -0.1343 -0.0996
 4912POPC   C4B59472  17.583  21.148   5.944  0.1823 -0.0085 -0.1437
 4913POPC   NC359473   3.207  27.137   8.065 -0.1704  0.0118  0.0011
 4913POPC   PO459474   3.086  27.447   7.876  0.2138 -0.4064  0.1350
 4913POPC   GL159475   3.263  27.320   7.575  0.1510  0.2366  0.0970
 4913POPC   GL259476   3.308  27.567   7.326  0.0241 -0.0124 -0.0302
 4913POPC   C1A59477   3.084  27.218   7.131 -0.0402  0.0447  0.4826
 4913POPC   D2A59478   2.701  27.176   6.786  0.0408  0.0144 -0.0559
 4913POPC   C3A59479   2.490  27.145   6.362 -0.3372 -0.0741  0.2477
 4913POPC   C4A59480   2.359  27.292   5.976 -0.1524  0.1176  0.1123
 4913POPC   C1B59481   3.678  27.581   7.094  0.0760  0.2419 -0.1229
 4913POPC   C2B59482   3.790  27.597   6.644 -0.1399  0.0620  0.0985
 4913POPC   C3B59483   3.777  27.865   6.251  0.0915  0.2025 -0.2299
 4913POPC   C4B59484   3.646  27.690   5.792 -0.0711  0.0177 -0.1226
 4914POPC   NC359485  14.130  26.177   7.831 -0.3435 -0.1224 -0.2318
 4914POPC   PO459486  13.946  25.807   7.841 -0.0913 -0.0132 -0.2115
 4914POPC   GL159487  13.991  25.744   7.543  0.3078  0.1637  0.6786
 4914POPC   GL259488  14.220  25.835   7.427  0.0362 -0.2856 -0.1736
 4914POPC   C1A59489  13.780  25.796   7.107  0.0904  0.1658  0.1434
 4914POPC   D2A59490  13.804  25.935   6.671  0.2967  0.1847  0.0039
 4914POPC   C3A59491  13.745  26.368   6.553  0.0083 -0.0355  0.0324
 4914POPC   C4A59492  13.659  26.543   6.122 -0.0936 -0.0557 -0.3083
 4914POPC   C1B59493  14.193  26.058   6.963  0.0416 -0.0055 -0.1546
 4914POPC   C2B59494  14.290  26.039   6.535  0.0571  0.1839  0.1014
 4914POPC   C3B59495  14.513  25.910   6.126  0.0730  0.1043 -0.0879
 4914POPC   C4B59496  14.733  25.595   5.928  0.0439  0.0794 -0.0184
 4915POPC   NC359497  16.091  13.159   7.931  0.0790 -0.0071  0.1052
 4915POPC   PO459498  15.739  12.988   7.976 -0.1572 -0.3469  0.1069
 4915POPC   GL159499  15.577  13.132   7.672  0.0994  0.1069 -0.1662
 4915POPC   GL259500  15.675  13.363   7.691  0.3437  0.0128 -0.2118
 4915POPC   C1A59501  15.270  13.068   7.294 -0.3080 -0.0691  0.0021
 4915POPC   D2A59502  15.071  12.730   7.025  0.2063  0.0194 -0.0775
 4915POPC   C3A59503  15.324  12.544   6.690 -0.3109 -0.0226  0.0335
 4915POPC   C4A59504  15.328  12.329   6.328  0.1330  0.5261  0.1332
 4915POPC   C1B59505  16.049  13.226   7.435  0.4264  0.1314  0.0553
 4915POPC   C2B59506  16.201  12.843   7.120 -0.0945 -0.0744  0.2104
 4915POPC   C3B59507  16.240  12.852   6.673  0.0851 -0.1761  0.2543
 4915POPC   C4B59508  16.356  12.530   6.340  0.0435 -0.1598  0.2998
 4916POPC   NC359509  26.316  16.005   8.403  0.2005 -0.0538 -0.0922
 4916POPC   PO459510  26.444  15.707   8.153  0.1343 -0.1782  0.2186
 4916POPC   GL159511  26.344  15.846   7.808 -0.0221 -0.4031 -0.1345
 4916POPC   GL259512  26.179  15.573   7.695  0.1356  0.1113  0.2316
 4916POPC   C1A59513  26.434  16.139   7.461  0.1972  0.2394 -0.0894
 4916POPC   D2A59514  26.141  16.423   7.162  0.1427  0.2313  0.1329
 4916POPC   C3A59515  25.758  16.609   6.958 -0.0364  0.2096  0.0667
 4916POPC   C4A59516  25.319  16.680   6.806 -0.0013  0.1082  0.0582
 4916POPC   C1B59517  26.228  15.663   7.290  0.0355 -0.0078 -0.0258
 4916POPC   C2B59518  26.195  15.959   6.920 -0.0671 -0.1853 -0.1478
 4916POPC   C3B59519  26.434  16.112   6.576  0.1503  0.4066  0.1750
 4916POPC   C4B59520  26.831  16.346   6.571  0.1590  0.2378 -0.1584
 4917POPC   NC359521  21.319  16.052   7.302  0.1253  0.1546 -0.1354
 4917POPC   PO459522  21.373  15.877   7.655  0.2338  0.2651 -0.1870
 4917POPC   GL159523  21.735  15.889   7.442  0.5603  0.0483 -0.2737
 4917POPC   GL259524  21.955  16.044   7.469 -0.0057  0.2159  0.1409
 4917POPC   C1A59525  21.825  15.928   7.033  0.0418 -0.0064 -0.1568
 4917POPC   D2A59526  22.033  16.006   6.664  0.0777 -0.1508 -0.1448
 4917POPC   C3A59527  22.383  16.079   6.372 -0.2817 -0.0059 -0.3151
 4917POPC   C4A59528  22.669  16.340   6.170 -0.1790 -0.2887  0.2408
 4917POPC   C1B59529  22.337  15.994   7.179  0.1366 -0.2197  0.2084
 4917POPC   C2B59530  22.624  16.127   6.849 -0.0034  0.1372  0.0334
 4917POPC   C3B59531  22.976  16.205   6.540  0.0923  0.0755  0.1092
 4917POPC   C4B59532  23.191  16.239   6.193  0.0334 -0.1390 -0.0523
 4918POPC   NC359533  26.415  18.573   8.176 -0.1538  0.0825 -0.4018
 4918POPC   PO459534  26.472  18.455   7.806  0.0188 -0.0893  0.1742
 4918POPC   GL159535  26.169  18.273   7.562 -0.1080  0.1615  0.1813
 4918POPC   GL259536  26.255  18.400   7.309 -0.0670 -0.0206  0.0885
 4918POPC   C1A59537  26.188  17.938   7.206 -0.0340  0.1692 -0.1563
 4918POPC   D2A59538  26.124  17.806   6.749  0.0811 -0.1754 -0.1090
 4918POPC   C3A59539  25.848  17.754   6.414 -0.0823 -0.1092 -0.3192
 4918POPC   C4A59540  25.870  17.367   6.219 -0.0717  0.1128 -0.1554
 4918POPC   C1B59541  26.044  18.398   6.931  0.0114 -0.0839 -0.1349
 4918POPC   C2B59542  25.961  18.263   6.545  0.1039 -0.0960 -0.1573
 4918POPC   C3B59543  25.982  18.115   6.118  0.2067 -0.1722  0.0174
 4918POPC   C4B59544  26.376  18.081   5.879 -0.2433  0.1470 -0.0888
 4919POPC   NC359545  28.159  16.599   7.752 -0.1571  0.0890  0.4241
 4919POPC   PO459546  28.356  16.279   7.671  0.2059 -0.0899 -0.2611
 4919POPC   GL159547  28.454  16.048   7.378  0.3106 -0.0139  0.1177
 4919POPC   GL259548  28.428  15.695   7.470  0.1166  0.0637 -0.0667
 4919POPC   C1A59549  28.798  16.249   7.122  0.0411 -0.2728  0.1401
 4919POPC   D2A59550  28.963  16.413   6.785  0.1807 -0.0057 -0.1147
 4919POPC   C3A59551  28.919  16.367   6.351 -0.2235  0.4729 -0.1558
 4919POPC   C4A59552  28.685  16.180   6.003  0.0654  0.2286  0.4403
 4919POPC   C1B59553  28.145  15.651   7.043  0.2269 -0.0777  0.1452
 4919POPC   C2B59554  28.228  15.674   6.625  0.0954 -0.1062 -0.1160
 4919POPC   C3B59555  28.333  15.476   6.185 -0.0255 -0.3440  0.0578
 4919POPC   C4B59556  28.346  15.127   5.863 -0.3661  0.1352  0.1197
 4920POPC   NC359557   7.757   3.893   8.020  0.0252  0.0285  0.2615
 4920POPC   PO459558   7.982   3.667   7.779 -0.0218  0.0100  0.3021
 4920POPC   GL159559   8.070   3.844   7.316 -0.2390  0.0219  0.0593
 4920POPC   GL259560   8.283   3.986   7.346  0.3274  0.2781 -0.2845
 4920POPC   C1A59561   8.166   3.811   6.863 -0.2983  0.1306 -0.3220
 4920POPC   D2A59562   8.440   3.556   6.567 -0.1565  0.1204 -0.3147
 4920POPC   C3A59563   8.386   3.566   6.106  0.2061 -0.0299  0.0378
 4920POPC   C4A59564   8.123   3.818   5.809  0.0678  0.1952  0.0330
 4920POPC   C1B59565   8.628   3.792   7.097  0.1574  0.0059  0.0764
 4920POPC   C2B59566   8.894   3.566   6.782  0.1366 -0.0741 -0.0358
 4920POPC   C3B59567   8.893   3.487   6.310  0.0646  0.1087  0.3196
 4920POPC   C4B59568   8.864   3.578   5.868  0.1012 -0.0269 -0.0437
 4921POPC   NC359569  16.634  23.017   7.638  0.1509 -0.1024 -0.0624
 4921POPC   PO459570  16.818  22.750   7.852  0.1023 -0.3228 -0.0399
 4921POPC   GL159571  16.699  22.645   7.420 -0.1909 -0.1119 -0.3383
 4921POPC   GL259572  16.729  22.353   7.316  0.1910  0.1430 -0.0920
 4921POPC   C1A59573  16.567  22.641   6.960 -0.0812  0.1162  0.1700
 4921POPC   D2A59574  16.507  22.561   6.505 -0.2326  0.2610 -0.2583
 4921POPC   C3A59575  16.445  22.554   6.049  0.4694  0.1943 -0.0053
 4921POPC   C4A59576  16.484  22.643   5.589  0.0228 -0.4281  0.0094
 4921POPC   C1B59577  16.679  22.132   6.980 -0.0266  0.1232 -0.1789
 4921POPC   C2B59578  16.605  21.945   6.568 -0.1216 -0.0923  0.3198
 4921POPC   C3B59579  16.621  21.958   6.094 -0.0538 -0.0739  0.1770
 4921POPC   C4B59580  16.685  22.215   5.688 -0.1416  0.0760 -0.2169
 4922POPC   NC359581   6.875  15.888   7.528  0.1238  0.3192 -0.1950
 4922POPC   PO459582   6.729  15.531   7.614  0.0551 -0.0738 -0.1447
 4922POPC   GL159583   6.623  15.593   7.303 -0.1586 -0.0184  0.0473
 4922POPC   GL259584   6.318  15.657   7.278 -0.0567  0.1568  0.0173
 4922POPC   C1A59585   6.571  15.418   6.863  0.1719 -0.1477  0.1426
 4922POPC   D2A59586   6.602  15.238   6.403  0.1124 -0.3101 -0.1929
 4922POPC   C3A59587   6.368  15.043   6.112 -0.0593  0.1538  0.0981
 4922POPC   C4A59588   6.216  14.799   5.836 -0.0907  0.2468  0.0820
 4922POPC   C1B59589   6.465  16.032   7.189 -0.1802 -0.1655 -0.1530
 4922POPC   C2B59590   6.401  16.424   6.915 -0.0665  0.1501 -0.1572
 4922POPC   C3B59591   6.536  16.622   6.522  0.0118  0.4543 -0.2868
 4922POPC   C4B59592   6.773  16.798   6.136 -0.0165  0.1682 -0.3864
 4923POPC   NC359593  17.189   4.647   7.391  0.1305  0.0954 -0.2357
 4923POPC   PO459594  16.780   4.603   7.364 -0.1027 -0.0430  0.1329
 4923POPC   GL159595  16.828   4.564   7.039 -0.1752  0.0600 -0.0895
 4923POPC   GL259596  16.548   4.424   6.905  0.1735 -0.2043  0.0543
 4923POPC   C1A59597  16.915   4.389   6.577  0.0097 -0.1386 -0.0135
 4923POPC   D2A59598  16.659   4.263   6.233  0.2324 -0.0151 -0.0919
 4923POPC   C3A59599  16.865   4.431   5.869 -0.4155 -0.1377 -0.4274
 4923POPC   C4A59600  16.911   4.812   5.690 -0.0826  0.1818  0.0063
 4923POPC   C1B59601  16.315   4.555   6.572 -0.0219  0.0182  0.1216
 4923POPC   C2B59602  16.099   4.451   6.160 -0.5297  0.0667 -0.1163
 4923POPC   C3B59603  16.056   4.458   5.704  0.0599  0.1597  0.1032
 4923POPC   C4B59604  16.290   4.357   5.312 -0.1424  0.2013  0.1788
 4924POPC   NC359605  16.204  30.582   7.290 -0.1583 -0.0817  0.3075
 4924POPC   PO459606  16.548  30.783   7.335 -0.2233  0.0132  0.1364
 4924POPC   GL159607  16.555  30.754   6.943 -0.1279 -0.0532  0.0650
 4924POPC   GL259608  16.517  30.464   6.877  0.2245  0.4862 -0.1716
 4924POPC   C1A59609  16.293  30.823   6.600  0.2509 -0.5360 -0.3162
 4924POPC   D2A59610  16.070  31.013   6.199 -0.3600 -0.1695  0.0616
 4924POPC   C3A59611  16.193  30.843   5.771  0.2740 -0.0252 -0.3622
 4924POPC   C4A59612  16.445  30.616   5.469 -0.0277  0.0013  0.1606
 4924POPC   C1B59613  16.309  30.231   6.552  0.1263  0.0042  0.2659
 4924POPC   C2B59614  16.388  30.530   6.196  0.1190  0.0389 -0.1361
 4924POPC   C3B59615  16.690  30.753   5.948  0.0887  0.0702 -0.0145
 4924POPC   C4B59616  17.093  30.931   5.988  0.0078  0.3209 -0.0063
 4925POPC   NC359617   1.579  11.806   8.584  0.3034  0.1043 -0.1735
 4925POPC   PO459618   1.467  12.042   8.272  0.0001 -0.0686  0.1407
 4925POPC   GL159619   1.326  12.200   7.881 -0.3606 -0.0980  0.0140
 4925POPC   GL259620   1.405  11.946   7.740  0.2123 -0.0668 -0.1210
 4925POPC   C1A59621   1.204  12.253   7.403 -0.1775  0.2428  0.4385
 4925POPC   D2A59622   1.320  12.247   7.001  0.2088  0.1360 -0.0313
 4925POPC   C3A59623   1.170  11.909   6.801  0.1112 -0.0344  0.0101
 4925POPC   C4A59624   1.063  11.643   6.411 -0.0834  0.4804  0.2342
 4925POPC   C1B59625   1.661  12.132   7.388  0.1590 -0.1024  0.2828
 4925POPC   C2B59626   1.831  12.343   6.993 -0.2053 -0.1507  0.0724
 4925POPC   C3B59627   1.976  12.646   6.634 -0.1916  0.0749  0.1662
 4925POPC   C4B59628   2.122  12.955   6.376  0.1011 -0.3329 -0.1493
 4926POPC   NC359629  30.652  31.461   7.631 -0.1410  0.1602  0.0121
 4926POPC   PO459630  30.342  31.599   7.799 -0.0425 -0.1510  0.0450
 4926POPC   GL159631  30.237  31.620   7.413  0.1514  0.0311 -0.1568
 4926POPC   GL259632  30.288  31.384   7.253 -0.0209 -0.0270 -0.2838
 4926POPC   C1A59633  29.931  31.765   7.110 -0.0980 -0.0292  0.1436
 4926POPC   D2A59634  29.861  32.033   6.756  0.2813  0.2484  0.0988
 4926POPC   C3A59635  29.940  31.881   6.323  0.1032 -0.0336 -0.1318
 4926POPC   C4A59636  29.855  31.558   6.012  0.1360  0.0829  0.2497
 4926POPC   C1B59637  30.354  31.255   6.836 -0.1553  0.0726  0.1045
 4926POPC   C2B59638  30.419  30.817   6.652 -0.2878 -0.0428 -0.0286
 4926POPC   C3B59639  30.292  30.645   6.218 -0.0565 -0.0567  0.0553
 4926POPC   C4B59640  30.358  30.365   5.866 -0.1171 -0.1442 -0.0434
 4927POPC   NC359641  13.053  12.901   7.481 -0.1228  0.0602  0.1108
 4927POPC   PO459642  12.793  12.566   7.512 -0.0919 -0.3128  0.0973
 4927POPC   GL159643  12.790  12.610   7.117 -0.3026 -0.0975 -0.2493
 4927POPC   GL259644  13.075  12.628   6.982  0.0243  0.3090  0.0560
 4927POPC   C1A59645  12.522  12.703   6.766 -0.1157 -0.0752  0.2453
 4927POPC   D2A59646  12.219  12.627   6.412  0.0197 -0.1669 -0.2376
 4927POPC   C3A59647  12.219  12.859   6.059 -0.3180 -0.0195  0.2306
 4927POPC   C4A59648  12.070  13.118   5.683  0.0081  0.2847  0.1189
 4927POPC   C1B59649  13.009  12.507   6.524 -0.1140  0.2490  0.3733
 4927POPC   C2B59650  12.699  12.492   6.152  0.1769 -0.1081  0.1759
 4927POPC   C3B59651  12.246  12.372   5.998 -0.2412 -0.0421  0.1940
 4927POPC   C4B59652  11.846  12.324   6.010  0.4588  0.0841  0.0949
 4928POPC   NC359653  19.970  18.545   7.339  0.2444 -0.1000  0.1084
 4928POPC   PO459654  20.122  18.868   7.600  0.0138 -0.1796  0.2765
 4928POPC   GL159655  20.286  18.949   7.267  0.2363 -0.2709 -0.4294
 4928POPC   GL259656  20.528  18.812   7.210  0.0444  0.2362  0.0029
 4928POPC   C1A59657  19.999  18.842   6.913 -0.1538 -0.1191  0.1604
 4928POPC   D2A59658  19.645  18.582   6.794 -0.2246 -0.0329  0.0125
 4928POPC   C3A59659  19.738  18.375   6.361  0.2273  0.0491 -0.1234
 4928POPC   C4A59660  19.696  18.279   5.893  0.1050  0.0875 -0.2972
 4928POPC   C1B59661  20.518  18.858   6.727 -0.0610  0.0403 -0.7344
 4928POPC   C2B59662  20.580  18.838   6.303  0.0763 -0.0102 -0.3860
 4928POPC   C3B59663  20.571  18.753   5.820  0.2363 -0.1172  0.1993
 4928POPC   C4B59664  20.719  18.888   5.406 -0.1516  0.0598 -0.0849
 4929POPC   NC359665   0.689  14.838   7.876 -0.2938  0.0762  0.3121
 4929POPC   PO459666   1.062  14.905   7.895 -0.5155 -0.2212 -0.0337
 4929POPC   GL159667   1.156  15.155   7.572  0.3311 -0.6804 -0.3153
 4929POPC   GL259668   0.874  15.204   7.525 -0.1062 -0.2812  0.3040
 4929POPC   C1A59669   1.011  14.924   7.170 -0.0622  0.1205  0.1735
 4929POPC   D2A59670   0.895  14.730   6.743  0.0050 -0.0711 -0.0158
 4929POPC   C3A59671   0.964  14.718   6.327  0.0380  0.0469  0.0265
 4929POPC   C4A59672   1.129  14.949   5.903 -0.1108 -0.3854  0.0955
 4929POPC   C1B59673   0.615  15.237   7.170  0.4015 -0.1123 -0.1194
 4929POPC   C2B59674   0.635  15.220   6.725  0.2456 -0.2444 -0.3412
 4929POPC   C3B59675   0.219  15.268   6.430  0.5089 -0.1523 -0.0614
 4929POPC   C4B59676   0.030  15.228   5.971  0.0775 -0.2619  0.0796
 4930POPC   NC359677  16.861  23.833   8.049 -0.1851 -0.2166  0.2377
 4930POPC   PO459678  16.544  23.900   7.801  0.1963  0.0629  0.1291
 4930POPC   GL159679  16.592  23.984   7.425  0.3301 -0.0958 -0.0079
 4930POPC   GL259680  16.361  23.859   7.314 -0.0099  0.1363 -0.0440
 4930POPC   C1A59681  16.865  23.987   7.089  0.2405 -0.2833  0.1097
 4930POPC   D2A59682  17.034  24.038   6.685  0.0259 -0.0850 -0.0244
 4930POPC   C3A59683  16.934  24.482   6.522 -0.1561 -0.0978 -0.3105
 4930POPC   C4A59684  16.978  24.688   6.062 -0.1604 -0.0710  0.0507
 4930POPC   C1B59685  16.481  23.716   6.847 -0.0932  0.1516  0.3333
 4930POPC   C2B59686  16.398  23.390   6.515  0.0051 -0.1306  0.2359
 4930POPC   C3B59687  16.460  23.262   6.075 -0.1402 -0.1140  0.1193
 4930POPC   C4B59688  16.286  23.096   5.667  0.2181  0.1758 -0.0120
 4931POPC   NC359689  12.334  21.828   8.111  0.1839  0.1318  0.2545
 4931POPC   PO459690  12.460  21.680   7.759 -0.0643  0.0649  0.1122
 4931POPC   GL159691  12.421  21.760   7.386  0.1147 -0.2490  0.5253
 4931POPC   GL259692  12.675  21.609   7.238 -0.3929 -0.0822  0.0920
 4931POPC   C1A59693  12.232  21.611   7.015  0.2821 -0.4063  0.1627
 4931POPC   D2A59694  11.839  21.755   6.820  0.1492  0.0156 -0.1540
 4931POPC   C3A59695  11.675  22.113   6.988  0.0787 -0.0700  0.0883
 4931POPC   C4A59696  11.267  22.315   6.819 -0.0559 -0.1978 -0.2179
 4931POPC   C1B59697  12.703  21.822   6.837  0.2019 -0.1607 -0.1696
 4931POPC   C2B59698  12.689  22.031   6.470  0.1084  0.0886 -0.1227
 4931POPC   C3B59699  12.772  22.268   6.062 -0.3402 -0.1527 -0.0126
 4931POPC   C4B59700  12.674  22.543   5.701 -0.1097 -0.1119  0.2759
 4932POPC   NC359701  11.940  27.366   7.742 -0.0271  0.1696  0.0853
 4932POPC   PO459702  12.190  27.122   7.881 -0.3409  0.4295 -0.2502
 4932POPC   GL159703  12.179  27.114   7.485  0.0174 -0.0899 -0.0317
 4932POPC   GL259704  12.375  27.378   7.509  0.0447  0.0227  0.0925
 4932POPC   C1A59705  12.016  26.924   7.113  0.0639  0.2036 -0.0367
 4932POPC   D2A59706  11.746  26.784   6.701  0.0142  0.2637 -0.0044
 4932POPC   C3A59707  11.636  26.902   6.270  0.2289  0.2298  0.0111
 4932POPC   C4A59708  11.670  27.172   5.916 -0.1882 -0.1256 -0.0916
 4932POPC   C1B59709  12.263  27.388   7.053  0.2054 -0.2283  0.2685
 4932POPC   C2B59710  12.252  27.071   6.705 -0.0595 -0.0370 -0.1501
 4932POPC   C3B59711  12.178  26.602   6.762  0.2575 -0.0829  0.0776
 4932POPC   C4B59712  12.457  26.299   6.938  0.2053 -0.2832 -0.2909
 4933POPC   NC359713  20.237  16.438   7.848 -0.1098  0.3080  0.3438
 4933POPC   PO459714  20.545  16.517   7.581  0.0362 -0.1387  0.1574
 4933POPC   GL159715  20.701  16.523   7.230 -0.4188  0.2684 -0.0582
 4933POPC   GL259716  20.578  16.279   7.127 -0.0408 -0.1073  0.1990
 4933POPC   C1A59717  20.851  16.664   6.789 -0.1555 -0.2384  0.1218
 4933POPC   D2A59718  20.937  16.591   6.393  0.0804 -0.2410  0.0811
 4933POPC   C3A59719  21.014  16.805   5.992 -0.1209 -0.1141 -0.1775
 4933POPC   C4A59720  21.337  17.055   5.662 -0.0369  0.1679  0.0922
 4933POPC   C1B59721  20.537  16.377   6.630  0.1016 -0.1508  0.1796
 4933POPC   C2B59722  20.550  16.328   6.223 -0.1159 -0.0982  0.3177
 4933POPC   C3B59723  20.623  16.057   5.871 -0.0909 -0.0001  0.0783
 4933POPC   C4B59724  20.679  15.900   5.467 -0.0365 -0.0417 -0.1784
 4934POPC   NC359725  15.609   8.705   8.242  0.4162 -0.1797  0.3872
 4934POPC   PO459726  15.589   8.331   8.141  0.5139 -0.1269 -0.1063
 4934POPC   GL159727  15.526   8.481   7.787 -0.2863 -0.1351  0.0910
 4934POPC   GL259728  15.748   8.770   7.680 -0.1598  0.0729  0.0055
 4934POPC   C1A59729  15.499   8.320   7.384  0.1484 -0.1839 -0.0429
 4934POPC   D2A59730  15.522   8.305   6.913  0.2803 -0.0299 -0.2988
 4934POPC   C3A59731  15.470   8.550   6.459  0.0271  0.0156 -0.0068
 4934POPC   C4A59732  15.746   8.462   6.114  0.0329  0.1146 -0.4798
 4934POPC   C1B59733  15.698   8.691   7.262  0.1608  0.2537 -0.0236
 4934POPC   C2B59734  15.414   8.825   6.946 -0.0919  0.1874 -0.0564
 4934POPC   C3B59735  15.263   8.981   6.566  0.0516 -0.2218 -0.1565
 4934POPC   C4B59736  15.564   8.946   6.243 -0.2073 -0.1144 -0.1921
 4935POPC   NC359737   5.692   0.963   8.202 -0.1618 -0.1703 -0.0835
 4935POPC   PO459738   5.897   1.214   8.004 -0.1538 -0.2976  0.1124
 4935POPC   GL159739   5.877   1.056   7.694 -0.0421  0.0390  0.0840
 4935POPC   GL259740   5.946   0.750   7.719  0.0606 -0.4591 -0.0270
 4935POPC   C1A59741   5.827   1.282   7.278  0.3671 -0.2164 -0.1510
 4935POPC   D2A59742   5.902   1.522   6.872 -0.1041 -0.2188 -0.2869
 4935POPC   C3A59743   5.553   1.882   6.948 -0.1006  0.1590  0.0929
 4935POPC   C4A59744   5.337   2.249   6.721  0.0063 -0.0007  0.1937
 4935POPC   C1B59745   5.946   0.841   7.294 -0.3007  0.1599 -0.0846
 4935POPC   C2B59746   5.822   0.995   6.882  0.0952 -0.4353  0.1036
 4935POPC   C3B59747   5.794   0.909   6.459 -0.1980 -0.0841 -0.2997
 4935POPC   C4B59748   6.011   0.895   6.019 -0.0861 -0.4176 -0.0930
 4936POPC   NC359749  13.362  14.212   7.306 -0.1866 -0.1332  0.0821
 4936POPC   PO459750  13.231  14.091   7.629  0.0179 -0.2866 -0.0063
 4936POPC   GL159751  12.852  14.187   7.355 -0.3375  0.2888 -0.0524
 4936POPC   GL259752  12.685  13.943   7.310 -0.2701  0.3028  0.0840
 4936POPC   C1A59753  12.636  14.290   6.931 -0.2160 -0.1456 -0.4872
 4936POPC   D2A59754  12.291  14.331   6.538  0.2552 -0.2598 -0.1214
 4936POPC   C3A59755  12.471  14.234   6.131  0.1772 -0.0978  0.2358
 4936POPC   C4A59756  12.737  14.192   5.714  0.0457 -0.2367  0.0509
 4936POPC   C1B59757  12.949  13.949   6.954  0.1822 -0.1550 -0.0686
 4936POPC   C2B59758  12.703  13.984   6.554  0.2384  0.1437 -0.0240
 4936POPC   C3B59759  12.308  13.841   6.397  0.1946  0.2116  0.0518
 4936POPC   C4B59760  12.014  13.956   6.105  0.2430  0.1962 -0.1617
 4937POPC   NC359761   1.046  27.311   8.095  0.2360  0.1886 -0.0918
 4937POPC   PO459762   1.198  27.674   8.019 -0.3570  0.1647  0.3472
 4937POPC   GL159763   1.282  27.645   7.603  0.2835  0.0159 -0.1195
 4937POPC   GL259764   1.219  27.371   7.414  0.2870 -0.1219 -0.2723
 4937POPC   C1A59765   1.515  27.798   7.234  0.0417  0.3424 -0.1587
 4937POPC   D2A59766   1.526  28.020   6.861 -0.1869  0.0384  0.0544
 4937POPC   C3A59767   1.458  28.137   6.386 -0.2779 -0.0849  0.1971
 4937POPC   C4A59768   1.123  28.156   6.101  0.0182  0.3388  0.1557
 4937POPC   C1B59769   0.875  27.354   7.126 -0.0419 -0.0831  0.4196
 4937POPC   C2B59770   0.865  27.182   6.676 -0.1951  0.0022  0.0515
 4937POPC   C3B59771   0.896  27.184   6.175  0.1047 -0.0091 -0.1085
 4937POPC   C4B59772   0.642  26.859   6.014  0.1590 -0.1512  0.1991
 4938POPC   NC359773  11.394  20.865   8.210 -0.1452 -0.1267  0.1121
 4938POPC   PO459774  11.447  20.841   7.801  0.0698 -0.2126  0.0179
 4938POPC   GL159775  11.415  20.957   7.370  0.0595  0.1951 -0.1295
 4938POPC   GL259776  11.283  20.683   7.208  0.1454  0.0413  0.1291
 4938POPC   C1A59777  11.494  21.038   6.939  0.1704  0.1784  0.3521
 4938POPC   D2A59778  11.492  21.367   6.615 -0.1990  0.1501 -0.1939
 4938POPC   C3A59779  11.667  21.176   6.272 -0.0225  0.0642  0.3258
 4938POPC   C4A59780  11.579  20.775   6.063 -0.2580  0.1198 -0.3750
 4938POPC   C1B59781  10.928  20.796   6.867  0.2584 -0.0432 -0.0722
 4938POPC   C2B59782  10.642  20.690   6.532 -0.0046  0.2053  0.1948
 4938POPC   C3B59783  10.463  20.601   6.097 -0.3609 -0.2095 -0.0793
 4938POPC   C4B59784  10.254  20.630   5.686 -0.0511  0.0790 -0.0466
 4939POPC   NC359785  28.237  26.001   8.006  0.0326  0.1608 -0.0064
 4939POPC   PO459786  28.365  25.719   7.777 -0.1174  0.1956  0.0843
 4939POPC   GL159787  28.471  25.905   7.512  0.0365 -0.1824  0.2323
 4939POPC   GL259788  28.633  26.172   7.478  0.1249  0.0215  0.1033
 4939POPC   C1A59789  28.525  25.839   7.047 -0.0534 -0.0921  0.1665
 4939POPC   D2A59790  28.467  25.986   6.592 -0.1231 -0.0398 -0.0937
 4939POPC   C3A59791  28.487  26.424   6.456 -0.1098 -0.0817  0.3391
 4939POPC   C4A59792  28.670  26.820   6.393 -0.2047  0.1065  0.0784
 4939POPC   C1B59793  28.744  26.344   7.060  0.2964  0.1210 -0.0391
 4939POPC   C2B59794  28.908  26.471   6.629  0.3764  0.2435 -0.1525
 4939POPC   C3B59795  29.155  26.654   6.359  0.0056  0.1918  0.0706
 4939POPC   C4B59796  29.551  26.834   6.136 -0.2400  0.3637  0.1065
 4940POPC   NC359797  30.770   3.058   8.046  0.4169 -0.2306  0.4601
 4940POPC   PO459798  31.087   2.837   7.840  0.0315 -0.2297  0.0692
 4940POPC   GL159799  31.319   3.070   7.452  0.3037  0.0115  0.1161
 4940POPC   GL259800  31.370   2.769   7.361  0.3117 -0.0516 -0.0691
 4940POPC   C1A59801  31.278   3.502   7.240  0.2099 -0.2344  0.0616
 4940POPC   D2A59802  31.068   3.848   6.983  0.0218  0.0319 -0.2865
 4940POPC   C3A59803  31.106   3.763   6.538  0.2326 -0.4896 -0.3528
 4940POPC   C4A59804  31.186   3.650   6.096  0.3027 -0.1566 -0.0430
 4940POPC   C1B59805  31.468   3.077   6.997 -0.1029  0.2037 -0.2093
 4940POPC   C2B59806  31.606   3.114   6.565  0.1869 -0.0290  0.0748
 4940POPC   C3B59807  31.697   3.396   6.184  0.0654 -0.0638 -0.1182
 4940POPC   C4B59808  31.916   3.747   6.013  0.2255  0.3473  0.0189
 4941POPC   NC359809   7.149   3.166   7.381  0.0786  0.4969 -0.2048
 4941POPC   PO459810   6.748   3.200   7.317  0.2624 -0.0328  0.0694
 4941POPC   GL159811   6.572   3.154   6.959 -0.1097  0.1014  0.0406
 4941POPC   GL259812   6.297   3.213   7.097  0.0130 -0.2256 -0.2860
 4941POPC   C1A59813   6.558   3.260   6.477 -0.1617 -0.2732  0.1096
 4941POPC   D2A59814   6.506   3.373   6.054 -0.1982  0.1658  0.0705
 4941POPC   C3A59815   6.856   3.404   5.821 -0.1170  0.0904  0.0502
 4941POPC   C4A59816   7.308   3.231   5.869 -0.1296  0.0195 -0.0175
 4941POPC   C1B59817   6.281   2.921   6.706 -0.1285 -0.1528 -0.2380
 4941POPC   C2B59818   6.210   2.712   6.297  0.0482  0.2559  0.2624
 4941POPC   C3B59819   6.489   2.457   5.973  0.1653  0.3449 -0.3034
 4941POPC   C4B59820   6.851   2.254   5.764  0.0313 -0.0403 -0.0524
 4942POPC   NC359821  29.005  13.780   7.809 -0.1115  0.1306 -0.3147
 4942POPC   PO459822  28.957  13.423   7.726  0.0902  0.2149 -0.0595
 4942POPC   GL159823  29.019  13.181   7.390 -0.1590 -0.1945  0.0268
 4942POPC   GL259824  29.230  12.965   7.484  0.3168 -0.1265  0.3473
 4942POPC   C1A59825  29.044  13.194   6.944  0.2951  0.1019  0.0081
 4942POPC   D2A59826  29.146  13.328   6.544 -0.3470  0.1191 -0.1227
 4942POPC   C3A59827  28.842  13.646   6.385  0.2398 -0.2820 -0.1720
 4942POPC   C4A59828  28.568  13.903   6.077  0.1248  0.2253 -0.0868
 4942POPC   C1B59829  29.180  12.747   7.113  0.1564  0.0429  0.0875
 4942POPC   C2B59830  28.921  12.623   6.717 -0.4452 -0.0903  0.1652
 4942POPC   C3B59831  28.908  12.265   6.348 -0.0108 -0.4795  0.1038
 4942POPC   C4B59832  28.814  11.882   6.117 -0.0608 -0.1835  0.0603
 4943POPC   NC359833  30.415   7.114   7.804  0.3606 -0.0405 -0.2845
 4943POPC   PO459834  30.518   6.785   7.607  0.0635 -0.1253  0.1302
 4943POPC   GL159835  30.699   6.764   7.283  0.1629  0.2095  0.3405
 4943POPC   GL259836  30.859   6.503   7.201  0.0658  0.1432  0.0320
 4943POPC   C1A59837  30.509   6.709   6.840 -0.0712 -0.1691 -0.4239
 4943POPC   D2A59838  30.558   6.957   6.443 -0.1235  0.0197 -0.2302
 4943POPC   C3A59839  30.231   6.918   6.167 -0.0317 -0.2198 -0.0535
 4943POPC   C4A59840  30.167   6.802   5.715  0.0817 -0.1474  0.1086
 4943POPC   C1B59841  30.973   6.449   6.747  0.0211  0.0350  0.0946
 4943POPC   C2B59842  31.298   6.245   6.463  0.0045  0.3805 -0.2553
 4943POPC   C3B59843  31.623   6.490   6.266 -0.2234 -0.0588  0.1815
 4943POPC   C4B59844  31.737   6.971   6.224  0.1273  0.0586 -0.1466
 4944POPC   NC359845  25.970  14.463   7.742  0.0555  0.1032  0.2044
 4944POPC   PO459846  25.840  14.651   8.083 -0.0138  0.1282 -0.4018
 4944POPC   GL159847  25.562  14.720   7.814 -0.0967 -0.1431 -0.1020
 4944POPC   GL259848  25.314  14.544   7.871  0.0328  0.0884 -0.1532
 4944POPC   C1A59849  25.567  14.865   7.362 -0.0025  0.0659 -0.1655
 4944POPC   D2A59850  25.419  14.871   6.905 -0.1785  0.1165 -0.1831
 4944POPC   C3A59851  25.072  15.187   6.784 -0.0178 -0.0675  0.1111
 4944POPC   C4A59852  24.748  15.485   6.875  0.0466 -0.1554 -0.0500
 4944POPC   C1B59853  25.125  14.655   7.538  0.3498  0.2304 -0.0891
 4944POPC   C2B59854  24.880  14.626   7.150  0.2311 -0.1049 -0.0975
 4944POPC   C3B59855  25.034  14.588   6.706 -0.0556 -0.2083  0.0899
 4944POPC   C4B59856  25.173  14.909   6.382 -0.3786 -0.2122 -0.0201
 4945POPC   NC359857   5.538  19.030   7.867 -0.3188  0.1567  0.0159
 4945POPC   PO459858   5.542  19.244   7.526  0.1647  0.0171 -0.2919
 4945POPC   GL159859   5.660  19.391   7.120  0.0310 -0.3895 -0.1780
 4945POPC   GL259860   5.453  19.215   6.964 -0.0519 -0.0154  0.1796
 4945POPC   C1A59861   5.950  19.572   6.779  0.2081  0.0262  0.1034
 4945POPC   D2A59862   6.179  19.299   6.461 -0.0944 -0.2924  0.1803
 4945POPC   C3A59863   6.212  19.193   6.065 -0.0226  0.0695  0.1059
 4945POPC   C4A59864   6.293  18.794   5.814 -0.1173 -0.2548  0.0178
 4945POPC   C1B59865   5.675  19.226   6.581 -0.1287 -0.2796 -0.1696
 4945POPC   C2B59866   5.789  19.044   6.220 -0.1495  0.3447 -0.1244
 4945POPC   C3B59867   5.823  18.821   5.823  0.1395 -0.0119 -0.0356
 4945POPC   C4B59868   6.004  18.560   5.461 -0.0711 -0.0025  0.0000
 4946POPC   NC359869   9.281  17.184   7.528 -0.1233  0.5444  0.1108
 4946POPC   PO459870   9.046  16.881   7.646  0.0849  0.3821 -0.0815
 4946POPC   GL159871   9.025  16.825   7.229  0.2868 -0.2846 -0.1685
 4946POPC   GL259872   8.739  16.888   7.223  0.0197 -0.0708 -0.0961
 4946POPC   C1A59873   9.071  16.877   6.729  0.2219 -0.2109  0.0831
 4946POPC   D2A59874   8.850  17.049   6.342  0.2293 -0.0061  0.0694
 4946POPC   C3A59875   8.787  16.897   5.901 -0.1674  0.0944  0.1477
 4946POPC   C4A59876   8.557  16.687   5.539  0.2212 -0.1106 -0.0281
 4946POPC   C1B59877   8.608  16.748   6.804  0.0907 -0.1170  0.0071
 4946POPC   C2B59878   8.802  16.521   6.453  0.0146 -0.1187  0.2237
 4946POPC   C3B59879   9.004  16.436   6.041 -0.1699 -0.1630 -0.0206
 4946POPC   C4B59880   9.285  16.133   5.883  0.0937 -0.1638  0.0393
 4947POPC   NC359881  16.862   9.551   7.738  0.2103  0.0143  0.0487
 4947POPC   PO459882  17.136   9.589   8.033  0.4087  0.0951 -0.1294
 4947POPC   GL159883  17.364   9.473   7.735 -0.0750 -0.4087 -0.4223
 4947POPC   GL259884  17.469   9.756   7.549 -0.0258 -0.4216  0.2053
 4947POPC   C1A59885  17.197   9.425   7.307 -0.0059 -0.0609  0.0757
 4947POPC   D2A59886  17.216   9.115   6.990 -0.0049 -0.0584 -0.2253
 4947POPC   C3A59887  17.121   9.262   6.689  0.1337 -0.5320 -0.1851
 4947POPC   C4A59888  16.763   9.569   6.561 -0.3465 -0.0125 -0.2666
 4947POPC   C1B59889  17.830   9.977   7.286 -0.0888 -0.1268  0.1579
 4947POPC   C2B59890  18.121   9.920   6.935  0.3262 -0.1461  0.0656
 4947POPC   C3B59891  18.112   9.719   6.519  0.2358 -0.2058 -0.3777
 4947POPC   C4B59892  17.858   9.648   6.136 -0.1119  0.0055  0.3264
 4948POPC   NC359893  29.846  21.568   8.160 -0.1593  0.0374  0.2840
 4948POPC   PO459894  29.507  21.639   7.976  0.1087  0.2318 -0.0248
 4948POPC   GL159895  29.768  21.671   7.620  0.2681  0.0517  0.0203
 4948POPC   GL259896  30.011  21.530   7.635 -0.0127 -0.1338  0.1446
 4948POPC   C1A59897  29.628  21.772   7.188 -0.1192  0.1404 -0.2414
 4948POPC   D2A59898  29.723  21.991   6.782  0.4348  0.1761  0.1408
 4948POPC   C3A59899  29.897  21.991   6.378  0.2312 -0.0401 -0.2696
 4948POPC   C4A59900  29.670  22.166   6.008  0.0299 -0.0122 -0.1461
 4948POPC   C1B59901  29.909  21.324   7.242  0.1355  0.0704 -0.1220
 4948POPC   C2B59902  29.696  21.335   6.814  0.3349 -0.1538 -0.2758
 4948POPC   C3B59903  29.714  21.549   6.426 -0.2724  0.0785 -0.3630
 4948POPC   C4B59904  29.847  21.631   5.991  0.3801 -0.0126 -0.1809
 4949POPC   NC359905  17.975  14.149   7.636 -0.1504 -0.1673  0.0843
 4949POPC   PO459906  18.272  14.332   7.797 -0.1787 -0.0289 -0.1354
 4949POPC   GL159907  18.015  14.543   7.418  0.2292 -0.2330  0.0869
 4949POPC   GL259908  18.291  14.432   7.322  0.1852 -0.0326  0.1044
 4949POPC   C1A59909  17.836  14.228   7.119 -0.1772  0.1345 -0.0676
 4949POPC   D2A59910  17.754  14.221   6.694  0.1253  0.1087  0.1327
 4949POPC   C3A59911  17.484  13.990   6.472  0.0405 -0.1257  0.0468
 4949POPC   C4A59912  17.170  13.824   6.170  0.3214  0.0607  0.1464
 4949POPC   C1B59913  18.300  14.090   7.013 -0.2881 -0.0971  0.0612
 4949POPC   C2B59914  18.349  13.790   6.708 -0.1347  0.1577 -0.3833
 4949POPC   C3B59915  18.472  13.713   6.321  0.2407  0.1147  0.0320
 4949POPC   C4B59916  18.658  13.394   6.077 -0.1559 -0.4033  0.1803
 4950POPC   NC359917  18.149  16.958   8.113  0.0601  0.0322 -0.1859
 4950POPC   PO459918  18.420  17.240   8.009  0.0151  0.1661  0.2338
 4950POPC   GL159919  18.360  17.108   7.630 -0.0233  0.4526 -0.0014
 4950POPC   GL259920  18.110  16.932   7.526  0.2259 -0.3141  0.0147
 4950POPC   C1A59921  18.504  16.996   7.207 -0.0515  0.0525  0.1643
 4950POPC   D2A59922  18.557  17.122   6.713 -0.0708  0.0868 -0.2405
 4950POPC   C3A59923  18.272  17.147   6.362  0.1935 -0.1767  0.1896
 4950POPC   C4A59924  18.234  16.975   5.921  0.1093 -0.0630 -0.2328
 4950POPC   C1B59925  18.021  16.799   7.103  0.3472  0.0259  0.1765
 4950POPC   C2B59926  17.802  16.702   6.715 -0.1084 -0.2964 -0.0035
 4950POPC   C3B59927  17.549  16.504   6.381  0.0266  0.2579 -0.1776
 4950POPC   C4B59928  17.075  16.467   6.377  0.0628  0.0733 -0.3073
 4951POPC   NC359929   4.150  24.982   8.214  0.1798 -0.1110  0.1901
 4951POPC   PO459930   4.184  24.620   8.314  0.3346 -0.0499 -0.0262
 4951POPC   GL159931   4.267  24.588   7.877  0.1847 -0.0982 -0.4355
 4951POPC   GL259932   4.414  24.293   7.828  0.1507  0.0031  0.3967
 4951POPC   C1A59933   4.046  24.366   7.520 -0.2379 -0.1655  0.3500
 4951POPC   D2A59934   4.250  24.046   7.274  0.0802  0.2575  0.3944
 4951POPC   C3A59935   4.528  23.727   7.300 -0.1823  0.1823 -0.1699
 4951POPC   C4A59936   4.310  23.421   7.631 -0.0226 -0.0423 -0.0729
 4951POPC   C1B59937   4.680  24.190   7.462  0.1886  0.2217 -0.0376
 4951POPC   C2B59938   4.743  24.108   7.031 -0.1768  0.0527 -0.0430
 4951POPC   C3B59939   5.074  24.038   6.758 -0.0673 -0.0280 -0.0143
 4951POPC   C4B59940   5.418  24.166   6.515 -0.3829 -0.1042  0.4425
 4952POPC   NC359941   0.539   7.416   7.681  0.1323  0.2098 -0.0713
 4952POPC   PO459942   0.906   7.244   7.783 -0.0597 -0.0414  0.0593
 4952POPC   GL159943   0.762   7.109   7.402 -0.1294  0.0662  0.1257
 4952POPC   GL259944   0.969   7.063   7.252  0.1275 -0.0440 -0.0842
 4952POPC   C1A59945   0.614   7.239   6.956 -0.3499 -0.1613 -0.3957
 4952POPC   D2A59946   0.363   7.230   6.513  0.3464  0.1734 -0.1601
 4952POPC   C3A59947   0.419   7.195   6.051  0.2130  0.2032  0.0553
 4952POPC   C4A59948   0.610   7.109   5.672  0.0515 -0.1107  0.0654
 4952POPC   C1B59949   0.992   6.814   6.886 -0.0934  0.1966 -0.0150
 4952POPC   C2B59950   1.002   6.622   6.484 -0.0039 -0.1280  0.1305
 4952POPC   C3B59951   0.822   6.755   6.035 -0.0300 -0.0641  0.1277
 4952POPC   C4B59952   0.443   6.605   5.840 -0.0861  0.0580 -0.0909
 4953POPC   NC359953  21.991  21.759   8.043 -0.0610 -0.3725 -0.1982
 4953POPC   PO459954  21.626  21.821   7.927 -0.5142  0.0218 -0.3566
 4953POPC   GL159955  21.640  21.751   7.574  0.0393  0.0165  0.3497
 4953POPC   GL259956  21.586  21.507   7.415 -0.0997  0.0759  0.0756
 4953POPC   C1A59957  21.510  21.870   7.090  0.0685 -0.1424  0.0488
 4953POPC   D2A59958  21.677  22.080   6.713  0.0245  0.0470 -0.0627
 4953POPC   C3A59959  21.355  22.155   6.370  0.0549  0.0082  0.4428
 4953POPC   C4A59960  21.042  22.229   6.015 -0.0869 -0.3254  0.3312
 4953POPC   C1B59961  21.703  21.313   7.055  0.1183 -0.0529 -0.3486
 4953POPC   C2B59962  21.911  21.364   6.642 -0.1763 -0.0371 -0.2495
 4953POPC   C3B59963  22.095  21.261   6.226  0.1729 -0.0230  0.1499
 4953POPC   C4B59964  22.165  21.123   5.755  0.0983  0.1200 -0.0291
 4954POPC   NC359965  10.983  20.910   7.560 -0.0860  0.2808  0.0701
 4954POPC   PO459966  10.672  21.153   7.700 -0.4792 -0.2595  0.1647
 4954POPC   GL159967  10.777  21.278   7.345 -0.0002 -0.1084 -0.0583
 4954POPC   GL259968  10.553  21.308   7.197  0.3292 -0.1539 -0.1502
 4954POPC   C1A59969  11.217  21.324   7.212  0.0236 -0.3083 -0.0724
 4954POPC   D2A59970  11.658  21.451   7.165  0.1420  0.0561 -0.2499
 4954POPC   C3A59971  11.867  21.859   7.339 -0.0015  0.0491  0.0896
 4954POPC   C4A59972  11.909  22.259   7.413  0.0948  0.1833 -0.0165
 4954POPC   C1B59973  10.808  21.402   6.855 -0.0933 -0.3024  0.2295
 4954POPC   C2B59974  10.870  21.667   6.477  0.1943  0.0791  0.4135
 4954POPC   C3B59975  10.825  21.910   6.088  0.0872 -0.3145 -0.1910
 4954POPC   C4B59976  10.936  22.291   5.894  0.0901  0.1306 -0.2668
 4955POPC   NC359977  14.433   4.134   7.630  0.2405  0.0875  0.1908
 4955POPC   PO459978  14.043   4.109   7.661  0.2901 -0.0925 -0.1826
 4955POPC   GL159979  14.111   4.080   7.281 -0.2370 -0.0646  0.2032
 4955POPC   GL259980  13.966   4.293   7.168 -0.0719 -0.0268  0.0431
 4955POPC   C1A59981  14.619   4.107   7.191  0.1317  0.2160 -0.0444
 4955POPC   D2A59982  14.975   4.027   6.920  0.3998  0.0165 -0.0641
 4955POPC   C3A59983  15.036   3.975   6.493 -0.0817 -0.0430 -0.1373
 4955POPC   C4A59984  15.268   4.036   6.096  0.0514 -0.2711 -0.1661
 4955POPC   C1B59985  14.224   4.420   6.792 -0.3159  0.1163 -0.0506
 4955POPC   C2B59986  14.240   4.549   6.357  0.2866 -0.0867  0.1229
 4955POPC   C3B59987  14.220   4.357   5.949 -0.1437  0.3384 -0.1990
 4955POPC   C4B59988  14.017   4.025   5.763 -0.2089  0.2506 -0.1153
 4956POPC   NC359989   7.596   3.790   7.459 -0.0687  0.0521  0.1345
 4956POPC   PO459990   7.824   4.122   7.569  0.1752  0.2873  0.2963
 4956POPC   GL159991   7.881   4.158   7.177 -0.1437 -0.1430 -0.0562
 4956POPC   GL259992   7.690   4.196   7.070  0.1119 -0.0780 -0.2437
 4956POPC   C1A59993   8.022   4.288   6.729 -0.2249 -0.2181  0.2405
 4956POPC   D2A59994   8.031   4.399   6.266  0.3467 -0.0717  0.0315
 4956POPC   C3A59995   7.827   4.315   5.848  0.0117  0.0913 -0.0260
 4956POPC   C4A59996   7.591   3.978   5.581 -0.2553 -0.0384 -0.0057
 4956POPC   C1B59997   7.502   4.287   6.690 -0.0758  0.0817 -0.0830
 4956POPC   C2B59998   7.476   4.408   6.213  0.4896  0.4086  0.2667
 4956POPC   C3B59999   7.438   4.619   5.765  0.2704  0.3513 -0.1798
 4956POPC   C4B60000   7.412   4.364   5.332 -0.4506 -0.0473  0.3151
 4957POPC   NC360001  29.008   7.805   8.091 -0.1186  0.0374 -0.0163
 4957POPC   PO460002  28.860   8.069   7.869 -0.1983 -0.0706  0.2120
 4957POPC   GL160003  28.879   8.017   7.431 -0.1746 -0.0510  0.0600
 4957POPC   GL260004  29.050   8.224   7.434  0.2134 -0.0555 -0.0071
 4957POPC   C1A60005  28.834   7.944   6.976 -0.0342 -0.4016 -0.2439
 4957POPC   D2A60006  28.749   8.004   6.536 -0.0185 -0.1060 -0.1535
 4957POPC   C3A60007  28.312   7.889   6.373  0.0932 -0.3096 -0.0742
 4957POPC   C4A60008  27.945   7.597   6.514 -0.2660 -0.0351  0.0001
 4957POPC   C1B60009  29.295   8.597   7.234 -0.0584 -0.0721 -0.0252
 4957POPC   C2B60010  29.363   8.777   6.785 -0.2227  0.2757  0.0047
 4957POPC   C3B60011  29.597   9.038   6.461  0.0302 -0.0956  0.3256
 4957POPC   C4B60012  29.779   9.165   6.065  0.0304  0.0583  0.1842
 4958POPC   NC360013   9.418  23.911   7.920 -0.1572  0.0489  0.0681
 4958POPC   PO460014   9.288  24.246   7.811  0.1955 -0.1078 -0.0702
 4958POPC   GL160015   9.356  24.434   7.357 -0.2681  0.2760  0.3269
 4958POPC   GL260016   9.166  24.550   7.314  0.4286  0.1467  0.1503
 4958POPC   C1A60017   9.625  24.586   7.012  0.0212 -0.0388 -0.2474
 4958POPC   D2A60018   9.636  24.472   6.566 -0.3921 -0.0760 -0.1486
 4958POPC   C3A60019   9.811  24.638   6.164 -0.2608 -0.2108 -0.1458
 4958POPC   C4A60020   9.969  24.866   5.760  0.0437  0.0550  0.0045
 4958POPC   C1B60021   9.171  24.830   6.932 -0.0826  0.1856  0.0996
 4958POPC   C2B60022   9.181  24.923   6.460  0.2086  0.1245 -0.2333
 4958POPC   C3B60023   9.275  24.654   6.127 -0.2053 -0.1326 -0.1736
 4958POPC   C4B60024   8.869  24.573   5.902 -0.0645  0.1430 -0.1556
 4959POPC   NC360025  23.587  31.621   7.693  0.0822 -0.2312  0.1350
 4959POPC   PO460026  23.254  31.469   7.534  0.2863  0.0763 -0.0069
 4959POPC   GL160027  23.295  31.529   7.175 -0.2099  0.2547  0.3642
 4959POPC   GL260028  23.360  31.784   6.989 -0.3765  0.0607 -0.1341
 4959POPC   C1A60029  23.347  31.369   6.775  0.2390 -0.0815  0.1694
 4959POPC   D2A60030  23.524  31.141   6.430 -0.0988 -0.2209  0.0149
 4959POPC   C3A60031  23.722  31.061   6.037 -0.1586  0.1224 -0.0049
 4959POPC   C4A60032  24.037  30.955   5.747 -0.1388  0.0162 -0.0018
 4959POPC   C1B60033  23.011  31.827   6.728  0.1597 -0.2306  0.0145
 4959POPC   C2B60034  22.714  31.656   6.395  0.0583  0.0124  0.3870
 4959POPC   C3B60035  22.675  31.424   6.001 -0.1806  0.0490  0.0381
 4959POPC   C4B60036  22.879  31.224   5.639  0.0288  0.1581  0.0492
 4960POPC   NC360037   8.886  21.213   8.129  0.0006 -0.0206  0.1577
 4960POPC   PO460038   9.233  21.307   8.050 -0.0026 -0.0804 -0.2659
 4960POPC   GL160039   9.076  21.550   7.723 -0.3543 -0.1692  0.0738
 4960POPC   GL260040   8.819  21.583   7.721  0.6155 -0.0473  0.2269
 4960POPC   C1A60041   9.082  21.817   7.334  0.0216 -0.2101  0.0648
 4960POPC   D2A60042   8.927  22.076   6.964 -0.0289  0.2822 -0.0302
 4960POPC   C3A60043   9.027  22.189   6.571  0.2009 -0.2057 -0.0859
 4960POPC   C4A60044   9.098  22.361   6.149  0.0704  0.0437  0.0796
 4960POPC   C1B60045   8.498  21.396   7.466 -0.1048 -0.2450  0.2164
 4960POPC   C2B60046   8.451  21.214   7.060  0.2936 -0.0307 -0.0757
 4960POPC   C3B60047   8.411  21.122   6.648 -0.1440  0.2559 -0.0156
 4960POPC   C4B60048   8.111  20.813   6.383  0.0295 -0.2146  0.2000
 4961POPC   NC360049  30.094  26.222   8.066  0.1104 -0.2313 -0.0713
 4961POPC   PO460050  29.798  26.034   7.877 -0.3337  0.0246  0.1035
 4961POPC   GL160051  29.780  25.851   7.535  0.3673 -0.2615  0.1129
 4961POPC   GL260052  30.004  25.757   7.359  0.1431  0.0429 -0.1509
 4961POPC   C1A60053  29.572  25.820   7.106 -0.0758 -0.4390 -0.2425
 4961POPC   D2A60054  29.692  25.851   6.638 -0.1862  0.2426  0.1512
 4961POPC   C3A60055  29.839  26.098   6.263  0.0761 -0.1456 -0.4296
 4961POPC   C4A60056  30.190  26.021   5.959  0.2427  0.0675  0.2586
 4961POPC   C1B60057  30.230  25.744   6.970  0.3347  0.1366 -0.1177
 4961POPC   C2B60058  30.364  25.630   6.527  0.2530  0.0745  0.1573
 4961POPC   C3B60059  30.236  25.458   6.127  0.2109  0.1411  0.2563
 4961POPC   C4B60060  29.930  25.133   5.948 -0.2141 -0.2282 -0.0664
 4962POPC   NC360061   1.051  16.581   7.345 -0.2108  0.1637  0.1974
 4962POPC   PO460062   1.133  16.889   7.161  0.1765 -0.0833  0.2297
 4962POPC   GL160063   1.230  16.783   6.732 -0.1786 -0.2087 -0.0745
 4962POPC   GL260064   1.581  16.759   6.859  0.1110  0.1167 -0.2409
 4962POPC   C1A60065   1.394  16.698   6.299  0.1571  0.0304  0.2603
 4962POPC   D2A60066   1.444  16.504   5.873  0.0673 -0.0780 -0.2967
 4962POPC   C3A60067   1.389  16.435   5.428 -0.1263  0.0482  0.2887
 4962POPC   C4A60068   1.010  16.570   5.173 -0.1840 -0.2481  0.0985
 4962POPC   C1B60069   1.715  16.423   6.560  0.0350  0.0779  0.0331
 4962POPC   C2B60070   1.778  16.207   6.136  0.2655 -0.0437 -0.0133
 4962POPC   C3B60071   1.588  16.055   5.693  0.2158  0.0906 -0.0247
 4962POPC   C4B60072   1.565  16.013   5.289  0.1592  0.0115  0.2127
 4963POPC   NC360073   6.656   6.301   7.367 -0.0978  0.0431 -0.0563
 4963POPC   PO460074   6.559   5.931   7.400  0.1881 -0.1352 -0.3271
 4963POPC   GL160075   6.590   5.792   7.052  0.0662 -0.0180  0.2426
 4963POPC   GL260076   6.732   6.059   6.939 -0.1512 -0.0131 -0.0527
 4963POPC   C1A60077   6.826   5.793   6.587 -0.3039  0.0023 -0.4638
 4963POPC   D2A60078   7.215   5.729   6.312  0.0120 -0.0588 -0.0002
 4963POPC   C3A60079   7.285   5.946   5.919 -0.0738 -0.3729 -0.1289
 4963POPC   C4A60080   7.224   5.896   5.471 -0.1317  0.0892  0.0155
 4963POPC   C1B60081   6.490   6.451   6.798  0.1179 -0.0577 -0.1200
 4963POPC   C2B60082   6.426   6.702   6.435 -0.0752 -0.0659  0.2579
 4963POPC   C3B60083   6.455   7.008   6.079 -0.2028 -0.1116 -0.0180
 4963POPC   C4B60084   6.782   7.327   5.906 -0.1120  0.0254 -0.1869
 4964POPC   NC360085  13.572  26.065   8.111 -0.0661  0.2262 -0.1393
 4964POPC   PO460086  13.707  26.345   7.936  0.0122 -0.0245  0.0253
 4964POPC   GL160087  13.708  26.133   7.633 -0.0777  0.3133 -0.0497
 4964POPC   GL260088  13.488  26.075   7.449 -0.1084  0.1577  0.1394
 4964POPC   C1A60089  13.926  26.318   7.274 -0.1940 -0.0483 -0.2838
 4964POPC   D2A60090  13.958  26.661   6.977  0.1684  0.0176  0.1203
 4964POPC   C3A60091  14.202  26.577   6.558 -0.0547 -0.1830 -0.2421
 4964POPC   C4A60092  14.280  26.369   6.164  0.1618  0.3163  0.1926
 4964POPC   C1B60093  13.515  26.238   6.980 -0.1841  0.0416  0.1830
 4964POPC   C2B60094  13.330  26.060   6.587  0.0361 -0.3154 -0.4361
 4964POPC   C3B60095  13.415  25.992   6.194 -0.0711 -0.0352  0.1471
 4964POPC   C4B60096  13.409  25.739   5.803  0.1052 -0.1597 -0.0895
 4965POPC   NC360097   0.427  11.432   7.979  0.5037 -0.1268  0.2483
 4965POPC   PO460098   0.422  11.796   7.850  0.1669 -0.2640  0.0818
 4965POPC   GL160099   0.359  11.641   7.543  0.2547  0.4267 -0.1344
 4965POPC   GL260100   0.513  11.381   7.440 -0.2001 -0.1272 -0.2875
 4965POPC   C1A60101   0.093  11.655   7.140  0.2692  0.0004 -0.1704
 4965POPC   D2A60102   0.028  11.628   6.667  0.2538  0.3565 -0.3562
 4965POPC   C3A60103   0.127  11.930   6.347  0.1907  0.0567  0.0296
 4965POPC   C4A60104   0.205  12.029   5.884  0.2298  0.1441  0.1465
 4965POPC   C1B60105   0.355  11.244   7.017  0.2325  0.1590 -0.1917
 4965POPC   C2B60106   0.277  11.173   6.537  0.0035  0.1744 -0.1818
 4965POPC   C3B60107   0.049  11.417   6.229 -0.5861 -0.0399 -0.1377
 4965POPC   C4B60108  -0.134  11.629   5.888 -0.3082 -0.0633  0.2211
 4966POPC   NC360109  19.141   4.640   7.381 -0.3414 -0.1071 -0.1026
 4966POPC   PO460110  18.755   4.659   7.326 -0.1725 -0.0839 -0.0498
 4966POPC   GL160111  18.761   4.450   6.963 -0.2887 -0.3367  0.3339
 4966POPC   GL260112  18.503   4.398   6.993  0.0432  0.1849  0.2251
 4966POPC   C1A60113  19.015   4.303   6.548 -0.1951  0.0094  0.0752
 4966POPC   D2A60114  18.853   4.357   6.122 -0.2288 -0.0991  0.1204
 4966POPC   C3A60115  18.649   4.295   5.690 -0.0244  0.1273  0.0130
 4966POPC   C4A60116  18.559   3.912   5.411 -0.1510 -0.0736 -0.0110
 4966POPC   C1B60117  18.584   4.536   6.543  0.3046 -0.0238 -0.0284
 4966POPC   C2B60118  18.597   4.773   6.086 -0.0486  0.1419 -0.0838
 4966POPC   C3B60119  18.729   4.797   5.690 -0.0602 -0.2674  0.2920
 4966POPC   C4B60120  18.800   5.045   5.289  0.1251 -0.1336 -0.1494
 4967POPC   NC360121  13.493   9.178   7.881  0.1923  0.3616 -0.2615
 4967POPC   PO460122  13.340   8.958   7.603  0.1104  0.2788 -0.0158
 4967POPC   GL160123  13.456   9.149   7.346 -0.2424  0.4351 -0.1663
 4967POPC   GL260124  13.237   9.262   7.126 -0.1179  0.2340  0.0178
 4967POPC   C1A60125  13.683   9.310   6.969 -0.0267 -0.2473 -0.3673
 4967POPC   D2A60126  13.748   9.535   6.541 -0.0457 -0.2947  0.0007
 4967POPC   C3A60127  13.403   9.657   6.298 -0.3773  0.0664 -0.3965
 4967POPC   C4A60128  13.260   9.907   5.992  0.2240 -0.0526 -0.2399
 4967POPC   C1B60129  13.200   9.371   6.711 -0.2289  0.0911  0.1617
 4967POPC   C2B60130  13.020   9.190   6.292  0.3804  0.1162  0.1875
 4967POPC   C3B60131  12.703   8.904   6.020  0.0171 -0.0549  0.1776
 4967POPC   C4B60132  12.471   8.529   5.936 -0.2374  0.0234 -0.3283
 4968POPC   NC360133  30.924  23.582   7.603  0.1190 -0.3542  0.1462
 4968POPC   PO460134  30.580  23.795   7.433 -0.2716  0.1583  0.1540
 4968POPC   GL160135  30.588  24.092   7.134  0.0801 -0.1942  0.2218
 4968POPC   GL260136  30.644  24.368   7.265 -0.0822 -0.2079  0.0023
 4968POPC   C1A60137  30.472  24.166   6.688 -0.2238 -0.1016  0.2307
 4968POPC   D2A60138  30.495  23.971   6.240 -0.0889 -0.1066 -0.1084
 4968POPC   C3A60139  30.249  23.667   5.924  0.0931 -0.1247 -0.0553
 4968POPC   C4A60140  29.806  23.535   5.870 -0.1237  0.3436 -0.0393
 4968POPC   C1B60141  30.817  24.479   6.832 -0.1671  0.1910 -0.2245
 4968POPC   C2B60142  30.690  24.567   6.385  0.0693  0.0213  0.0396
 4968POPC   C3B60143  30.542  24.396   5.980  0.1271  0.2965  0.2152
 4968POPC   C4B60144  30.294  24.131   5.667  0.3673 -0.0000  0.1141
 4969POPC   NC360145   0.960  15.184   8.316  0.1448 -0.1120  0.1399
 4969POPC   PO460146   0.749  15.310   8.034  0.0279 -0.0779 -0.0410
 4969POPC   GL160147   0.489  15.266   7.740  0.0323 -0.0961  0.1764
 4969POPC   GL260148   0.454  15.477   7.618 -0.1729  0.0311  0.1129
 4969POPC   C1A60149   0.161  15.206   7.372 -0.1087  0.0068  0.0007
 4969POPC   D2A60150   0.188  15.300   6.918  0.1094  0.0034 -0.1183
 4969POPC   C3A60151  -0.071  15.568   6.672  0.2010  0.1449  0.1653
 4969POPC   C4A60152  -0.222  15.740   6.233  0.1673  0.0797  0.2027
 4969POPC   C1B60153   0.273  15.679   7.249  0.1491  0.1472 -0.3002
 4969POPC   C2B60154   0.350  15.806   6.811  0.1864  0.1683  0.1008
 4969POPC   C3B60155   0.407  15.755   6.338 -0.3077  0.2616 -0.0702
 4969POPC   C4B60156   0.329  15.693   5.926  0.0593  0.0987  0.3397
 4970POPC   NC360157   8.403   1.021   8.107 -0.1421  0.0696  0.1638
 4970POPC   PO460158   8.049   0.952   8.263  0.1736  0.0699  0.1719
 4970POPC   GL160159   7.968   1.161   7.947  0.3177 -0.3272  0.2434
 4970POPC   GL260160   7.677   1.354   7.911  0.0144  0.0072 -0.0151
 4970POPC   C1A60161   7.838   1.134   7.460 -0.1762  0.3530  0.0488
 4970POPC   D2A60162   7.735   1.139   7.000  0.1185 -0.0872  0.0654
 4970POPC   C3A60163   8.103   1.263   6.794 -0.2630  0.0985  0.2476
 4970POPC   C4A60164   8.196   1.640   6.484 -0.1525 -0.2757  0.0124
 4970POPC   C1B60165   7.684   1.820   8.091 -0.1451 -0.3850  0.0248
 4970POPC   C2B60166   8.044   2.130   8.112 -0.3016 -0.1276 -0.3138
 4970POPC   C3B60167   8.418   2.387   8.080 -0.1841 -0.1262 -0.1078
 4970POPC   C4B60168   8.698   2.706   8.142 -0.0194  0.0695  0.1268
 4971POPC   NC360169  27.858  24.808   8.206  0.0215  0.0118  0.1418
 4971POPC   PO460170  28.187  24.911   7.939  0.0524 -0.2930 -0.0273
 4971POPC   GL160171  28.022  24.905   7.614 -0.2172  0.0610  0.0901
 4971POPC   GL260172  27.772  25.048   7.669 -0.0129 -0.0334 -0.1688
 4971POPC   C1A60173  28.139  24.989   7.168 -0.2019  0.0404 -0.1149
 4971POPC   D2A60174  27.960  25.113   6.794 -0.0471 -0.0802  0.1330
 4971POPC   C3A60175  28.068  25.139   6.363  0.2660  0.0429  0.1971
 4971POPC   C4A60176  27.971  25.254   5.972 -0.1197  0.2016  0.4702
 4971POPC   C1B60177  27.668  24.979   7.221  0.4209 -0.1366  0.3018
 4971POPC   C2B60178  27.420  24.766   6.873 -0.0818  0.1946  0.3431
 4971POPC   C3B60179  27.181  24.671   6.468 -0.0012 -0.1139 -0.1591
 4971POPC   C4B60180  26.757  24.511   6.543 -0.3253 -0.0767 -0.3472
 4972POPC   NC360181  15.293  13.705   8.033 -0.0533 -0.1470  0.0174
 4972POPC   PO460182  15.619  13.841   7.844  0.2228  0.1657  0.0613
 4972POPC   GL160183  15.706  13.930   7.465  0.2054  0.1906 -0.0864
 4972POPC   GL260184  15.847  14.144   7.456  0.1175  0.1738 -0.0733
 4972POPC   C1A60185  15.755  13.558   7.177 -0.0202 -0.0260  0.0595
 4972POPC   D2A60186  15.992  13.266   6.889  0.0696 -0.0713  0.0630
 4972POPC   C3A60187  15.808  13.091   6.520  0.1518  0.0211 -0.0654
 4972POPC   C4A60188  15.930  12.974   6.110 -0.1177  0.1027 -0.0456
 4972POPC   C1B60189  15.867  14.169   6.954  0.1166  0.1703 -0.0138
 4972POPC   C2B60190  15.984  14.138   6.559  0.0812  0.1328 -0.3166
 4972POPC   C3B60191  16.307  14.237   6.249  0.2702  0.3811  0.1399
 4972POPC   C4B60192  16.635  14.291   5.853 -0.1591 -0.2166 -0.1075
 4973POPC   NC360193  23.122  26.420   7.578 -0.4312 -0.1714 -0.2135
 4973POPC   PO460194  23.313  26.686   7.780  0.1543  0.1172 -0.0165
 4973POPC   GL160195  23.474  26.633   7.376 -0.0734 -0.4235 -0.2784
 4973POPC   GL260196  23.603  26.819   7.235 -0.2543  0.3242  0.2892
 4973POPC   C1A60197  23.208  26.551   7.015  0.1002 -0.0392 -0.0684
 4973POPC   D2A60198  23.198  26.388   6.638 -0.1217  0.1966 -0.1590
 4973POPC   C3A60199  22.976  26.613   6.292  0.1547 -0.0254 -0.0595
 4973POPC   C4A60200  22.782  26.701   5.854  0.0175  0.0413 -0.0726
 4973POPC   C1B60201  23.679  26.620   6.839 -0.2533  0.0207 -0.0558
 4973POPC   C2B60202  23.675  26.323   6.498 -0.0928  0.1434  0.3408
 4973POPC   C3B60203  23.457  26.385   6.069 -0.1029 -0.1591 -0.1763
 4973POPC   C4B60204  23.336  26.534   5.668 -0.0430 -0.0835  0.1378
 4974POPC   NC360205  16.849  14.578   7.926 -0.0309  0.5001 -0.0565
 4974POPC   PO460206  16.818  14.199   7.699 -0.5252  0.2461  0.1554
 4974POPC   GL160207  16.635  14.470   7.484 -0.2034  0.3381 -0.1933
 4974POPC   GL260208  16.796  14.709   7.445 -0.1344  0.3042  0.1178
 4974POPC   C1A60209  16.377  14.681   7.142  0.0540  0.2486 -0.1601
 4974POPC   D2A60210  16.388  15.008   6.803  0.1630 -0.5302  0.0211
 4974POPC   C3A60211  16.739  14.951   6.512 -0.2217  0.0417 -0.3713
 4974POPC   C4A60212  16.794  14.768   6.107  0.2316 -0.0909  0.0474
 4974POPC   C1B60213  16.677  15.118   7.280  0.3213  0.0537  0.2099
 4974POPC   C2B60214  16.902  15.511   7.281 -0.2262 -0.2257 -0.1024
 4974POPC   C3B60215  17.132  15.757   6.922  0.0513  0.0448  0.4923
 4974POPC   C4B60216  17.032  15.926   6.534 -0.0799  0.0388  0.3540
 4975POPC   NC360217  19.996  27.070   8.363  0.1078  0.4413 -0.1529
 4975POPC   PO460218  19.836  26.797   8.138  0.0313  0.0595  0.2928
 4975POPC   GL160219  19.907  27.094   7.829  0.2303  0.0758 -0.2223
 4975POPC   GL260220  19.657  27.024   7.624 -0.0202  0.0535 -0.1285
 4975POPC   C1A60221  20.178  27.200   7.467 -0.4218  0.2599  0.0178
 4975POPC   D2A60222  19.993  27.275   7.048 -0.1198  0.0357  0.0766
 4975POPC   C3A60223  20.224  27.173   6.665  0.0284 -0.0371 -0.1695
 4975POPC   C4A60224  20.652  27.073   6.487 -0.1317  0.1996 -0.0973
 4975POPC   C1B60225  19.692  26.795   7.179 -0.1101  0.0031  0.1688
 4975POPC   C2B60226  19.732  26.486   6.850  0.2124  0.2144  0.2193
 4975POPC   C3B60227  20.012  26.137   6.606  0.0052 -0.1612  0.1345
 4975POPC   C4B60228  20.189  25.866   6.302 -0.1473 -0.0531  0.0392
 4976POPC   NC360229  19.355  12.846   7.566 -0.1656  0.0167 -0.1036
 4976POPC   PO460230  19.562  13.173   7.481  0.3153  0.0400  0.3299
 4976POPC   GL160231  19.727  12.983   7.262  0.2952  0.2127  0.0341
 4976POPC   GL260232  19.807  12.709   7.408  0.0497  0.0515 -0.0140
 4976POPC   C1A60233  19.856  12.690   6.909  0.1438 -0.0974 -0.3946
 4976POPC   D2A60234  19.868  12.362   6.563  0.1765 -0.2029 -0.1011
 4976POPC   C3A60235  19.614  12.472   6.197 -0.0194  0.1381 -0.2542
 4976POPC   C4A60236  19.687  12.653   5.794  0.2357  0.3019  0.3693
 4976POPC   C1B60237  20.099  12.399   7.179  0.2136  0.1325  0.1641
 4976POPC   C2B60238  20.298  12.250   6.760 -0.1204  0.2331 -0.0804
 4976POPC   C3B60239  20.288  12.007   6.346  0.1413  0.2072 -0.0088
 4976POPC   C4B60240  20.299  11.783   5.952 -0.0812  0.1305 -0.2912
 4977POPC   NC360241  16.553   5.072   7.591 -0.2443 -0.2771  0.0465
 4977POPC   PO460242  16.469   5.422   7.462 -0.1652 -0.0406  0.2725
 4977POPC   GL160243  16.486   5.254   7.123 -0.3103 -0.2762  0.5084
 4977POPC   GL260244  16.475   5.456   6.978  0.2167 -0.1334 -0.0493
 4977POPC   C1A60245  16.461   5.043   6.689  0.1143 -0.1616 -0.0985
 4977POPC   D2A60246  16.256   4.909   6.254  0.1592  0.1324  0.0998
 4977POPC   C3A60247  16.424   4.739   5.867 -0.0606  0.0436  0.1356
 4977POPC   C4A60248  16.468   4.791   5.485 -0.2740  0.3410  0.0890
 4977POPC   C1B60249  16.391   5.501   6.484 -0.0002 -0.0476  0.2063
 4977POPC   C2B60250  16.442   5.577   6.050 -0.0325  0.1504 -0.0216
 4977POPC   C3B60251  16.396   5.650   5.602  0.2405  0.2675  0.1678
 4977POPC   C4B60252  16.493   5.972   5.342 -0.0480 -0.2786 -0.2088
 4978POPC   NC360253  14.564  28.881   8.101 -0.3327  0.0481 -0.0027
 4978POPC   PO460254  14.881  29.099   7.986  0.1116  0.1231 -0.2345
 4978POPC   GL160255  14.752  28.946   7.649  0.2472  0.0165 -0.4553
 4978POPC   GL260256  14.652  29.228   7.567 -0.2608  0.0236  0.3562
 4978POPC   C1A60257  14.943  28.578   7.330  0.1097 -0.0070 -0.1958
 4978POPC   D2A60258  14.910  28.268   6.937  0.2233  0.1163 -0.1430
 4978POPC   C3A60259  15.100  28.255   6.469 -0.0382 -0.0470  0.3949
 4978POPC   C4A60260  15.229  28.248   6.048 -0.0386 -0.0275 -0.1587
 4978POPC   C1B60261  14.848  29.017   7.176  0.0923  0.3398  0.1468
 4978POPC   C2B60262  14.921  28.741   6.800 -0.1725  0.0485  0.3102
 4978POPC   C3B60263  14.806  28.660   6.325 -0.2120 -0.1210 -0.1841
 4978POPC   C4B60264  15.007  28.734   5.968  0.0849 -0.0875  0.1734
 4979POPC   NC360265   5.631   0.271   7.662 -0.1982  0.0432 -0.0158
 4979POPC   PO460266   5.534   0.142   7.988  0.0343 -0.0373 -0.2722
 4979POPC   GL160267   5.236   0.009   7.725 -0.1753 -0.2544 -0.0955
 4979POPC   GL260268   5.127  -0.240   7.732  0.0913 -0.1856 -0.2514
 4979POPC   C1A60269   5.292  -0.176   7.259  0.2015  0.0079 -0.2277
 4979POPC   D2A60270   5.227  -0.287   6.830  0.0435 -0.0423 -0.0231
 4979POPC   C3A60271   5.178  -0.012   6.426  0.0116  0.1710  0.0598
 4979POPC   C4A60272   5.213   0.277   6.069 -0.1925 -0.0138  0.0985
 4979POPC   C1B60273   4.888   0.044   7.469 -0.1184 -0.0749  0.2129
 4979POPC   C2B60274   4.920   0.031   7.017 -0.1315  0.1651 -0.3601
 4979POPC   C3B60275   4.782   0.192   6.624 -0.1690  0.1723  0.0576
 4979POPC   C4B60276   4.378   0.211   6.336 -0.0286 -0.2000 -0.4149
 4980POPC   NC360277   0.363  19.402   7.720  0.1248  0.0674  0.1635
 4980POPC   PO460278   0.718  19.400   7.861  0.3532  0.2091  0.2607
 4980POPC   GL160279   0.885  19.273   7.470  0.3347 -0.1270  0.1232
 4980POPC   GL260280   0.652  19.065   7.454  0.1822 -0.0930  0.6048
 4980POPC   C1A60281   0.820  19.439   6.994 -0.2383  0.1830  0.0499
 4980POPC   D2A60282   0.592  19.541   6.595  0.5647  0.2576 -0.0480
 4980POPC   C3A60283   0.559  19.487   6.150 -0.0194  0.0766  0.2890
 4980POPC   C4A60284   0.410  19.603   5.729 -0.0783 -0.1042  0.0479
 4980POPC   C1B60285   0.368  19.316   7.220  0.2211  0.1058 -0.3921
 4980POPC   C2B60286   0.167  19.550   6.836  0.0410  0.1598 -0.1325
 4980POPC   C3B60287   0.137  19.513   6.378  0.0632 -0.0436 -0.1444
 4980POPC   C4B60288   0.036  19.169   6.088 -0.0493  0.1930  0.1078
 4981POPC   NC360289  17.075  23.169   7.813  0.3026 -0.1075  0.1399
 4981POPC   PO460290  16.819  23.470   7.692 -0.2113 -0.0103  0.0554
 4981POPC   GL160291  16.603  23.451   7.396 -0.1275  0.1006 -0.1485
 4981POPC   GL260292  16.854  23.451   7.215  0.0992 -0.0820  0.2642
 4981POPC   C1A60293  16.434  23.157   7.140  0.1602 -0.0312  0.0597
 4981POPC   D2A60294  16.130  22.961   6.828  0.2354 -0.3151 -0.1023
 4981POPC   C3A60295  16.258  22.963   6.403 -0.1253 -0.3906  0.0882
 4981POPC   C4A60296  15.995  22.902   5.973  0.2236 -0.1152  0.1184
 4981POPC   C1B60297  16.925  23.478   6.719 -0.3934 -0.0166 -0.2985
 4981POPC   C2B60298  16.768  23.722   6.400  0.0885  0.1695  0.1420
 4981POPC   C3B60299  16.730  24.166   6.246  0.1152  0.0533 -0.0280
 4981POPC   C4B60300  16.578  24.501   5.924  0.0971  0.3529 -0.0794
 4982POPC   NC360301   1.492   2.167   8.700  0.2053 -0.0663  0.2023
 4982POPC   PO460302   1.758   2.380   8.478 -0.3117 -0.1085  0.1428
 4982POPC   GL160303   1.615   2.361   8.191  0.1611 -0.0721 -0.1715
 4982POPC   GL260304   1.403   2.181   8.078  0.1909 -0.3488  0.3377
 4982POPC   C1A60305   1.736   2.452   7.737  0.1431 -0.0830  0.0976
 4982POPC   D2A60306   1.615   2.369   7.277  0.2138  0.0319  0.1368
 4982POPC   C3A60307   1.356   2.689   7.058 -0.0824 -0.0106 -0.2005
 4982POPC   C4A60308   1.112   2.820   6.695 -0.1728 -0.2473  0.1572
 4982POPC   C1B60309   0.987   2.467   8.048  0.3343 -0.0792  0.0288
 4982POPC   C2B60310   0.962   2.885   7.945  0.1136 -0.0883 -0.0844
 4982POPC   C3B60311   1.267   3.244   7.951  0.0929  0.0125 -0.0521
 4982POPC   C4B60312   1.568   3.424   7.643 -0.0392 -0.3235 -0.0996
 4983POPC   NC360313  10.437  14.919   7.534 -0.2187  0.3724  0.0595
 4983POPC   PO460314  10.446  15.273   7.475  0.0105 -0.1659  0.0613
 4983POPC   GL160315  10.181  15.185   7.200  0.2236  0.0663 -0.4244
 4983POPC   GL260316  10.075  15.387   7.019  0.0052 -0.3414  0.1545
 4983POPC   C1A60317  10.273  14.965   6.795  0.0251 -0.3504 -0.1768
 4983POPC   D2A60318  10.182  14.707   6.390  0.2107 -0.2478  0.0627
 4983POPC   C3A60319  10.451  14.653   5.981  0.0698  0.3465  0.1321
 4983POPC   C4A60320  10.493  14.323   5.620  0.0251  0.4393 -0.1697
 4983POPC   C1B60321  10.519  15.391   6.814  0.1522 -0.1762  0.1102
 4983POPC   C2B60322  10.758  15.607   6.505  0.1441  0.2698  0.1937
 4983POPC   C3B60323  11.089  15.397   6.227 -0.2254 -0.1254 -0.1941
 4983POPC   C4B60324  11.568  15.244   6.109  0.1494 -0.0747  0.2387
 4984POPC   NC360325  13.268   2.159   7.876  0.0297 -0.0591  0.2119
 4984POPC   PO460326  13.193   2.524   7.783 -0.2800 -0.0462  0.1618
 4984POPC   GL160327  13.376   2.746   7.495 -0.2695 -0.0991  0.0406
 4984POPC   GL260328  13.331   3.069   7.416 -0.0317  0.1397 -0.1714
 4984POPC   C1A60329  13.326   2.667   7.029  0.1449 -0.2089  0.2142
 4984POPC   D2A60330  13.372   2.724   6.554  0.2048  0.1393  0.1067
 4984POPC   C3A60331  13.762   2.769   6.297 -0.1084 -0.0512  0.1483
 4984POPC   C4A60332  13.791   2.921   5.871 -0.0507 -0.1077 -0.0992
 4984POPC   C1B60333  13.529   3.165   7.074  0.1921  0.1142 -0.0097
 4984POPC   C2B60334  13.799   3.127   6.707 -0.0030  0.3059  0.4747
 4984POPC   C3B60335  13.957   3.320   6.301  0.3636 -0.0684  0.0156
 4984POPC   C4B60336  13.798   3.622   5.996 -0.3750 -0.0422 -0.3352
 4985POPC   NC360337   6.835  25.971   7.661  0.0181 -0.0292  0.1449
 4985POPC   PO460338   7.187  25.933   7.690  0.3811  0.0361 -0.2912
 4985POPC   GL160339   7.396  25.912   7.327  0.2473 -0.1153  0.0994
 4985POPC   GL260340   7.554  26.145   7.396 -0.2044  0.1058  0.2698
 4985POPC   C1A60341   7.160  26.069   6.910  0.2882 -0.0491  0.2162
 4985POPC   D2A60342   7.048  26.464   6.629 -0.0830  0.0787 -0.0214
 4985POPC   C3A60343   6.944  26.601   6.238  0.1834 -0.1716  0.0069
 4985POPC   C4A60344   6.645  26.860   5.930  0.0349 -0.0505 -0.2357
 4985POPC   C1B60345   7.533  26.498   7.159 -0.5513  0.0972  0.0911
 4985POPC   C2B60346   7.534  26.567   6.666  0.0292 -0.1365 -0.1895
 4985POPC   C3B60347   7.467  26.525   6.191 -0.0184 -0.4723 -0.0283
 4985POPC   C4B60348   7.382  26.485   5.787 -0.0097  0.3187  0.4067
 4986POPC   NC360349   8.482  26.603   7.992  0.2320 -0.3113  0.0687
 4986POPC   PO460350   8.129  26.712   8.016 -0.3053  0.1135 -0.0194
 4986POPC   GL160351   8.285  26.976   7.729 -0.1616  0.0499 -0.1392
 4986POPC   GL260352   8.548  26.838   7.526 -0.0418  0.0149 -0.2481
 4986POPC   C1A60353   8.207  27.307   7.445  0.1308 -0.2365 -0.3064
 4986POPC   D2A60354   8.494  27.458   7.095 -0.2163  0.0638 -0.0404
 4986POPC   C3A60355   8.364  27.806   6.804 -0.1048  0.4839  0.2182
 4986POPC   C4A60356   8.369  27.864   6.359 -0.0617 -0.5408  0.0363
 4986POPC   C1B60357   8.527  26.900   7.140 -0.1319 -0.0501 -0.1060
 4986POPC   C2B60358   8.333  26.874   6.709  0.0072  0.0365  0.3371
 4986POPC   C3B60359   8.373  26.970   6.271  0.0547  0.2383 -0.1657
 4986POPC   C4B60360   8.627  26.950   5.924 -0.0637 -0.3022  0.6045
 4987POPC   NC360361   6.934  23.796   7.592 -0.0246 -0.0500 -0.2329
 4987POPC   PO460362   6.995  23.477   7.824 -0.1240  0.0382 -0.0821
 4987POPC   GL160363   6.577  23.354   7.670 -0.1572  0.0362  0.0771
 4987POPC   GL260364   6.491  23.593   7.714  0.0996 -0.0471 -0.5197
 4987POPC   C1A60365   6.319  23.236   7.310 -0.0747 -0.0662 -0.0939
 4987POPC   D2A60366   6.384  23.005   6.913 -0.4523 -0.0024  0.0022
 4987POPC   C3A60367   6.300  23.169   6.412 -0.1239 -0.1276 -0.0868
 4987POPC   C4A60368   5.871  23.170   6.120 -0.2283 -0.0601  0.2374
 4987POPC   C1B60369   6.023  23.674   7.901  0.1329  0.0400  0.0005
 4987POPC   C2B60370   5.647  23.451   8.032  0.1173 -0.1023 -0.2892
 4987POPC   C3B60371   5.272  23.369   7.750 -0.0861  0.0078 -0.0240
 4987POPC   C4B60372   4.819  23.398   7.525  0.0719 -0.0279  0.0962
 4988POPC   NC360373  26.348  12.199   7.403 -0.1641  0.1015 -0.0079
 4988POPC   PO460374  26.359  11.842   7.540  0.1084  0.1873  0.2284
 4988POPC   GL160375  26.142  11.668   7.308 -0.0542 -0.1213 -0.5189
 4988POPC   GL260376  26.318  11.704   7.040 -0.1461 -0.0826  0.1398
 4988POPC   C1A60377  25.820  11.609   6.954  0.0721 -0.2350  0.1548
 4988POPC   D2A60378  25.504  11.451   6.640  0.0094  0.0277  0.1838
 4988POPC   C3A60379  25.308  11.638   6.261 -0.1500 -0.0508  0.1081
 4988POPC   C4A60380  25.206  12.045   6.072 -0.1291  0.1336  0.3816
 4988POPC   C1B60381  26.304  11.516   6.621  0.1068 -0.0720  0.4993
 4988POPC   C2B60382  25.937  11.393   6.403 -0.2212  0.2140  0.1182
 4988POPC   C3B60383  25.692  11.126   6.042  0.0720 -0.1615 -0.1198
 4988POPC   C4B60384  25.376  10.885   5.792 -0.1887 -0.1765 -0.2694
 4989POPC   NC360385  13.143   6.742   8.086  0.4223  0.2897  0.3158
 4989POPC   PO460386  12.799   6.701   7.930  0.2715 -0.2478  0.0449
 4989POPC   GL160387  12.711   6.800   7.560  0.1094 -0.1793 -0.1624
 4989POPC   GL260388  12.967   6.892   7.396 -0.1136  0.1225  0.0967
 4989POPC   C1A60389  12.388   6.745   7.262  0.2406 -0.1945  0.0419
 4989POPC   D2A60390  12.270   6.636   6.834  0.2914  0.1251  0.0087
 4989POPC   C3A60391  11.872   6.434   6.770  0.1717 -0.1773  0.1912
 4989POPC   C4A60392  11.402   6.419   6.817  0.2385  0.1399  0.2319
 4989POPC   C1B60393  12.883   6.833   6.934 -0.0664  0.1363 -0.0479
 4989POPC   C2B60394  12.607   6.861   6.568  0.0920  0.0112  0.1397
 4989POPC   C3B60395  12.192   7.006   6.322  0.0184 -0.0904  0.2349
 4989POPC   C4B60396  11.966   7.358   6.108 -0.2370 -0.1476 -0.0325
 4990POPC   NC360397  19.844   1.047   7.495  0.2344  0.1918 -0.3406
 4990POPC   PO460398  20.068   1.376   7.613  0.0713  0.1634  0.1333
 4990POPC   GL160399  19.959   1.447   7.230  0.3490 -0.1079 -0.1237
 4990POPC   GL260400  19.732   1.359   7.060 -0.0914 -0.0358 -0.2086
 4990POPC   C1A60401  20.199   1.502   6.859 -0.0891 -0.3010 -0.0790
 4990POPC   D2A60402  20.531   1.850   6.661 -0.3657 -0.1305 -0.0493
 4990POPC   C3A60403  20.468   2.245   6.426 -0.0211 -0.0511 -0.1735
 4990POPC   C4A60404  20.609   2.661   6.588  0.0330 -0.0366  0.0714
 4990POPC   C1B60405  19.901   1.186   6.674 -0.1158 -0.1830  0.1317
 4990POPC   C2B60406  20.046   1.345   6.294  0.0407  0.0238 -0.1548
 4990POPC   C3B60407  19.901   1.647   5.926  0.0030  0.1145  0.3693
 4990POPC   C4B60408  19.968   1.948   5.602  0.2165 -0.0533 -0.2349
 4991POPC   NC360409   7.372  22.501   7.593  0.3573 -0.0429  0.1324
 4991POPC   PO460410   7.615  22.807   7.685 -0.3477 -0.1674 -0.1440
 4991POPC   GL160411   7.658  22.831   7.332 -0.3310  0.1859 -0.1214
 4991POPC   GL260412   7.963  22.752   7.280 -0.0132 -0.2384 -0.1133
 4991POPC   C1A60413   7.348  22.547   7.019  0.0326  0.4058  0.2652
 4991POPC   D2A60414   7.382  22.518   6.526  0.1164 -0.0159 -0.0780
 4991POPC   C3A60415   6.959  22.481   6.271 -0.0271 -0.1994 -0.0823
 4991POPC   C4A60416   6.790  22.362   5.812  0.0445 -0.1097 -0.0282
 4991POPC   C1B60417   7.757  22.861   6.910 -0.0130  0.0040 -0.1250
 4991POPC   C2B60418   7.562  22.924   6.489  0.0820 -0.0556 -0.2521
 4991POPC   C3B60419   7.340  22.874   6.145  0.3601  0.1057  0.0800
 4991POPC   C4B60420   7.250  22.580   5.782 -0.1319 -0.0020 -0.0988
 4992POPC   NC360421   2.037  22.172   7.953 -0.3103  0.1214 -0.0426
 4992POPC   PO460422   1.831  22.174   7.639 -0.0756  0.2205 -0.1793
 4992POPC   GL160423   1.921  22.197   7.273  0.0661  0.2828 -0.0532
 4992POPC   GL260424   1.647  22.153   7.151  0.0454 -0.0323  0.3286
 4992POPC   C1A60425   2.098  22.396   6.895 -0.0834 -0.3791 -0.1988
 4992POPC   D2A60426   2.078  22.845   6.646 -0.0196  0.0682  0.3145
 4992POPC   C3A60427   2.324  23.035   6.328 -0.1804  0.0216  0.4775
 4992POPC   C4A60428   2.554  23.159   5.946 -0.1136  0.0587 -0.0652
 4992POPC   C1B60429   1.628  21.969   6.717 -0.1576  0.0996 -0.1647
 4992POPC   C2B60430   1.842  21.816   6.338  0.2868 -0.0671  0.1308
 4992POPC   C3B60431   1.964  21.659   5.912 -0.0370  0.0858 -0.3480
 4992POPC   C4B60432   2.138  21.935   5.583  0.0873 -0.0814 -0.1856
 4993POPC   NC360433   3.322  19.955   7.874  0.0766  0.2388 -0.1767
 4993POPC   PO460434   3.301  20.124   7.491 -0.0987 -0.0008 -0.1644
 4993POPC   GL160435   3.347  20.322   7.201  0.0882  0.1003  0.1555
 4993POPC   GL260436   3.208  20.236   6.975  0.1710 -0.3497  0.3553
 4993POPC   C1A60437   3.628  20.523   6.907 -0.2157 -0.3453 -0.1438
 4993POPC   D2A60438   4.068  20.330   6.891  0.0165  0.1592  0.0446
 4993POPC   C3A60439   4.282  20.251   6.406  0.0427 -0.3351  0.0899
 4993POPC   C4A60440   4.486  20.520   6.095 -0.1682 -0.0512 -0.0330
 4993POPC   C1B60441   3.082  19.943   6.623  0.1275 -0.0002 -0.1086
 4993POPC   C2B60442   2.917  20.106   6.190  0.1225 -0.1893 -0.0399
 4993POPC   C3B60443   2.818  19.958   5.766  0.0444  0.2248 -0.0902
 4993POPC   C4B60444   2.700  19.801   5.348  0.1693 -0.3582 -0.0629
 4994POPC   NC360445   1.320  19.967   7.752  0.3420 -0.1252  0.2784
 4994POPC   PO460446   1.437  20.330   7.551 -0.2402 -0.2313 -0.1379
 4994POPC   GL160447   1.385  20.155   7.231  0.2226  0.0337 -0.2440
 4994POPC   GL260448   1.635  20.000   7.196  0.1543  0.0747  0.0896
 4994POPC   C1A60449   1.303  20.383   6.868 -0.1509  0.2540 -0.1420
 4994POPC   D2A60450   1.213  20.664   6.537 -0.3687  0.1346  0.3079
 4994POPC   C3A60451   1.123  20.281   6.226 -0.0592 -0.2840 -0.0209
 4994POPC   C4A60452   1.138  20.227   5.780 -0.2573 -0.1102  0.1439
 4994POPC   C1B60453   1.471  19.925   6.783 -0.3221  0.2130 -0.0306
 4994POPC   C2B60454   1.539  19.948   6.355 -0.1500 -0.0719  0.1427
 4994POPC   C3B60455   1.527  19.948   5.899  0.1181 -0.1580 -0.2797
 4994POPC   C4B60456   1.372  19.946   5.455 -0.0265  0.1107  0.0688
 4995POPC   NC360457  11.530  23.128   8.002 -0.0083 -0.1484  0.2250
 4995POPC   PO460458  11.892  23.160   7.822  0.0627  0.0409 -0.0475
 4995POPC   GL160459  12.056  23.261   7.528  0.0227 -0.1624  0.0161
 4995POPC   GL260460  12.248  23.438   7.427 -0.2070 -0.0715 -0.2380
 4995POPC   C1A60461  11.944  23.058   7.146  0.0657 -0.0720 -0.0281
 4995POPC   D2A60462  12.138  22.981   6.709 -0.0432  0.1421  0.0831
 4995POPC   C3A60463  12.043  22.911   6.249  0.2243 -0.0282 -0.3673
 4995POPC   C4A60464  12.312  22.889   5.941  0.0043  0.1737  0.0413
 4995POPC   C1B60465  12.446  23.189   7.095 -0.0351 -0.0921 -0.0576
 4995POPC   C2B60466  12.648  23.097   6.710  0.1081  0.0390 -0.0799
 4995POPC   C3B60467  12.450  23.180   6.326  0.1260 -0.0682 -0.1497
 4995POPC   C4B60468  12.634  23.377   5.929 -0.0672  0.1894  0.0291
 4996POPC   NC360469  21.201  26.228   8.580  0.0359  0.0181 -0.1253
 4996POPC   PO460470  21.213  26.075   8.225 -0.0490  0.0831  0.0850
 4996POPC   GL160471  21.223  25.941   7.850 -0.1110  0.4309 -0.3426
 4996POPC   GL260472  21.095  25.684   7.864  0.1502  0.2243  0.1466
 4996POPC   C1A60473  20.966  26.081   7.527  0.0426  0.4088 -0.2709
 4996POPC   D2A60474  20.740  26.001   7.091  0.1979  0.1597  0.2936
 4996POPC   C3A60475  20.742  26.410   6.859 -0.2015  0.0602 -0.0347
 4996POPC   C4A60476  20.884  26.661   6.497  0.3238 -0.4893  0.1127
 4996POPC   C1B60477  20.629  25.728   7.888  0.1659  0.0142  0.0708
 4996POPC   C2B60478  20.205  25.826   8.009  0.2028  0.0558  0.2407
 4996POPC   C3B60479  19.932  25.547   7.846  0.2322 -0.0496  0.1912
 4996POPC   C4B60480  19.500  25.633   7.694 -0.2096 -0.2613  0.0902
 4997POPC   NC360481   9.454  19.264   7.449 -0.3098 -0.0669 -0.2368
 4997POPC   PO460482   9.163  19.072   7.373  0.0511 -0.3794  0.0659
 4997POPC   GL160483   9.038  19.006   6.994 -0.0778  0.2182  0.2131
 4997POPC   GL260484   8.905  19.267   6.995 -0.1449  0.1660 -0.1340
 4997POPC   C1A60485   9.099  18.693   6.662  0.0480  0.2678 -0.1518
 4997POPC   D2A60486   9.014  18.291   6.419 -0.1449  0.2207  0.2796
 4997POPC   C3A60487   9.018  18.281   5.962  0.0137  0.1086 -0.0238
 4997POPC   C4A60488   8.999  18.460   5.550 -0.2708  0.2455 -0.0359
 4997POPC   C1B60489   8.715  19.056   6.640 -0.0067 -0.1459  0.0827
 4997POPC   C2B60490   8.296  18.939   6.485  0.1132  0.0601  0.1656
 4997POPC   C3B60491   8.231  18.518   6.303 -0.0451  0.0929  0.1455
 4997POPC   C4B60492   8.113  18.104   6.433  0.1474  0.1581 -0.0284
 4998POPC   NC360493  18.272   5.909   7.505 -0.1550  0.0438  0.5092
 4998POPC   PO460494  17.933   5.832   7.632  0.2707  0.0924  0.0733
 4998POPC   GL160495  17.807   5.844   7.322  0.0685 -0.0321 -0.1943
 4998POPC   GL260496  17.694   5.605   7.218  0.2318 -0.2523 -0.0109
 4998POPC   C1A60497  18.029   6.096   6.996  0.0579 -0.3923 -0.1419
 4998POPC   D2A60498  18.250   6.481   7.064  0.2141 -0.1957  0.1292
 4998POPC   C3A60499  18.293   6.733   6.630  0.3649  0.1241  0.2211
 4998POPC   C4A60500  18.185   7.146   6.416  0.1291 -0.0503 -0.0640
 4998POPC   C1B60501  17.690   5.574   6.829  0.1491  0.0454 -0.0028
 4998POPC   C2B60502  17.766   5.868   6.531  0.0045 -0.0496 -0.1627
 4998POPC   C3B60503  18.087   6.171   6.341 -0.0846 -0.4875  0.1948
 4998POPC   C4B60504  18.121   6.317   5.890  0.0941 -0.2446 -0.1755
 4999POPC   NC360505  26.234   5.619   7.328 -0.0934 -0.1899  0.0307
 4999POPC   PO460506  26.332   6.017   7.370  0.2737 -0.0291 -0.0251
 4999POPC   GL160507  26.387   5.806   6.989  0.2434  0.1225 -0.4762
 4999POPC   GL260508  26.332   5.973   6.807 -0.3340  0.1848  0.2966
 4999POPC   C1A60509  26.532   5.509   6.691  0.0088 -0.0661  0.1218
 4999POPC   D2A60510  26.386   5.248   6.356 -0.1254 -0.0084 -0.1611
 4999POPC   C3A60511  26.612   5.107   5.989 -0.0307  0.1294 -0.2017
 4999POPC   C4A60512  26.890   4.759   5.817  0.0006 -0.3122  0.1614
 4999POPC   C1B60513  26.245   6.457   6.694 -0.0512  0.1692  0.1630
 4999POPC   C2B60514  25.966   6.797   6.529 -0.0787 -0.0039 -0.0644
 4999POPC   C3B60515  25.743   7.137   6.355 -0.1428 -0.0856 -0.1364
 4999POPC   C4B60516  25.871   7.549   6.281  0.0040 -0.1222  0.0671
 5000POPC   NC360517  29.349  25.708   7.606  0.1227 -0.1070 -0.0743
 5000POPC   PO460518  29.289  25.342   7.721  0.2893  0.3884  0.3201
 5000POPC   GL160519  29.004  25.494   7.482 -0.3130  0.2882  0.1531
 5000POPC   GL260520  28.729  25.504   7.433  0.0163 -0.0841  0.3271
 5000POPC   C1A60521  29.009  25.573   7.039  0.0068 -0.1639  0.1021
 5000POPC   D2A60522  28.783  25.576   6.690 -0.2513 -0.0535 -0.0074
 5000POPC   C3A60523  28.836  25.870   6.315 -0.1156 -0.1251  0.1353
 5000POPC   C4A60524  28.903  26.230   6.140  0.3033  0.1409  0.0457
 5000POPC   C1B60525  28.569  25.268   7.052 -0.2726  0.3585  0.1461
 5000POPC   C2B60526  28.564  25.133   6.596  0.1052 -0.4873  0.1852
 5000POPC   C3B60527  28.504  24.953   6.187  0.1780 -0.0903  0.3886
 5000POPC   C4B60528  28.243  24.856   5.785 -0.1943 -0.0576  0.3126
 5001POPC   NC360529  13.460  21.080   7.568  0.1063  0.2461 -0.2726
 5001POPC   PO460530  13.113  20.839   7.574 -0.2323  0.1486 -0.0745
 5001POPC   GL160531  13.182  20.774   7.203 -0.2995  0.2237  0.2278
 5001POPC   GL260532  13.038  20.531   7.118 -0.1844  0.0488 -0.0785
 5001POPC   C1A60533  13.467  20.583   6.827  0.1068 -0.1544  0.0666
 5001POPC   D2A60534  13.568  20.521   6.425  0.0168  0.0040 -0.0594
 5001POPC   C3A60535  13.368  20.259   6.085  0.0273  0.0979 -0.2961
 5001POPC   C4A60536  13.543  19.894   5.859 -0.0148  0.1927 -0.4886
 5001POPC   C1B60537  12.885  20.863   6.820  0.1689  0.0887  0.0281
 5001POPC   C2B60538  12.854  20.997   6.399 -0.0060 -0.1042  0.0267
 5001POPC   C3B60539  12.719  20.824   5.995 -0.0368  0.1824 -0.1226
 5001POPC   C4B60540  12.785  20.438   5.765 -0.1482  0.2503  0.4533
 5002POPC   NC360541  25.556   0.995   7.952  0.1784  0.1700  0.0133
 5002POPC   PO460542  25.692   0.685   8.110  0.1648  0.2655  0.1810
 5002POPC   GL160543  25.983   0.932   7.804 -0.1047  0.1047  0.2391
 5002POPC   GL260544  25.827   0.963   7.533  0.4126 -0.0137  0.2733
 5002POPC   C1A60545  26.132   1.305   7.588  0.0335  0.0642  0.0504
 5002POPC   D2A60546  26.210   1.606   7.261  0.0039 -0.0872 -0.1936
 5002POPC   C3A60547  26.086   2.008   7.198  0.1961 -0.2653  0.0600
 5002POPC   C4A60548  25.846   2.266   6.906  0.2879  0.2997  0.0062
 5002POPC   C1B60549  25.770   1.059   7.092 -0.0079 -0.1237 -0.1077
 5002POPC   C2B60550  25.624   1.238   6.668  0.2381  0.0122  0.2352
 5002POPC   C3B60551  25.347   1.420   6.299  0.1595  0.0491  0.1659
 5002POPC   C4B60552  25.032   1.765   6.325 -0.0121  0.3581  0.0638
 5003POPC   NC360553  20.638  17.848   6.859  0.0487  0.1779  0.1163
 5003POPC   PO460554  20.656  17.665   7.240  0.1319 -0.0366 -0.2327
 5003POPC   GL160555  20.524  17.319   6.920  0.0732 -0.3196  0.0278
 5003POPC   GL260556  20.836  17.192   6.899  0.0305  0.1463  0.3185
 5003POPC   C1A60557  20.606  17.516   6.509  0.0456  0.5578  0.0370
 5003POPC   D2A60558  20.569  17.682   6.106 -0.1025 -0.2765  0.0063
 5003POPC   C3A60559  20.160  17.634   5.902 -0.1656 -0.0927 -0.4181
 5003POPC   C4A60560  19.820  17.411   6.061  0.1582  0.0855  0.2641
 5003POPC   C1B60561  20.947  17.118   6.485 -0.1126 -0.0912 -0.2526
 5003POPC   C2B60562  20.881  17.359   6.134 -0.0350  0.3355  0.0929
 5003POPC   C3B60563  20.689  17.344   5.753  0.2354 -0.1980 -0.0611
 5003POPC   C4B60564  20.432  17.528   5.395 -0.0896 -0.1105 -0.1166
 5004POPC   NC360565  27.898  23.274   8.260  0.3168 -0.1845  0.2738
 5004POPC   PO460566  27.573  23.319   8.063  0.1126 -0.1052  0.0011
 5004POPC   GL160567  27.654  23.204   7.747  0.1889 -0.0796 -0.0728
 5004POPC   GL260568  27.615  22.905   7.747 -0.2659  0.3000  0.2682
 5004POPC   C1A60569  27.771  23.069   7.317 -0.2073 -0.0494  0.0137
 5004POPC   D2A60570  27.615  23.114   6.875 -0.2481  0.2353  0.0422
 5004POPC   C3A60571  27.701  22.747   6.559 -0.0752 -0.1794  0.1360
 5004POPC   C4A60572  27.625  22.662   6.094  0.1193  0.2676  0.2025
 5004POPC   C1B60573  27.324  22.881   7.306 -0.2106  0.0105  0.1646
 5004POPC   C2B60574  27.287  22.652   6.955 -0.0088 -0.1530 -0.1779
 5004POPC   C3B60575  27.328  22.405   6.594  0.1397 -0.2838 -0.1931
 5004POPC   C4B60576  27.395  22.006   6.197 -0.2529 -0.1135  0.0035
 5005POPC   NC360577  26.753  16.611   7.826  0.4182  0.3275  0.2182
 5005POPC   PO460578  26.759  16.977   7.710 -0.0656  0.0607  0.2528
 5005POPC   GL160579  26.630  16.969   7.357 -0.2482 -0.0513  0.2039
 5005POPC   GL260580  26.733  17.112   7.125  0.1647 -0.0500  0.0353
 5005POPC   C1A60581  26.235  17.018   7.134  0.1814  0.1271  0.0131
 5005POPC   D2A60582  26.080  17.340   6.851  0.0552 -0.3562 -0.4135
 5005POPC   C3A60583  25.714  17.666   6.992  0.0523  0.0037  0.0314
 5005POPC   C4A60584  25.293  17.586   7.196 -0.2430  0.4220 -0.1013
 5005POPC   C1B60585  26.497  17.090   6.712  0.2981 -0.1344  0.3235
 5005POPC   C2B60586  26.314  17.007   6.347  0.1823  0.2587  0.1861
 5005POPC   C3B60587  26.024  16.729   6.116  0.0512  0.2904 -0.3167
 5005POPC   C4B60588  25.709  16.503   5.794  0.1580  0.0592  0.0100
 5006POPC   NC360589  11.458   0.666   7.468  0.0169 -0.1066 -0.1263
 5006POPC   PO460590  11.231   0.856   7.757  0.0888 -0.4847  0.1930
 5006POPC   GL160591  10.943   1.071   7.526 -0.3150  0.1375  0.2738
 5006POPC   GL260592  10.909   0.843   7.293  0.1385  0.1146 -0.0378
 5006POPC   C1A60593  10.739   1.252   7.120 -0.1130 -0.0393  0.1147
 5006POPC   D2A60594  10.459   1.517   6.783  0.2087 -0.0954 -0.1999
 5006POPC   C3A60595  10.132   1.805   6.987  0.3157  0.0630  0.1677
 5006POPC   C4A60596   9.815   1.664   7.279  0.1665 -0.0567 -0.0074
 5006POPC   C1B60597  11.244   0.671   7.032 -0.0587  0.0179  0.0635
 5006POPC   C2B60598  11.213   0.488   6.611  0.1943  0.0146  0.1279
 5006POPC   C3B60599  11.103   0.559   6.176 -0.1319  0.1411 -0.0358
 5006POPC   C4B60600  10.876   0.507   5.756 -0.3735 -0.0313 -0.1080
 5007POPC   NC360601   5.983  29.501   8.258  0.0531 -0.1029  0.1799
 5007POPC   PO460602   5.941  29.362   7.878  0.3020  0.0906 -0.0943
 5007POPC   GL160603   5.949  29.463   7.571  0.0951 -0.0882 -0.1227
 5007POPC   GL260604   6.137  29.734   7.483 -0.2305 -0.6332 -0.0642
 5007POPC   C1A60605   5.760  29.703   7.163  0.0125 -0.0268  0.1372
 5007POPC   D2A60606   5.782  29.827   6.693 -0.3804 -0.0903 -0.2526
 5007POPC   C3A60607   5.415  30.031   6.504 -0.1154 -0.1303  0.1514
 5007POPC   C4A60608   5.184  29.995   6.067 -0.1296  0.0706  0.0802
 5007POPC   C1B60609   6.211  30.049   7.118 -0.0432 -0.1507 -0.1542
 5007POPC   C2B60610   6.283  30.004   6.651  0.0622  0.2011 -0.2169
 5007POPC   C3B60611   6.359  29.840   6.226 -0.0995  0.0893 -0.2096
 5007POPC   C4B60612   6.165  29.890   5.788  0.0245 -0.1954 -0.1197
 5008POPC   NC360613  29.554  24.938   7.540  0.1753 -0.0730 -0.1098
 5008POPC   PO460614  29.928  24.831   7.595  0.1442 -0.4632 -0.1628
 5008POPC   GL160615  30.002  24.907   7.200  0.0240  0.0372  0.1249
 5008POPC   GL260616  30.135  24.691   7.121 -0.1470  0.2599 -0.2184
 5008POPC   C1A60617  29.748  24.895   6.821  0.0459  0.4482  0.1297
 5008POPC   D2A60618  29.660  25.055   6.421  0.1350  0.5955  0.0706
 5008POPC   C3A60619  29.222  25.160   6.247  0.1038 -0.3592 -0.1002
 5008POPC   C4A60620  28.918  25.162   5.904  0.0564 -0.0747  0.0352
 5008POPC   C1B60621  30.189  24.610   6.709 -0.1035 -0.0580  0.1563
 5008POPC   C2B60622  30.152  24.312   6.329  0.0164  0.2882 -0.3197
 5008POPC   C3B60623  29.912  24.217   5.942 -0.0173  0.0954 -0.0268
 5008POPC   C4B60624  29.784  24.058   5.544 -0.0099 -0.1535  0.2507
 5009POPC   NC360625   4.979  25.217   7.722 -0.2086  0.3370  0.2681
 5009POPC   PO460626   4.852  25.515   7.925 -0.0061  0.0888 -0.2867
 5009POPC   GL160627   4.692  25.644   7.551  0.1431  0.0171  0.0724
 5009POPC   GL260628   4.477  25.505   7.454  0.0725  0.1144  0.0055
 5009POPC   C1A60629   4.748  25.683   7.028 -0.2267  0.1838  0.2404
 5009POPC   D2A60630   4.760  25.520   6.559  0.1271  0.0768  0.3035
 5009POPC   C3A60631   4.736  25.563   6.078 -0.0190 -0.3047 -0.1406
 5009POPC   C4A60632   5.023  25.724   5.789  0.0207 -0.2518 -0.2553
 5009POPC   C1B60633   4.421  25.176   7.201 -0.4455  0.0064 -0.2175
 5009POPC   C2B60634   4.286  24.950   6.846 -0.0607  0.3017 -0.0363
 5009POPC   C3B60635   4.293  25.197   6.474  0.0645 -0.0118 -0.0854
 5009POPC   C4B60636   4.401  25.136   6.038 -0.2367  0.0384  0.1066
 5010POPC   NC360637  29.831  15.978   7.813 -0.0970  0.2639  0.1293
 5010POPC   PO460638  29.583  16.302   7.710  0.1350  0.2204 -0.1718
 5010POPC   GL160639  29.614  16.233   7.342 -0.0564 -0.1759 -0.2722
 5010POPC   GL260640  29.915  16.224   7.380  0.0635 -0.3151  0.2744
 5010POPC   C1A60641  29.324  16.186   7.014  0.0220 -0.1411 -0.2052
 5010POPC   D2A60642  29.053  15.937   6.765  0.0391  0.2174  0.1843
 5010POPC   C3A60643  29.235  15.976   6.292 -0.0050  0.0433  0.1096
 5010POPC   C4A60644  29.135  15.974   5.829  0.1194  0.1697  0.0990
 5010POPC   C1B60645  30.143  15.948   7.102  0.2356  0.0824 -0.0650
 5010POPC   C2B60646  30.237  15.994   6.649  0.0108 -0.1065  0.0404
 5010POPC   C3B60647  30.131  15.872   6.181  0.0192 -0.1120  0.1524
 5010POPC   C4B60648  30.259  16.013   5.756 -0.1376 -0.0708 -0.2249
 5011POPC   NC360649   7.884  11.514   8.017 -0.1633 -0.0582  0.0906
 5011POPC   PO460650   8.186  11.562   7.797 -0.1711 -0.1962 -0.3408
 5011POPC   GL160651   8.144  11.441   7.421  0.2844 -0.1818  0.1354
 5011POPC   GL260652   7.866  11.428   7.264  0.0599 -0.0132  0.0786
 5011POPC   C1A60653   8.310  11.341   6.982  0.0120 -0.0624 -0.4827
 5011POPC   D2A60654   8.269  11.178   6.514  0.1177  0.1619  0.2547
 5011POPC   C3A60655   8.250  11.119   6.037 -0.2358 -0.3393 -0.1917
 5011POPC   C4A60656   8.139  11.430   5.734 -0.0980  0.0998 -0.0126
 5011POPC   C1B60657   7.877  11.313   6.773 -0.2589 -0.0502  0.0964
 5011POPC   C2B60658   7.820  11.337   6.298 -0.1028 -0.2052  0.0518
 5011POPC   C3B60659   7.563  11.085   6.003  0.1478  0.3715 -0.1319
 5011POPC   C4B60660   7.408  10.944   5.571 -0.4395 -0.3113  0.0954
 5012POPC   NC360661  31.232   2.357   7.717 -0.0850 -0.0762  0.0865
 5012POPC   PO460662  31.476   2.122   7.882 -0.2067 -0.0720 -0.0783
 5012POPC   GL160663  31.815   2.179   7.621 -0.1751  0.3976  0.1012
 5012POPC   GL260664  31.675   2.329   7.463  0.0696 -0.3437  0.3681
 5012POPC   C1A60665  32.050   2.556   7.691 -0.0784 -0.0357 -0.3019
 5012POPC   D2A60666  32.253   2.896   7.543  0.0642  0.0790 -0.2000
 5012POPC   C3A60667  32.380   3.306   7.758 -0.2348  0.1288 -0.0586
 5012POPC   C4A60668  32.758   3.558   7.624 -0.0233 -0.0328 -0.2179
 5012POPC   C1B60669  31.600   2.280   7.024 -0.1619 -0.0470 -0.1020
 5012POPC   C2B60670  31.653   2.275   6.512  0.0366  0.2574 -0.0471
 5012POPC   C3B60671  31.202   2.296   6.321  0.0064  0.0213 -0.1540
 5012POPC   C4B60672  30.997   2.108   5.950  0.1985  0.1523  0.0076
 5013POPC   NC360673  26.812  26.327   7.644  0.0079 -0.0327 -0.1077
 5013POPC   PO460674  27.049  26.523   7.902 -0.0110 -0.1397  0.0922
 5013POPC   GL160675  27.307  26.332   7.624  0.1253 -0.3507 -0.2209
 5013POPC   GL260676  27.256  26.574   7.438  0.1606 -0.3093  0.3365
 5013POPC   C1A60677  27.604  26.028   7.412  0.2439  0.1344 -0.1487
 5013POPC   D2A60678  27.566  25.564   7.359  0.0124 -0.1186 -0.0544
 5013POPC   C3A60679  27.647  25.470   6.943  0.0373  0.0887 -0.3323
 5013POPC   C4A60680  27.678  25.615   6.511  0.3001 -0.0759  0.0205
 5013POPC   C1B60681  27.439  26.974   7.217  0.0665 -0.0894  0.1370
 5013POPC   C2B60682  27.691  27.230   6.909  0.1275  0.0058 -0.0968
 5013POPC   C3B60683  27.597  27.409   6.489 -0.0798  0.2474  0.1934
 5013POPC   C4B60684  27.426  27.712   6.192 -0.0482  0.0387  0.2672
 5014POPC   NC360685  16.214  20.205   7.568  0.0560 -0.0311  0.3558
 5014POPC   PO460686  16.292  20.537   7.791 -0.0137 -0.1530 -0.2299
 5014POPC   GL160687  16.457  20.612   7.479  0.3322  0.0024 -0.1645
 5014POPC   GL260688  16.466  20.890   7.432 -0.0097  0.0822 -0.1325
 5014POPC   C1A60689  16.510  20.598   7.006 -0.0969 -0.2339  0.1646
 5014POPC   D2A60690  16.559  20.460   6.565 -0.0543  0.0824 -0.1807
 5014POPC   C3A60691  16.898  20.321   6.305 -0.1665  0.2460  0.1166
 5014POPC   C4A60692  17.283  20.035   6.342  0.1463 -0.2058  0.2578
 5014POPC   C1B60693  16.394  21.113   7.016 -0.2154 -0.3199 -0.0807
 5014POPC   C2B60694  16.316  21.323   6.624  0.0203  0.1779 -0.1388
 5014POPC   C3B60695  16.493  21.451   6.242 -0.0684 -0.0653 -0.1111
 5014POPC   C4B60696  16.713  21.242   5.923 -0.2863  0.1250  0.0721
 5015POPC   NC360697   8.028   6.415   7.521 -0.1256 -0.2121  0.0793
 5015POPC   PO460698   8.022   6.777   7.688  0.1428 -0.1627  0.0466
 5015POPC   GL160699   7.752   6.942   7.465 -0.0211  0.0342  0.1174
 5015POPC   GL260700   7.716   6.764   7.253 -0.1383 -0.1301 -0.1492
 5015POPC   C1A60701   7.695   7.313   7.103 -0.1669  0.0878  0.1092
 5015POPC   D2A60702   7.820   7.467   6.720  0.0316  0.0079  0.2746
 5015POPC   C3A60703   7.487   7.752   6.551  0.1053  0.0728  0.2437
 5015POPC   C4A60704   7.163   7.617   6.261  0.2521 -0.0662  0.1716
 5015POPC   C1B60705   7.397   6.925   6.998  0.0956 -0.0910  0.1800
 5015POPC   C2B60706   7.374   7.273   6.689 -0.1538 -0.0456  0.1318
 5015POPC   C3B60707   7.600   7.294   6.295  0.0978 -0.1554  0.1193
 5015POPC   C4B60708   7.444   7.293   5.812 -0.1008 -0.1047 -0.3160
 5016POPC   NC360709   2.669   3.265   7.872 -0.0528  0.1677 -0.1557
 5016POPC   PO460710   2.866   3.581   7.934 -0.1800  0.0515 -0.0292
 5016POPC   GL160711   3.124   3.535   7.513 -0.0730 -0.0381  0.1985
 5016POPC   GL260712   2.862   3.489   7.329  0.1153  0.0521 -0.0957
 5016POPC   C1A60713   3.327   3.881   7.251 -0.2230  0.0895 -0.3766
 5016POPC   D2A60714   3.329   4.149   6.861 -0.2729  0.0483  0.3063
 5016POPC   C3A60715   3.174   3.828   6.545 -0.0006 -0.1886  0.1272
 5016POPC   C4A60716   3.091   3.513   6.210  0.0138  0.0187 -0.4415
 5016POPC   C1B60717   3.042   3.601   6.954  0.0127 -0.0309  0.1774
 5016POPC   C2B60718   3.320   3.332   6.641 -0.0626  0.1074  0.1701
 5016POPC   C3B60719   3.519   3.123   6.234  0.1291  0.1152 -0.1791
 5016POPC   C4B60720   3.840   3.168   5.900 -0.0714  0.0658 -0.0962
 5017POPC   NC360721  13.040   4.472   7.565 -0.2073  0.3187 -0.1501
 5017POPC   PO460722  12.848   4.843   7.597 -0.0278  0.2935 -0.3259
 5017POPC   GL160723  12.858   4.817   7.226  0.1534 -0.2436 -0.0569
 5017POPC   GL260724  12.846   4.508   7.142 -0.0168  0.0853  0.0213
 5017POPC   C1A60725  12.588   4.949   6.860  0.0846 -0.0379  0.0207
 5017POPC   D2A60726  12.535   4.960   6.380  0.0434  0.1730  0.0424
 5017POPC   C3A60727  12.411   5.298   6.127  0.0287 -0.1976  0.0493
 5017POPC   C4A60728  12.434   5.612   5.824  0.1840  0.1181  0.0657
 5017POPC   C1B60729  12.781   4.538   6.667 -0.0480 -0.1910  0.1379
 5017POPC   C2B60730  12.900   4.530   6.280  0.2047 -0.2921  0.1072
 5017POPC   C3B60731  13.059   4.181   5.967  0.4161  0.0855 -0.1249
 5017POPC   C4B60732  13.446   3.955   5.858 -0.0266  0.1815 -0.1617
 5018POPC   NC360733  10.269   0.455   7.900  0.1333 -0.0890 -0.3266
 5018POPC   PO460734  10.573   0.199   7.945  0.2331 -0.2455  0.1247
 5018POPC   GL160735  10.702   0.097   7.606 -0.0016 -0.3673  0.0392
 5018POPC   GL260736  10.625   0.314   7.421  0.3299  0.1648 -0.0027
 5018POPC   C1A60737  10.874  -0.247   7.304 -0.0379  0.1181  0.1788
 5018POPC   D2A60738  10.767  -0.623   7.079 -0.0981  0.0107  0.0686
 5018POPC   C3A60739  10.623  -0.628   6.665  0.0884 -0.1483 -0.0859
 5018POPC   C4A60740  10.509  -0.865   6.325 -0.0140 -0.1672  0.1235
 5018POPC   C1B60741  10.681   0.449   6.984 -0.1854 -0.1100 -0.2795
 5018POPC   C2B60742  10.689   0.299   6.496  0.0758 -0.3049  0.2632
 5018POPC   C3B60743  10.265   0.180   6.346 -0.0660 -0.3109 -0.0399
 5018POPC   C4B60744   9.963   0.415   6.094 -0.1137  0.1047 -0.1198
 5019POPC   NC360745   1.059   5.330   7.980  0.0194  0.2306  0.2420
 5019POPC   PO460746   1.154   5.697   7.898 -0.1399 -0.2631 -0.0985
 5019POPC   GL160747   0.994   5.636   7.615 -0.2119  0.1837 -0.2536
 5019POPC   GL260748   0.745   5.789   7.558  0.0980 -0.0051  0.1615
 5019POPC   C1A60749   1.259   5.448   7.248  0.0523  0.0551 -0.0224
 5019POPC   D2A60750   1.520   5.347   6.896 -0.3490  0.2298  0.2244
 5019POPC   C3A60751   1.973   5.317   6.973  0.1248 -0.0131  0.1985
 5019POPC   C4A60752   2.378   5.265   6.817 -0.4913  0.0255  0.3933
 5019POPC   C1B60753   0.720   5.460   7.196  0.0314 -0.2390 -0.1574
 5019POPC   C2B60754   0.937   5.429   6.836  0.0244  0.2280 -0.0959
 5019POPC   C3B60755   1.179   5.066   6.599  0.3385 -0.0899  0.0085
 5019POPC   C4B60756   1.667   5.127   6.424  0.1684 -0.2516  0.0058
 5020POPC   NC360757  26.351   1.066   8.090 -0.1197  0.2830 -0.0161
 5020POPC   PO460758  26.678   1.210   7.994 -0.0816 -0.0395 -0.0124
 5020POPC   GL160759  26.572   1.172   7.529 -0.0887  0.0350 -0.3133
 5020POPC   GL260760  26.769   1.311   7.320 -0.2036  0.0344 -0.3281
 5020POPC   C1A60761  26.289   1.044   7.195  0.1371 -0.2582 -0.0314
 5020POPC   D2A60762  26.194   1.184   6.759  0.0756 -0.0580 -0.0936
 5020POPC   C3A60763  26.039   0.870   6.461  0.0953 -0.0750  0.3281
 5020POPC   C4A60764  26.161   0.693   6.009 -0.0530 -0.1080  0.0308
 5020POPC   C1B60765  26.575   1.435   6.920 -0.2578 -0.0153  0.0429
 5020POPC   C2B60766  26.572   1.699   6.539  0.2814 -0.2044  0.0759
 5020POPC   C3B60767  26.723   1.415   6.140 -0.2012  0.1248  0.1346
 5020POPC   C4B60768  26.607   1.404   5.684  0.2573  0.0266  0.1860
 5021POPC   NC360769  22.417  31.521   7.572  0.1225  0.1996 -0.1216
 5021POPC   PO460770  22.235  31.167   7.482  0.3974  0.2392 -0.0496
 5021POPC   GL160771  22.245  31.262   7.054 -0.1395  0.4970 -0.1199
 5021POPC   GL260772  22.444  31.054   7.017  0.2646 -0.2778  0.2539
 5021POPC   C1A60773  22.156  31.517   6.661 -0.1431  0.0075  0.0023
 5021POPC   D2A60774  22.213  31.386   6.149 -0.1064  0.0347 -0.1280
 5021POPC   C3A60775  22.052  31.022   5.846 -0.3687  0.0523  0.1926
 5021POPC   C4A60776  21.927  30.559   5.735 -0.2235 -0.4832  0.0085
 5021POPC   C1B60777  22.509  31.208   6.582 -0.4112 -0.4310  0.4281
 5021POPC   C2B60778  22.485  30.928   6.188 -0.2694  0.0576  0.0356
 5021POPC   C3B60779  22.498  30.916   5.725 -0.1582 -0.0987  0.2228
 5021POPC   C4B60780  22.507  31.082   5.321  0.0741  0.0203 -0.1427
 5022POPC   NC360781   4.360  17.387   7.846 -0.3015  0.0120  0.1591
 5022POPC   PO460782   4.026  17.452   7.658  0.1930 -0.2529  0.1253
 5022POPC   GL160783   4.085  17.579   7.291  0.1753 -0.0909 -0.0830
 5022POPC   GL260784   3.905  17.775   7.221 -0.0179 -0.0486 -0.0686
 5022POPC   C1A60785   3.980  17.385   6.922  0.5772  0.1387  0.1669
 5022POPC   D2A60786   3.887  17.165   6.499 -0.0592  0.1286 -0.3195
 5022POPC   C3A60787   3.821  17.347   6.089  0.2781  0.0177 -0.1842
 5022POPC   C4A60788   3.825  17.554   5.689  0.0769 -0.2211  0.0404
 5022POPC   C1B60789   4.134  17.881   6.860  0.3866 -0.0189 -0.0995
 5022POPC   C2B60790   4.094  18.094   6.416 -0.0702  0.2334 -0.0784
 5022POPC   C3B60791   3.791  18.324   6.126  0.2466  0.3426 -0.5063
 5022POPC   C4B60792   3.482  18.545   5.936 -0.4271  0.1013  0.0362
 5023POPC   NC360793   2.600  30.859   7.445 -0.0132 -0.0481  0.0345
 5023POPC   PO460794   2.959  30.975   7.545 -0.0044  0.0734  0.3256
 5023POPC   GL160795   2.775  31.297   7.256  0.1127  0.1470 -0.1129
 5023POPC   GL260796   2.513  31.452   7.274 -0.3293  0.1720  0.1641
 5023POPC   C1A60797   2.949  31.502   6.931  0.1408  0.3010  0.0393
 5023POPC   D2A60798   3.329  31.616   6.661  0.1984  0.0187  0.2451
 5023POPC   C3A60799   3.331  31.865   6.258 -0.0210  0.1777 -0.2038
 5023POPC   C4A60800   3.532  31.962   5.809 -0.1300  0.0828 -0.1668
 5023POPC   C1B60801   2.477  31.461   6.828  0.2194 -0.0179 -0.4655
 5023POPC   C2B60802   2.433  31.418   6.344 -0.0824 -0.0112  0.0186
 5023POPC   C3B60803   2.633  31.580   5.997 -0.0897 -0.2459 -0.1641
 5023POPC   C4B60804   2.656  31.459   5.528  0.2270  0.1543  0.2869
 5024POPC   NC360805  23.082   3.793   7.922 -0.0422  0.0913 -0.2893
 5024POPC   PO460806  22.944   3.600   7.679 -0.0786  0.2582  0.0802
 5024POPC   GL160807  23.034   3.343   7.397  0.0200 -0.1171  0.0307
 5024POPC   GL260808  23.067   3.545   7.168 -0.0811  0.2540 -0.2227
 5024POPC   C1A60809  23.344   3.134   7.124  0.0500  0.0387  0.0966
 5024POPC   D2A60810  23.632   2.829   6.818 -0.1476  0.3930  0.1830
 5024POPC   C3A60811  23.644   2.880   6.391  0.0288  0.3840  0.6311
 5024POPC   C4A60812  23.609   2.689   5.902 -0.3818 -0.1018  0.0976
 5024POPC   C1B60813  23.110   3.507   6.737  0.2843 -0.1757  0.1942
 5024POPC   C2B60814  23.344   3.391   6.315 -0.2787 -0.1805 -0.1076
 5024POPC   C3B60815  23.497   3.221   5.887  0.0184  0.0758  0.0192
 5024POPC   C4B60816  23.469   3.033   5.495 -0.0528  0.0093  0.0865
 5025POPC   NC360817  11.418  10.129   8.202  0.2500  0.1704 -0.2481
 5025POPC   PO460818  11.142   9.973   7.956 -0.2037 -0.1478 -0.0711
 5025POPC   GL160819  11.165   9.882   7.574  0.0233 -0.0027  0.0579
 5025POPC   GL260820  10.866   9.909   7.501 -0.0538  0.0565 -0.0669
 5025POPC   C1A60821  11.284  10.017   7.133  0.1542  0.2067 -0.3381
 5025POPC   D2A60822  11.374   9.861   6.685  0.0417 -0.1855 -0.2176
 5025POPC   C3A60823  11.235   9.919   6.255 -0.0223 -0.1757 -0.2221
 5025POPC   C4A60824  11.223  10.112   5.804 -0.1970 -0.1368 -0.1336
 5025POPC   C1B60825  10.925  10.352   7.330 -0.3776  0.2091  0.1780
 5025POPC   C2B60826  10.961  10.690   6.959 -0.2090  0.0982 -0.2892
 5025POPC   C3B60827  10.882  10.961   6.622  0.2336  0.0832 -0.0575
 5025POPC   C4B60828  10.469  11.083   6.435 -0.1424 -0.0363  0.2773
 5026POPC   NC360829  29.155  28.421   7.226 -0.1507 -0.1592  0.0633
 5026POPC   PO460830  28.975  28.767   7.294  0.0417 -0.2486  0.2405
 5026POPC   GL160831  28.980  28.738   6.924 -0.2518 -0.0917  0.0575
 5026POPC   GL260832  28.943  28.482   6.761  0.0422  0.3805 -0.4022
 5026POPC   C1A60833  28.830  28.827   6.489 -0.0311 -0.1194  0.2675
 5026POPC   D2A60834  28.698  28.574   6.172  0.3900  0.0316 -0.2825
 5026POPC   C3A60835  29.052  28.500   5.924 -0.3547  0.2930 -0.0205
 5026POPC   C4A60836  29.417  28.303   5.613 -0.1590  0.0390 -0.1561
 5026POPC   C1B60837  29.201  28.232   6.439 -0.0778 -0.1657  0.0341
 5026POPC   C2B60838  29.523  28.120   6.125 -0.0136 -0.1457 -0.5414
 5026POPC   C3B60839  29.742  27.772   5.921 -0.0594  0.1784  0.0905
 5026POPC   C4B60840  30.003  27.684   5.570 -0.1035  0.2963  0.1360
 5027POPC   NC360841  30.717   3.048   7.482 -0.0835  0.1137 -0.0677
 5027POPC   PO460842  30.503   2.755   7.642 -0.1913  0.2945 -0.0802
 5027POPC   GL160843  30.748   2.561   7.380 -0.2461 -0.1056 -0.1019
 5027POPC   GL260844  30.605   2.340   7.194 -0.0893  0.2676 -0.1010
 5027POPC   C1A60845  30.962   2.767   6.982  0.2141 -0.0087 -0.0979
 5027POPC   D2A60846  31.350   2.670   6.729  0.6093 -0.0114 -0.1001
 5027POPC   C3A60847  31.372   2.726   6.241  0.2678 -0.0869 -0.1547
 5027POPC   C4A60848  31.291   2.571   5.811  0.0707 -0.0757 -0.2521
 5027POPC   C1B60849  30.397   2.523   6.755  0.0233  0.1190 -0.2100
 5027POPC   C2B60850  29.982   2.367   6.503 -0.0683 -0.0579 -0.0544
 5027POPC   C3B60851  29.767   2.040   6.407 -0.0418 -0.1256 -0.2618
 5027POPC   C4B60852  29.496   1.701   6.317  0.1230  0.2365 -0.0997
 5028POPC   NC360853  18.027  29.286   7.676 -0.0077  0.1454  0.0469
 5028POPC   PO460854  17.982  29.677   7.793  0.4127  0.0362  0.2199
 5028POPC   GL160855  18.132  29.926   7.437 -0.0381 -0.4042  0.0053
 5028POPC   GL260856  17.941  29.782   7.250  0.2066 -0.4509 -0.0028
 5028POPC   C1A60857  18.239  30.147   7.037  0.2730  0.1105  0.0750
 5028POPC   D2A60858  18.182  30.232   6.610  0.0072 -0.1424  0.2605
 5028POPC   C3A60859  18.091  29.964   6.237  0.1701  0.1287 -0.2151
 5028POPC   C4A60860  18.356  29.841   5.884 -0.0218  0.0875 -0.2415
 5028POPC   C1B60861  17.891  29.826   6.804 -0.1030 -0.2835 -0.2784
 5028POPC   C2B60862  17.643  29.789   6.390 -0.0373  0.2715  0.1159
 5028POPC   C3B60863  17.515  29.873   5.935 -0.1192  0.2410 -0.0188
 5028POPC   C4B60864  17.205  30.008   5.685  0.2166  0.1493 -0.1208
 5029POPC   NC360865   5.164  28.354   7.839 -0.2297  0.1139  0.1587
 5029POPC   PO460866   5.496  28.321   7.637  0.3785 -0.0688  0.4414
 5029POPC   GL160867   5.511  28.089   7.258 -0.3358  0.0088  0.1279
 5029POPC   GL260868   5.577  28.358   7.104 -0.0509 -0.1036 -0.3001
 5029POPC   C1A60869   5.191  27.942   6.941 -0.3361  0.1264  0.1559
 5029POPC   D2A60870   5.023  27.881   6.526  0.2323 -0.0408  0.3274
 5029POPC   C3A60871   5.008  28.256   6.278  0.0601  0.0565 -0.2786
 5029POPC   C4A60872   5.132  28.490   5.864 -0.1221 -0.2743  0.0790
 5029POPC   C1B60873   5.603  28.378   6.708 -0.0970 -0.1320 -0.1703
 5029POPC   C2B60874   5.496  28.332   6.260 -0.1369 -0.3337 -0.0863
 5029POPC   C3B60875   5.644  28.426   5.834 -0.0279 -0.0566 -0.1185
 5029POPC   C4B60876   5.519  28.563   5.381 -0.1236  0.2367 -0.1564
 5030POPC   NC360877  19.087  30.583   7.543  0.0308  0.1636 -0.2298
 5030POPC   PO460878  19.052  30.939   7.780 -0.1056  0.0686 -0.1227
 5030POPC   GL160879  19.235  31.095   7.410  0.2882  0.2942 -0.1819
 5030POPC   GL260880  19.431  30.907   7.344  0.1792  0.3415 -0.2200
 5030POPC   C1A60881  19.124  31.107   6.965 -0.1724 -0.1216 -0.2419
 5030POPC   D2A60882  18.767  30.986   6.705  0.0258 -0.0435  0.0570
 5030POPC   C3A60883  18.792  31.148   6.306 -0.0119 -0.0148 -0.0082
 5030POPC   C4A60884  19.032  31.490   6.115 -0.1378 -0.1285  0.0836
 5030POPC   C1B60885  19.249  30.627   7.005  0.2346 -0.1783 -0.1237
 5030POPC   C2B60886  19.218  30.775   6.593 -0.0748 -0.2455  0.0725
 5030POPC   C3B60887  19.212  30.889   6.149  0.0659 -0.2287 -0.1277
 5030POPC   C4B60888  18.968  31.031   5.844  0.0159 -0.2642  0.1561
 5031POPC   NC360889  20.250   5.643   8.221  0.0393 -0.1221  0.1994
 5031POPC   PO460890  20.218   5.385   7.904 -0.1079  0.0701 -0.0113
 5031POPC   GL160891  20.115   5.613   7.599 -0.1235  0.2986  0.6894
 5031POPC   GL260892  20.107   5.398   7.424  0.1437  0.4148 -0.0223
 5031POPC   C1A60893  19.900   5.755   7.170 -0.1616 -0.2107 -0.1042
 5031POPC   D2A60894  20.076   5.944   6.793  0.0844 -0.0002  0.0579
 5031POPC   C3A60895  20.148   5.714   6.407  0.0628 -0.1249 -0.0054
 5031POPC   C4A60896  20.307   5.592   5.934 -0.0986  0.1388 -0.0445
 5031POPC   C1B60897  20.309   5.100   7.175 -0.2978 -0.1187  0.0413
 5031POPC   C2B60898  20.010   4.780   7.039  0.2190  0.3734  0.0912
 5031POPC   C3B60899  19.856   4.569   6.700 -0.0731  0.2929  0.2717
 5031POPC   C4B60900  19.508   4.371   6.464  0.1364 -0.0153 -0.1154
 5032POPC   NC360901  23.679  10.189   7.843  0.1769 -0.0931 -0.1560
 5032POPC   PO460902  23.512   9.803   7.867  0.2312  0.0274  0.0323
 5032POPC   GL160903  23.726   9.738   7.497  0.1208 -0.2968 -0.1529
 5032POPC   GL260904  23.806  10.049   7.328 -0.1315  0.1754  0.0275
 5032POPC   C1A60905  23.560   9.693   7.058 -0.1492 -0.0403 -0.0370
 5032POPC   D2A60906  23.739   9.366   6.785 -0.1480  0.2469  0.1350
 5032POPC   C3A60907  23.778   9.303   6.310 -0.2092 -0.1015  0.1181
 5032POPC   C4A60908  23.362   9.236   6.070 -0.0722 -0.2625  0.0253
 5032POPC   C1B60909  23.701  10.317   6.970  0.4317 -0.0765  0.1016
 5032POPC   C2B60910  23.939  10.320   6.539  0.1351  0.0784 -0.0360
 5032POPC   C3B60911  24.131  10.566   6.139  0.2551  0.0136 -0.2455
 5032POPC   C4B60912  23.981  10.859   5.803 -0.3463  0.0295  0.2123
 5033POPC   NC360913   3.554   2.521   8.055 -0.0418 -0.1392 -0.0809
 5033POPC   PO460914   3.192   2.331   7.907  0.0737  0.1311 -0.2320
 5033POPC   GL160915   3.052   2.195   7.616 -0.5779  0.2606 -0.2351
 5033POPC   GL260916   2.780   2.264   7.571 -0.0372  0.1871  0.0925
 5033POPC   C1A60917   3.081   2.435   7.232  0.0503  0.0529 -0.0864
 5033POPC   D2A60918   2.917   2.604   6.828  0.0222 -0.0418  0.2757
 5033POPC   C3A60919   3.011   2.412   6.353  0.5508  0.1568  0.0410
 5033POPC   C4A60920   3.011   2.060   6.122  0.1369 -0.0595 -0.0541
 5033POPC   C1B60921   2.603   2.528   7.346  0.0221 -0.2053  0.2017
 5033POPC   C2B60922   2.399   2.716   7.017 -0.0293  0.2772 -0.0303
 5033POPC   C3B60923   2.276   3.004   6.716 -0.1816  0.1048  0.4118
 5033POPC   C4B60924   1.908   3.071   6.434 -0.1458 -0.1855 -0.2239
 5034POPC   NC360925   0.419  15.985   7.789 -0.2157 -0.2103 -0.1025
 5034POPC   PO460926   0.358  16.387   7.802 -0.2267  0.2079  0.0233
 5034POPC   GL160927   0.192  16.431   7.384  0.0969  0.2175 -0.1421
 5034POPC   GL260928   0.064  16.673   7.377  0.0487  0.2573  0.1073
 5034POPC   C1A60929   0.397  16.596   7.010 -0.3668  0.1400 -0.1057
 5034POPC   D2A60930   0.859  16.645   6.871  0.0521 -0.2019  0.0562
 5034POPC   C3A60931   0.881  16.719   6.424 -0.1625 -0.0126 -0.2801
 5034POPC   C4A60932   0.736  16.671   5.996  0.0927 -0.0110  0.0712
 5034POPC   C1B60933  -0.195  16.534   7.034  0.0854 -0.0273 -0.0162
 5034POPC   C2B60934  -0.407  16.285   6.790 -0.0209  0.2820 -0.0730
 5034POPC   C3B60935  -0.532  16.071   6.454 -0.0928 -0.1337  0.2573
 5034POPC   C4B60936  -0.581  16.100   6.007  0.2308 -0.0073 -0.1557
 5035POPC   NC360937  12.084  20.107   7.429 -0.1480  0.0264 -0.1950
 5035POPC   PO460938  12.134  19.721   7.487 -0.0798 -0.0472 -0.0946
 5035POPC   GL160939  12.277  19.802   7.129 -0.3630  0.1966  0.2225
 5035POPC   GL260940  12.041  19.677   6.973 -0.1912 -0.3183 -0.2873
 5035POPC   C1A60941  12.476  19.730   6.723  0.0744  0.0930  0.1229
 5035POPC   D2A60942  12.834  19.901   6.430  0.1146  0.0537 -0.0121
 5035POPC   C3A60943  12.890  20.128   6.072  0.2183 -0.1373  0.3124
 5035POPC   C4A60944  12.938  19.972   5.628  0.0367 -0.0190 -0.6365
 5035POPC   C1B60945  12.069  19.609   6.506  0.2415  0.0749  0.1954
 5035POPC   C2B60946  12.410  19.625   6.160  0.2196  0.0277  0.1202
 5035POPC   C3B60947  12.464  20.009   5.894  0.0909 -0.0072  0.0000
 5035POPC   C4B60948  12.491  20.433   6.188  0.3275 -0.1114 -0.0146
 5036POPC   NC360949  11.579  25.623   7.486 -0.0654 -0.0058  0.1104
 5036POPC   PO460950  11.958  25.650   7.447 -0.0148  0.0987 -0.3565
 5036POPC   GL160951  12.023  25.739   7.110  0.2384 -0.1822 -0.3672
 5036POPC   GL260952  12.021  26.045   7.160 -0.1954  0.2237  0.3304
 5036POPC   C1A60953  11.796  25.554   6.751 -0.1575  0.1600  0.2795
 5036POPC   D2A60954  11.582  25.281   6.459 -0.0244 -0.0885 -0.2825
 5036POPC   C3A60955  11.210  25.463   6.207  0.3889 -0.0541  0.1510
 5036POPC   C4A60956  10.968  25.400   5.796 -0.1662  0.1102 -0.2296
 5036POPC   C1B60957  11.993  26.024   6.703  0.1904 -0.0665 -0.0027
 5036POPC   C2B60958  11.740  25.873   6.350  0.0590  0.4399  0.0632
 5036POPC   C3B60959  11.350  25.935   6.081  0.1673  0.3056  0.0354
 5036POPC   C4B60960  11.162  26.024   5.650 -0.0792 -0.0966 -0.1295
 5037POPC   NC360961  16.291   5.851   7.733  0.0275 -0.1150 -0.3207
 5037POPC   PO460962  15.952   5.808   7.693 -0.1106 -0.4197 -0.2525
 5037POPC   GL160963  16.121   5.741   7.288  0.0292  0.0949  0.1746
 5037POPC   GL260964  16.302   5.906   7.225 -0.0507  0.0423 -0.0983
 5037POPC   C1A60965  16.009   5.537   6.920 -0.0018  0.2959  0.0482
 5037POPC   D2A60966  15.963   5.153   6.631  0.1334 -0.0335 -0.1457
 5037POPC   C3A60967  15.979   5.401   6.204  0.1260 -0.1686  0.1848
 5037POPC   C4A60968  16.001   5.723   5.887  0.1350 -0.0877 -0.1058
 5037POPC   C1B60969  16.295   5.969   6.741 -0.1219 -0.2898  0.1391
 5037POPC   C2B60970  16.621   6.195   6.562  0.0759  0.2020  0.2012
 5037POPC   C3B60971  16.813   6.367   6.188 -0.0975 -0.0894 -0.0335
 5037POPC   C4B60972  17.024   6.592   5.750 -0.0604 -0.2565  0.2173
 5038POPC   NC360973  15.784   1.426   8.020  0.0137  0.1529  0.2283
 5038POPC   PO460974  16.101   1.236   8.212  0.0598 -0.1242 -0.3499
 5038POPC   GL160975  16.194   1.191   7.838  0.2320 -0.0161  0.2572
 5038POPC   GL260976  16.239   0.984   7.659  0.0427 -0.1217  0.2790
 5038POPC   C1A60977  16.353   1.496   7.493  0.0129  0.0209  0.3278
 5038POPC   D2A60978  16.418   1.472   7.051 -0.3083 -0.0192  0.1641
 5038POPC   C3A60979  16.357   1.529   6.606 -0.0486  0.0144 -0.0248
 5038POPC   C4A60980  16.270   1.560   6.148 -0.0312 -0.2489  0.0339
 5038POPC   C1B60981  16.235   0.933   7.225 -0.1355  0.1092 -0.1720
 5038POPC   C2B60982  16.024   1.057   6.864 -0.1360  0.3099 -0.2719
 5038POPC   C3B60983  15.816   1.095   6.460 -0.1585  0.2306 -0.1484
 5038POPC   C4B60984  15.565   0.973   6.079  0.2103  0.1785 -0.0367
 5039POPC   NC360985  25.945   6.340   7.510  0.0813 -0.0567  0.4449
 5039POPC   PO460986  25.537   6.419   7.535  0.1252  0.3502  0.0513
 5039POPC   GL160987  25.575   6.385   7.192  0.2041  0.1145 -0.1739
 5039POPC   GL260988  25.818   6.373   7.004  0.1345  0.2038  0.1006
 5039POPC   C1A60989  25.377   6.150   6.794 -0.1770 -0.0375 -0.1482
 5039POPC   D2A60990  25.377   6.039   6.318 -0.1140  0.1592  0.3371
 5039POPC   C3A60991  25.858   6.070   6.229 -0.1766  0.0980  0.0871
 5039POPC   C4A60992  26.249   6.041   5.976  0.3296 -0.1011  0.1175
 5039POPC   C1B60993  25.772   6.351   6.597 -0.1328 -0.0551  0.0585
 5039POPC   C2B60994  25.518   6.481   6.243 -0.0014 -0.1192  0.0715
 5039POPC   C3B60995  25.467   6.355   5.826 -0.0740  0.1210 -0.1352
 5039POPC   C4B60996  25.466   6.379   5.355  0.1463 -0.2563  0.1444
 5040POPC   NC360997  13.420  27.401   7.658  0.1080  0.1425 -0.1081
 5040POPC   PO460998  13.767  27.249   7.600  0.0441 -0.4335 -0.4402
 5040POPC   GL160999  13.661  27.313   7.246  0.1536 -0.2062  0.4423
 5040POPC   GL261000  13.653  27.004   7.180  0.0215 -0.0166 -0.1143
 5040POPC   C1A61001  13.696  27.543   6.777 -0.2308  0.1677 -0.0543
 5040POPC   D2A61002  13.771  27.575   6.305  0.0871  0.1142  0.0508
 5040POPC   C3A61003  13.543  27.420   5.972 -0.0227 -0.0323 -0.1068
 5040POPC   C4A61004  13.429  27.439   5.576 -0.4904  0.0596  0.2224
 5040POPC   C1B61005  13.441  26.755   6.782  0.0353 -0.2454  0.1996
 5040POPC   C2B61006  13.176  26.557   6.479  0.1119 -0.0372 -0.0297
 5040POPC   C3B61007  13.009  26.379   6.098  0.4063  0.1909  0.0895
 5040POPC   C4B61008  12.619  26.268   5.952 -0.2922 -0.0899  0.2955
 5041POPC   NC361009   9.234  11.005   8.266  0.1735  0.2109 -0.2525
 5041POPC   PO461010   9.073  10.694   8.110  0.1109  0.0199 -0.3739
 5041POPC   GL161011   8.891  10.520   7.685  0.0587  0.2670  0.0773
 5041POPC   GL261012   9.008  10.728   7.585  0.0159 -0.1460 -0.2968
 5041POPC   C1A61013   9.161  10.408   7.258 -0.1538  0.2257  0.2304
 5041POPC   D2A61014   9.545  10.567   7.057  0.2096  0.1396 -0.5487
 5041POPC   C3A61015   9.380  10.906   6.829  0.1929  0.0979  0.3283
 5041POPC   C4A61016   9.523  11.276   6.513  0.0427 -0.0789  0.3139
 5041POPC   C1B61017   8.963  10.885   7.144  0.1430 -0.2844 -0.1214
 5041POPC   C2B61018   8.901  11.036   6.693  0.0290  0.0529 -0.0290
 5041POPC   C3B61019   8.741  11.035   6.228 -0.1049 -0.1076  0.0242
 5041POPC   C4B61020   8.768  11.126   5.775 -0.0863  0.2887 -0.0984
 5042POPC   NC361021  14.953  14.353   7.713 -0.1068 -0.1689 -0.0707
 5042POPC   PO461022  15.289  14.223   7.904 -0.0166 -0.0552 -0.2158
 5042POPC   GL161023  15.389  14.205   7.484 -0.1096 -0.2187  0.0004
 5042POPC   GL261024  15.407  14.479   7.395  0.0220  0.2122 -0.0460
 5042POPC   C1A61025  15.445  14.014   7.076 -0.2877 -0.2925 -0.1174
 5042POPC   D2A61026  15.455  13.993   6.574  0.0452  0.2494  0.1257
 5042POPC   C3A61027  15.439  14.161   6.146 -0.0755  0.2136  0.3289
 5042POPC   C4A61028  15.399  13.827   5.812  0.0147  0.0182  0.1687
 5042POPC   C1B61029  15.473  14.525   6.933  0.1701  0.0294 -0.0331
 5042POPC   C2B61030  15.575  14.489   6.488  0.1710  0.0881  0.2080
 5042POPC   C3B61031  15.459  14.831   6.160  0.1752  0.1819 -0.0504
 5042POPC   C4B61032  15.290  14.775   5.711  0.0165 -0.0514  0.1766
 5043POPC   NC361033  18.188   7.373   7.722 -0.0356  0.1505 -0.0473
 5043POPC   PO461034  18.344   7.007   7.859  0.0581 -0.2077  0.0655
 5043POPC   GL161035  18.489   6.994   7.533  0.0606 -0.0757  0.7370
 5043POPC   GL261036  18.730   7.087   7.318  0.4288 -0.0956  0.0732
 5043POPC   C1A61037  18.268   7.079   7.136 -0.0277 -0.1453 -0.0632
 5043POPC   D2A61038  17.914   6.815   7.005  0.2699 -0.0189  0.0345
 5043POPC   C3A61039  17.761   6.944   6.578 -0.0211 -0.0854  0.1784
 5043POPC   C4A61040  17.679   7.282   6.297  0.2207 -0.1207  0.0344
 5043POPC   C1B61041  18.714   6.877   6.905  0.1845 -0.0631 -0.2204
 5043POPC   C2B61042  18.676   7.025   6.504 -0.2349 -0.2839  0.0420
 5043POPC   C3B61043  18.584   6.835   6.061 -0.0193 -0.2682 -0.0393
 5043POPC   C4B61044  18.338   6.925   5.672  0.3696  0.1448 -0.0533
 5044POPC   NC361045   4.467   4.583   7.473  0.1009  0.1838 -0.1442
 5044POPC   PO461046   4.259   4.914   7.594  0.2848 -0.1367  0.1274
 5044POPC   GL161047   4.257   5.002   7.269  0.0849 -0.2391 -0.0630
 5044POPC   GL261048   4.077   4.777   7.115 -0.2860 -0.0169  0.1407
 5044POPC   C1A61049   4.445   5.107   6.888 -0.0131  0.1003  0.2047
 5044POPC   D2A61050   4.691   4.871   6.612 -0.1487 -0.2507  0.0579
 5044POPC   C3A61051   4.562   4.809   6.146 -0.0118  0.0053 -0.0853
 5044POPC   C4A61052   4.684   5.122   5.877  0.1933 -0.1740  0.0371
 5044POPC   C1B61053   4.183   4.802   6.612  0.2405 -0.2487 -0.3393
 5044POPC   C2B61054   3.927   4.954   6.245  0.0088  0.3813  0.0291
 5044POPC   C3B61055   3.713   4.941   5.870  0.1152 -0.2749  0.2549
 5044POPC   C4B61056   3.337   5.169   5.616  0.0765  0.0164  0.0874
 5045POPC   NC361057  21.873  19.813   7.927  0.1858 -0.1365  0.0354
 5045POPC   PO461058  21.821  20.083   7.650  0.0618 -0.2368  0.1193
 5045POPC   GL161059  21.929  20.268   7.295 -0.1982 -0.2178  0.1967
 5045POPC   GL261060  21.749  20.413   7.181 -0.2087  0.0490  0.2168
 5045POPC   C1A61061  22.104  20.109   6.913  0.1187  0.1178  0.2312
 5045POPC   D2A61062  22.109  19.975   6.449  0.0378  0.0116  0.1047
 5045POPC   C3A61063  21.974  19.834   5.997  0.1751  0.1804  0.1102
 5045POPC   C4A61064  21.859  20.053   5.624 -0.1468  0.0654  0.1626
 5045POPC   C1B61065  21.563  20.162   6.884  0.1039 -0.2008 -0.0224
 5045POPC   C2B61066  21.535  20.024   6.434 -0.2440 -0.0465  0.1669
 5045POPC   C3B61067  21.508  19.969   5.975  0.0107  0.0245 -0.1037
 5045POPC   C4B61068  21.433  19.786   5.532  0.1106  0.1007 -0.2325
 5046POPC   NC361069   8.937   0.567   7.917 -0.3687 -0.0606 -0.3818
 5046POPC   PO461070   9.172   0.614   7.639  0.0263  0.1703 -0.0576
 5046POPC   GL161071   9.183   0.573   7.279 -0.0084  0.0520 -0.0442
 5046POPC   GL261072   9.096   0.859   7.244 -0.0473  0.0823 -0.0597
 5046POPC   C1A61073   9.386   0.774   6.860  0.0936  0.1010 -0.4158
 5046POPC   D2A61074   9.529   1.087   6.569 -0.1445  0.3388 -0.2145
 5046POPC   C3A61075   9.283   1.286   6.253 -0.1889 -0.0873 -0.1183
 5046POPC   C4A61076   9.061   1.158   5.844  0.1603  0.1873 -0.1635
 5046POPC   C1B61077   8.969   1.125   6.846  0.3838 -0.3092 -0.1068
 5046POPC   C2B61078   8.809   1.177   6.416  0.1859 -0.0294  0.1414
 5046POPC   C3B61079   8.472   1.318   6.103 -0.2718 -0.1171  0.1726
 5046POPC   C4B61080   8.509   1.255   5.661 -0.5409 -0.1693  0.1195
 5047POPC   NC361081  31.622  22.555   7.897 -0.1414  0.0421 -0.1463
 5047POPC   PO461082  31.579  22.829   7.616  0.4433  0.1001 -0.1981
 5047POPC   GL161083  31.820  22.590   7.469 -0.1600  0.1353  0.0052
 5047POPC   GL261084  31.625  22.366   7.355  0.1542 -0.1520  0.2018
 5047POPC   C1A61085  32.015  22.446   7.039  0.0357  0.4498  0.0074
 5047POPC   D2A61086  31.978  22.239   6.618  0.1198 -0.1666 -0.2643
 5047POPC   C3A61087  32.087  22.431   6.171  0.1456 -0.1250 -0.0706
 5047POPC   C4A61088  31.892  22.225   5.807 -0.0132  0.1427  0.0987
 5047POPC   C1B61089  31.874  21.994   7.184 -0.2454  0.0716  0.0934
 5047POPC   C2B61090  31.959  21.785   6.749  0.0973 -0.2521 -0.1237
 5047POPC   C3B61091  31.871  21.823   6.292  0.2829 -0.1481  0.0576
 5047POPC   C4B61092  31.555  21.726   5.937 -0.2841 -0.5853 -0.2414
 5048POPC   NC361093   3.503   8.563   7.859 -0.5790 -0.1352  0.2673
 5048POPC   PO461094   3.588   8.780   7.560 -0.3217  0.0935  0.3515
 5048POPC   GL161095   3.789   8.519   7.304 -0.0924 -0.3705  0.3962
 5048POPC   GL261096   3.830   8.268   7.429 -0.2398 -0.0703 -0.0248
 5048POPC   C1A61097   4.230   8.631   7.276 -0.1124  0.0661  0.2134
 5048POPC   D2A61098   4.657   8.832   7.318  0.2511 -0.0492  0.1299
 5048POPC   C3A61099   5.066   8.645   7.196 -0.1030 -0.2863  0.0596
 5048POPC   C4A61100   5.517   8.646   7.349  0.0348 -0.0959  0.3690
 5048POPC   C1B61101   3.744   8.083   7.050 -0.2070  0.3962 -0.1779
 5048POPC   C2B61102   3.752   8.182   6.694 -0.1503 -0.1197  0.4557
 5048POPC   C3B61103   3.840   8.272   6.297  0.1445  0.1346 -0.2637
 5048POPC   C4B61104   4.178   8.467   6.076 -0.0795  0.1154  0.0879
 5049POPC   NC361105   9.410  27.514   8.231 -0.2517 -0.2149  0.0263
 5049POPC   PO461106   9.337  27.862   8.027 -0.2179 -0.1844 -0.0234
 5049POPC   GL161107   9.506  28.082   7.741 -0.3936  0.3452  0.3126
 5049POPC   GL261108   9.349  28.043   7.467 -0.0342  0.0043 -0.0513
 5049POPC   C1A61109   9.792  27.958   7.362 -0.1238  0.0063  0.4183
 5049POPC   D2A61110  10.186  28.085   7.127 -0.1272 -0.1856  0.2359
 5049POPC   C3A61111  10.259  27.977   6.644  0.4058  0.1623  0.0466
 5049POPC   C4A61112  10.070  27.996   6.254  0.0388  0.3144  0.2725
 5049POPC   C1B61113   9.303  28.082   7.016  0.0576  0.1194  0.1930
 5049POPC   C2B61114   9.118  28.009   6.620  0.1900  0.1357 -0.0102
 5049POPC   C3B61115   8.915  27.864   6.209 -0.0959 -0.2030 -0.0902
 5049POPC   C4B61116   9.026  27.738   5.810 -0.2241  0.0359  0.1307
 5050POPC   NC361117  27.890  14.996   7.763  0.1084 -0.0187 -0.1549
 5050POPC   PO461118  27.892  14.603   7.815 -0.0954 -0.0846 -0.1361
 5050POPC   GL161119  27.928  14.310   7.676 -0.0232  0.1945  0.0574
 5050POPC   GL261120  27.927  14.357   7.375 -0.2989 -0.1791  0.3529
 5050POPC   C1A61121  28.368  14.171   7.532  0.0375 -0.1381  0.0666
 5050POPC   D2A61122  28.715  13.890   7.382 -0.0941  0.2888 -0.2136
 5050POPC   C3A61123  28.735  13.698   6.951  0.3685  0.0508 -0.0085
 5050POPC   C4A61124  29.174  13.730   6.764 -0.2034 -0.0448  0.0572
 5050POPC   C1B61125  27.951  14.386   6.896 -0.4047 -0.0058  0.0084
 5050POPC   C2B61126  27.953  14.497   6.415 -0.1261  0.2364  0.0762
 5050POPC   C3B61127  27.697  14.288   6.068  0.0212  0.0579  0.0018
 5050POPC   C4B61128  27.860  14.317   5.548 -0.0542  0.0648 -0.3872
 5051POPC   NC361129  28.720   4.575   7.775  0.3289 -0.2797  0.2670
 5051POPC   PO461130  29.031   4.556   7.561 -0.2733 -0.2007 -0.0891
 5051POPC   GL161131  28.925   4.563   7.282  0.0254 -0.3284  0.2728
 5051POPC   GL261132  28.655   4.538   7.232  0.0280  0.2099 -0.1658
 5051POPC   C1A61133  29.178   4.498   6.918  0.2465 -0.0287 -0.3406
 5051POPC   D2A61134  29.155   4.504   6.462 -0.1003 -0.1654 -0.2098
 5051POPC   C3A61135  28.933   4.855   6.222 -0.0199  0.0400  0.2396
 5051POPC   C4A61136  28.736   4.834   5.849  0.2286 -0.1784  0.3314
 5051POPC   C1B61137  28.689   4.527   6.805 -0.0263  0.2114 -0.0013
 5051POPC   C2B61138  28.452   4.318   6.476 -0.3032 -0.3949  0.2655
 5051POPC   C3B61139  28.266   4.036   6.198 -0.1843  0.2996  0.0442
 5051POPC   C4B61140  28.312   3.712   5.917 -0.0480  0.0237 -0.0922
 5052POPC   NC361141  24.496  11.432   7.744  0.1173  0.2844  0.4865
 5052POPC   PO461142  24.614  11.062   7.801 -0.2442  0.0734  0.0386
 5052POPC   GL161143  24.580  11.014   7.456 -0.1029 -0.3105 -0.2613
 5052POPC   GL261144  24.276  11.125   7.457 -0.1436 -0.1009 -0.1103
 5052POPC   C1A61145  24.818  10.988   7.053  0.2529  0.0134 -0.3720
 5052POPC   D2A61146  25.220  11.052   6.757  0.1320  0.2566  0.0742
 5052POPC   C3A61147  25.202  11.132   6.252 -0.2352  0.0238  0.5136
 5052POPC   C4A61148  25.210  11.345   5.800  0.0378 -0.0931 -0.0971
 5052POPC   C1B61149  24.294  10.806   7.118  0.3931 -0.0048  0.3676
 5052POPC   C2B61150  24.245  10.793   6.653 -0.0215  0.1352  0.0957
 5052POPC   C3B61151  23.926  10.897   6.473  0.4563  0.2659  0.1872
 5052POPC   C4B61152  23.567  10.606   6.343 -0.2754  0.2069  0.0205
 5053POPC   NC361153  21.272   4.770   7.528 -0.0846  0.0785  0.3750
 5053POPC   PO461154  21.198   4.420   7.720  0.3445 -0.0121 -0.1555
 5053POPC   GL161155  21.329   4.364   7.377  0.0368  0.2467  0.3808
 5053POPC   GL261156  21.150   4.503   7.122  0.0559 -0.0412 -0.1315
 5053POPC   C1A61157  21.623   4.604   7.169 -0.0658 -0.0163  0.0384
 5053POPC   D2A61158  21.749   4.736   6.698  0.1054  0.0521  0.2391
 5053POPC   C3A61159  22.029   4.604   6.306 -0.1459  0.0829  0.3501
 5053POPC   C4A61160  22.394   4.545   6.035 -0.2053 -0.2653  0.2188
 5053POPC   C1B61161  21.360   4.252   6.749 -0.0430  0.0909  0.0285
 5053POPC   C2B61162  21.843   4.198   6.570  0.4637 -0.0583  0.2225
 5053POPC   C3B61163  21.762   4.093   6.134 -0.0226  0.1044  0.1697
 5053POPC   C4B61164  21.607   4.101   5.696 -0.1745 -0.0978 -0.0398
 5054POPC   NC361165  26.236   7.129   8.458  0.1774 -0.2778 -0.1501
 5054POPC   PO461166  26.329   7.096   8.091 -0.0084  0.1225  0.0573
 5054POPC   GL161167  26.365   7.276   7.670  0.1430 -0.0724 -0.1994
 5054POPC   GL261168  26.243   7.051   7.557 -0.3709  0.1525  0.2224
 5054POPC   C1A61169  26.111   7.532   7.383 -0.3472 -0.0810 -0.0480
 5054POPC   D2A61170  26.164   7.677   6.983 -0.0384 -0.2972  0.0897
 5054POPC   C3A61171  25.802   7.715   6.730  0.0291 -0.0347  0.1043
 5054POPC   C4A61172  25.498   8.033   6.482 -0.1161  0.0762 -0.2854
 5054POPC   C1B61173  26.347   7.125   7.157 -0.0186 -0.2176  0.3134
 5054POPC   C2B61174  26.635   7.391   6.864 -0.0797 -0.1579 -0.0886
 5054POPC   C3B61175  26.626   7.384   6.374  0.1777 -0.1652 -0.2250
 5054POPC   C4B61176  26.616   7.498   5.885 -0.0799  0.2285 -0.1142
 5055POPC   NC361177   0.296  17.128   7.285  0.0431  0.2052  0.2711
 5055POPC   PO461178   0.229  17.514   7.346  0.3009  0.3473 -0.5242
 5055POPC   GL161179   0.168  17.674   6.954 -0.2219  0.2421  0.1881
 5055POPC   GL261180   0.435  17.605   6.873  0.0756  0.1190  0.0956
 5055POPC   C1A61181  -0.204  17.732   6.741  0.1356  0.0264  0.0493
 5055POPC   D2A61182  -0.570  17.886   6.565 -0.1611 -0.0799 -0.0185
 5055POPC   C3A61183  -0.995  18.016   6.693 -0.0515  0.3897  0.3768
 5055POPC   C4A61184  -1.087  18.389   6.798 -0.1213 -0.0960 -0.0220
 5055POPC   C1B61185   0.584  17.516   6.417  0.0114 -0.1442  0.0961
 5055POPC   C2B61186   0.769  17.571   6.005  0.1732 -0.1925 -0.0570
 5055POPC   C3B61187   1.073  17.562   5.762 -0.5730 -0.0880  0.0499
 5055POPC   C4B61188   1.455  17.793   5.804 -0.0150 -0.2902 -0.0465
 5056POPC   NC361189   7.367   5.854   7.795 -0.1683 -0.4907  0.1589
 5056POPC   PO461190   7.585   5.872   7.470 -0.1333 -0.1234  0.1493
 5056POPC   GL161191   7.717   6.211   7.168  0.0511 -0.0181 -0.2342
 5056POPC   GL261192   7.809   6.045   6.916  0.1899  0.2003 -0.1198
 5056POPC   C1A61193   7.690   6.524   6.871  0.0207  0.1027  0.0550
 5056POPC   D2A61194   7.444   6.638   6.534 -0.1047  0.0106 -0.0332
 5056POPC   C3A61195   7.589   6.674   6.090 -0.1714 -0.0840 -0.3909
 5056POPC   C4A61196   7.899   6.586   5.775  0.1247  0.2682  0.0886
 5056POPC   C1B61197   7.796   6.219   6.471  0.2348  0.1436 -0.0872
 5056POPC   C2B61198   7.377   6.193   6.338 -0.3513 -0.2816 -0.0371
 5056POPC   C3B61199   7.200   6.439   5.995  0.0764  0.0103 -0.0889
 5056POPC   C4B61200   6.887   6.329   5.697  0.0044 -0.1831  0.0893
 5057POPC   NC361201   5.698  14.155   8.252  0.1723  0.2039  0.1649
 5057POPC   PO461202   5.706  13.806   8.112  0.3061  0.0463  0.2688
 5057POPC   GL161203   5.495  13.935   7.781  0.1318  0.2163 -0.1854
 5057POPC   GL261204   5.374  13.735   7.613 -0.2892  0.1338 -0.1335
 5057POPC   C1A61205   5.577  14.076   7.323 -0.2266 -0.0556 -0.0974
 5057POPC   D2A61206   5.858  14.191   6.944 -0.0108 -0.0696 -0.1376
 5057POPC   C3A61207   5.693  14.000   6.537  0.2977 -0.0454 -0.1486
 5057POPC   C4A61208   5.604  14.017   6.033 -0.1007 -0.1874 -0.0465
 5057POPC   C1B61209   5.051  13.726   7.273  0.1354  0.1674 -0.2970
 5057POPC   C2B61210   4.752  13.863   6.909  0.0381  0.1992 -0.0158
 5057POPC   C3B61211   4.667  13.956   6.488 -0.1187  0.2578 -0.4195
 5057POPC   C4B61212   4.700  14.134   6.110 -0.5746  0.0278 -0.1370
 5058POPC   NC361213  19.659  28.107   8.391  0.1336  0.2788  0.0830
 5058POPC   PO461214  19.884  27.924   8.072  0.0601  0.0053 -0.0155
 5058POPC   GL161215  20.123  27.702   7.728  0.2987 -0.0241  0.0352
 5058POPC   GL261216  20.414  27.657   7.645  0.0022 -0.3437 -0.1860
 5058POPC   C1A61217  20.002  27.679   7.283  0.2685 -0.0601  0.0089
 5058POPC   D2A61218  20.173  27.738   6.834  0.0287  0.1689 -0.0638
 5058POPC   C3A61219  20.238  28.162   6.695 -0.0420 -0.1680 -0.0387
 5058POPC   C4A61220  20.349  28.407   6.368  0.0703 -0.0996 -0.3268
 5058POPC   C1B61221  20.739  27.781   7.328  0.1921 -0.2265  0.3418
 5058POPC   C2B61222  20.579  27.971   6.947  0.0812 -0.0266 -0.0016
 5058POPC   C3B61223  20.675  28.005   6.493  0.2095  0.5771 -0.1127
 5058POPC   C4B61224  20.594  27.980   6.046  0.0662  0.2076 -0.0014
 5059POPC   NC361225   6.391   2.926   7.439 -0.1374  0.0208  0.1742
 5059POPC   PO461226   6.276   2.589   7.625 -0.0812  0.2170  0.2028
 5059POPC   GL161227   5.936   2.449   7.476 -0.2591 -0.1772  0.0090
 5059POPC   GL261228   5.771   2.632   7.557  0.2437  0.0259  0.1418
 5059POPC   C1A61229   5.702   2.394   7.070 -0.1899  0.1113 -0.3785
 5059POPC   D2A61230   5.828   2.622   6.708  0.0546  0.4790 -0.0720
 5059POPC   C3A61231   5.670   2.460   6.315  0.0926  0.1645  0.0609
 5059POPC   C4A61232   5.275   2.247   6.162  0.1038  0.0456 -0.1304
 5059POPC   C1B61233   5.555   2.866   7.275 -0.1080 -0.1946  0.0028
 5059POPC   C2B61234   5.360   2.707   6.937 -0.0556 -0.1401  0.1783
 5059POPC   C3B61235   5.302   2.713   6.523  0.1618  0.3634 -0.2722
 5059POPC   C4B61236   5.013   2.656   6.216 -0.1827 -0.2779  0.2201
 5060POPC   NC361237   9.624  24.770   8.254 -0.0540 -0.1533  0.0447
 5060POPC   PO461238   9.882  24.812   7.937  0.1792 -0.1004  0.0536
 5060POPC   GL161239   9.741  25.062   7.642 -0.0495 -0.0992 -0.2215
 5060POPC   GL261240   9.762  24.799   7.451 -0.0578 -0.1713  0.1873
 5060POPC   C1A61241   9.871  25.366   7.340 -0.3317 -0.0184 -0.0487
 5060POPC   D2A61242   9.900  25.655   7.010 -0.2380 -0.2056 -0.1473
 5060POPC   C3A61243  10.099  25.520   6.596  0.0893  0.0467  0.1153
 5060POPC   C4A61244   9.886  25.672   6.276 -0.2302  0.1232  0.1159
 5060POPC   C1B61245  10.035  24.862   7.060 -0.0861 -0.1559 -0.2946
 5060POPC   C2B61246  10.078  24.685   6.620 -0.0676 -0.1886  0.1278
 5060POPC   C3B61247  10.394  24.642   6.253 -0.3460 -0.2134  0.0418
 5060POPC   C4B61248  10.699  24.927   6.025 -0.0817 -0.2899  0.0174
 5061POPC   NC361249  25.237  29.368   8.197 -0.2380  0.0131 -0.0925
 5061POPC   PO461250  24.929  29.278   7.978 -0.0746 -0.1320 -0.5285
 5061POPC   GL161251  24.893  29.080   7.531 -0.0216  0.4733 -0.3083
 5061POPC   GL261252  24.912  28.824   7.467 -0.1197 -0.1289 -0.0518
 5061POPC   C1A61253  24.632  29.215   7.167  0.0082  0.1592 -0.2167
 5061POPC   D2A61254  24.515  29.448   6.802  0.0372 -0.0990  0.0542
 5061POPC   C3A61255  24.609  29.501   6.362  0.0546  0.4479 -0.1564
 5061POPC   C4A61256  24.645  29.831   6.087  0.0437  0.1873 -0.1438
 5061POPC   C1B61257  24.890  28.820   7.053 -0.0129 -0.3634 -0.0751
 5061POPC   C2B61258  24.897  28.782   6.643 -0.2592  0.1626 -0.0165
 5061POPC   C3B61259  24.686  28.963   6.254  0.1577 -0.1481  0.0490
 5061POPC   C4B61260  24.434  29.152   5.936 -0.0975  0.1263  0.2004
 5062POPC   NC361261  11.577   8.924   7.811  0.0556  0.0982 -0.1442
 5062POPC   PO461262  11.551   8.543   7.820  0.0388  0.3176  0.0175
 5062POPC   GL161263  11.518   8.713   7.393  0.3701 -0.0092 -0.1337
 5062POPC   GL261264  11.849   8.804   7.334 -0.3240  0.3693 -0.0124
 5062POPC   C1A61265  11.357   8.723   6.996 -0.1294  0.0837 -0.1155
 5062POPC   D2A61266  11.098   8.706   6.593 -0.1481  0.1098  0.0399
 5062POPC   C3A61267  11.229   9.044   6.345 -0.1039  0.0696 -0.0863
 5062POPC   C4A61268  11.457   9.389   6.201  0.1410 -0.0955  0.2451
 5062POPC   C1B61269  11.904   8.548   6.982 -0.0291 -0.0129 -0.2065
 5062POPC   C2B61270  11.952   8.262   6.632 -0.0740  0.3635  0.1717
 5062POPC   C3B61271  12.139   8.139   6.205 -0.2999 -0.4260 -0.0643
 5062POPC   C4B61272  12.440   8.031   5.875 -0.1056  0.0921  0.1655
 5063POPC   NC361273  18.793  15.610   7.374 -0.2596  0.0213 -0.1052
 5063POPC   PO461274  19.208  15.574   7.256  0.3061 -0.3680 -0.0128
 5063POPC   GL161275  19.223  15.496   6.905 -0.0374 -0.4357 -0.3345
 5063POPC   GL261276  18.955  15.304   6.944 -0.2423  0.2868  0.2719
 5063POPC   C1A61277  19.541  15.448   6.572  0.0222  0.0582 -0.0323
 5063POPC   D2A61278  19.403  15.196   6.207  0.0559 -0.1434 -0.3000
 5063POPC   C3A61279  19.439  15.314   5.742  0.2167 -0.2519  0.3187
 5063POPC   C4A61280  19.373  15.178   5.343  0.1982  0.2759  0.0717
 5063POPC   C1B61281  18.964  15.145   6.468  0.0295 -0.1781 -0.1096
 5063POPC   C2B61282  18.851  15.097   6.007  0.3297  0.0039 -0.0047
 5063POPC   C3B61283  18.944  15.096   5.568 -0.3565 -0.1232  0.1331
 5063POPC   C4B61284  18.869  14.950   5.179  0.3374  0.1457 -0.1179
 5064POPC   NC361285  14.628  19.953   7.365 -0.2037 -0.0368  0.4301
 5064POPC   PO461286  14.486  19.612   7.468 -0.0447 -0.1345 -0.2527
 5064POPC   GL161287  14.762  19.474   7.122 -0.1039  0.1021  0.0892
 5064POPC   GL261288  14.773  19.607   6.899 -0.3700 -0.2302 -0.1680
 5064POPC   C1A61289  14.907  19.030   7.061 -0.0978  0.1621 -0.1472
 5064POPC   D2A61290  15.034  18.689   6.765 -0.1625  0.1685  0.0969
 5064POPC   C3A61291  15.072  18.267   6.935 -0.0949  0.1747  0.2959
 5064POPC   C4A61292  15.335  18.020   7.201  0.1663 -0.2257  0.2236
 5064POPC   C1B61293  14.749  19.751   6.463 -0.1167  0.1351  0.2051
 5064POPC   C2B61294  14.800  19.507   6.083 -0.2288  0.0489 -0.0326
 5064POPC   C3B61295  14.835  19.056   5.899 -0.0520 -0.1027 -0.2570
 5064POPC   C4B61296  14.983  19.007   5.459  0.2162  0.2736  0.0632
 5065POPC   NC361297   4.298  21.417   8.415  0.2254  0.1254 -0.4622
 5065POPC   PO461298   4.113  21.508   8.094  0.1226 -0.1222  0.3822
 5065POPC   GL161299   4.276  21.601   7.768 -0.3653  0.1191  0.1529
 5065POPC   GL261300   4.108  21.655   7.502 -0.2957  0.1028 -0.2823
 5065POPC   C1A61301   4.630  21.834   7.527 -0.0718 -0.0234  0.1193
 5065POPC   D2A61302   4.788  22.105   7.160  0.0362  0.2167  0.1251
 5065POPC   C3A61303   4.628  22.261   6.817 -0.1863 -0.3080  0.4116
 5065POPC   C4A61304   4.566  22.504   6.442 -0.3496  0.1174  0.0574
 5065POPC   C1B61305   4.281  21.871   7.100  0.0281  0.1280 -0.0296
 5065POPC   C2B61306   4.188  22.018   6.673 -0.1107 -0.0707  0.2602
 5065POPC   C3B61307   4.256  22.244   6.214  0.3151 -0.1380  0.1445
 5065POPC   C4B61308   4.388  22.262   5.765 -0.0704  0.0264  0.0351
 5066POPC   NC361309  12.878  29.473   7.984  0.0103  0.0507  0.2294
 5066POPC   PO461310  13.197  29.257   8.168  0.0055 -0.0112  0.1900
 5066POPC   GL161311  13.040  29.013   7.803  0.2635  0.1012 -0.1530
 5066POPC   GL261312  13.273  29.099   7.690  0.3956 -0.2544 -0.0675
 5066POPC   C1A61313  12.925  28.674   7.560  0.2418  0.0512 -0.0421
 5066POPC   D2A61314  12.796  28.250   7.632 -0.3537 -0.0944 -0.3887
 5066POPC   C3A61315  12.356  28.263   7.469 -0.1389  0.0733 -0.0459
 5066POPC   C4A61316  12.016  28.152   7.136 -0.2442 -0.1891 -0.2155
 5066POPC   C1B61317  12.926  29.158   7.362  0.2496 -0.2060 -0.2071
 5066POPC   C2B61318  12.868  29.290   6.924  0.2739 -0.1943  0.1515
 5066POPC   C3B61319  12.552  29.405   6.608 -0.2222 -0.0453  0.1755
 5066POPC   C4B61320  12.371  29.639   6.222  0.0541  0.0909 -0.0616
 5067POPC   NC361321  27.172   7.627   7.851  0.2489 -0.1307 -0.0067
 5067POPC   PO461322  27.364   7.299   7.836  0.0472 -0.1718  0.0548
 5067POPC   GL161323  27.360   7.000   7.500 -0.1228 -0.0773 -0.2406
 5067POPC   GL261324  27.181   6.763   7.538 -0.2318 -0.0087 -0.1000
 5067POPC   C1A61325  27.379   7.095   7.023 -0.1625 -0.1423 -0.1772
 5067POPC   D2A61326  27.457   7.021   6.608  0.1700 -0.0262  0.2223
 5067POPC   C3A61327  27.565   7.382   6.319  0.1073  0.1175  0.4835
 5067POPC   C4A61328  27.762   7.450   5.977  0.0651  0.1006 -0.0033
 5067POPC   C1B61329  26.994   6.556   7.173  0.0288  0.0058 -0.3052
 5067POPC   C2B61330  26.820   6.253   6.901  0.0175  0.0950  0.0830
 5067POPC   C3B61331  26.697   6.067   6.513  0.2791 -0.0307 -0.0252
 5067POPC   C4B61332  26.342   5.748   6.280 -0.2965 -0.0606 -0.1344
 5068POPC   NC361333   2.908   7.873   7.980 -0.3629 -0.0364  0.1032
 5068POPC   PO461334   2.733   7.491   7.914  0.0613 -0.3133  0.1336
 5068POPC   GL161335   2.995   7.563   7.694  0.0444 -0.4088 -0.5334
 5068POPC   GL261336   2.950   7.831   7.427 -0.0439 -0.1843  0.0270
 5068POPC   C1A61337   3.064   7.349   7.280  0.0233 -0.0303 -0.0939
 5068POPC   D2A61338   3.311   7.230   6.901 -0.0651 -0.1231 -0.0254
 5068POPC   C3A61339   3.425   7.351   6.410 -0.3492  0.0783  0.1697
 5068POPC   C4A61340   3.679   7.493   6.026  0.1123 -0.2482 -0.1479
 5068POPC   C1B61341   2.953   7.861   7.042 -0.2770 -0.0293 -0.1666
 5068POPC   C2B61342   3.098   7.765   6.641  0.1642 -0.0062  0.0714
 5068POPC   C3B61343   3.074   7.748   6.176 -0.1451  0.2616 -0.0695
 5068POPC   C4B61344   3.275   7.623   5.773 -0.1786 -0.4615  0.0268
 5069POPC   NC361345  27.258  22.993   8.312  0.0432  0.1292 -0.0513
 5069POPC   PO461346  27.636  22.843   8.348 -0.0883  0.1308 -0.0459
 5069POPC   GL161347  27.522  22.560   8.190 -0.2595 -0.0259 -0.0625
 5069POPC   GL261348  27.795  22.462   7.993  0.1043  0.2362 -0.3956
 5069POPC   C1A61349  27.519  22.070   8.306  0.0775 -0.0570  0.2186
 5069POPC   D2A61350  27.751  21.663   8.413 -0.2663  0.1798  0.0433
 5069POPC   C3A61351  28.090  21.985   8.318 -0.0387 -0.1124 -0.0190
 5069POPC   C4A61352  28.306  22.202   7.959  0.1310  0.0732 -0.0671
 5069POPC   C1B61353  27.557  22.481   7.580  0.2389 -0.1810  0.0360
 5069POPC   C2B61354  27.754  22.558   7.167  0.1002  0.0442 -0.4466
 5069POPC   C3B61355  27.890  22.377   6.734  0.0011 -0.0582  0.1683
 5069POPC   C4B61356  28.340  22.225   6.661 -0.2057 -0.0331  0.0785
 5070POPS   CNO61357  29.699  23.529   7.662 -0.1174  0.1184  0.0001
 5070POPS   PO461358  29.769  23.219   7.843 -0.2250  0.0911 -0.0907
 5070POPS   GL161359  29.728  23.097   7.444 -0.0253 -0.0774 -0.0159
 5070POPS   GL261360  29.930  22.862   7.275 -0.3072 -0.2557  0.2617
 5070POPS   C1A61361  29.437  23.141   7.076  0.7001  0.1683 -0.0281
 5070POPS   D2A61362  29.199  23.322   6.726 -0.1319  0.0570  0.3378
 5070POPS   C3A61363  29.119  23.297   6.277 -0.1263  0.3221 -0.1237
 5070POPS   C4A61364  29.348  23.165   5.954  0.0305 -0.1558 -0.2891
 5070POPS   C1B61365  29.680  22.620   6.918 -0.1319 -0.1198  0.2126
 5070POPS   C2B61366  29.657  22.486   6.451  0.1821 -0.1278  0.1198
 5070POPS   C3B61367  29.230  22.451   6.265 -0.2308  0.0795 -0.1374
 5070POPS   C4B61368  28.725  22.406   6.179  0.3890  0.0225  0.1654
 5071POPS   CNO61369   7.800   7.118   8.037  0.3048 -0.0942 -0.1628
 5071POPS   PO461370   7.532   7.201   7.767 -0.3615 -0.0965  0.2091
 5071POPS   GL161371   7.293   7.358   7.551 -0.5229 -0.3323 -0.0003
 5071POPS   GL261372   7.119   7.190   7.350  0.1409  0.1459  0.3523
 5071POPS   C1A61373   7.301   7.630   7.162 -0.0915 -0.0022 -0.2393
 5071POPS   D2A61374   6.994   7.602   6.756  0.1020  0.3425 -0.2124
 5071POPS   C3A61375   6.795   7.912   6.543  0.0111  0.0451 -0.1449
 5071POPS   C4A61376   6.638   8.190   6.228  0.0041 -0.2524  0.0028
 5071POPS   C1B61377   6.675   7.236   7.092 -0.0051 -0.0833  0.3200
 5071POPS   C2B61378   6.448   7.606   6.791  0.2536  0.2516  0.3718
 5071POPS   C3B61379   6.271   7.771   6.441 -0.3010 -0.0278 -0.1613
 5071POPS   C4B61380   6.123   8.137   6.215 -0.0069 -0.2440 -0.2076
 5072POPS   CNO61381   7.211  19.007   7.640 -0.0335 -0.0575  0.1169
 5072POPS   PO461382   6.881  18.832   7.649 -0.1891 -0.0873 -0.0703
 5072POPS   GL161383   6.826  18.648   7.328 -0.0031  0.0194 -0.3345
 5072POPS   GL261384   6.635  18.663   7.124 -0.0333  0.0902  0.1743
 5072POPS   C1A61385   6.963  18.182   7.262 -0.1933 -0.1003  0.1358
 5072POPS   D2A61386   7.241  17.780   7.364  0.1812  0.3474  0.2130
 5072POPS   C3A61387   7.447  17.630   6.980  0.3107  0.2055  0.1014
 5072POPS   C4A61388   7.483  17.417   6.575 -0.2287  0.3395 -0.1038
 5072POPS   C1B61389   6.749  18.489   6.722  0.2450  0.0114  0.0191
 5072POPS   C2B61390   6.851  18.327   6.356 -0.3995 -0.0414 -0.0991
 5072POPS   C3B61391   6.776  18.044   5.967 -0.1029 -0.0899  0.2760
 5072POPS   C4B61392   6.699  18.089   5.487 -0.1691 -0.1243 -0.1366
 5073POPS   CNO61393  10.732  28.440   8.009 -0.1764  0.1238  0.0791
 5073POPS   PO461394  11.093  28.552   8.100 -0.0869 -0.0261  0.3009
 5073POPS   GL161395  10.997  28.636   7.708 -0.3780  0.1666 -0.3483
 5073POPS   GL261396  11.123  28.899   7.730  0.0515 -0.0392  0.0011
 5073POPS   C1A61397  11.152  28.757   7.288  0.1204 -0.0217 -0.4016
 5073POPS   D2A61398  10.995  28.616   6.877 -0.1828  0.0306 -0.0868
 5073POPS   C3A61399  11.293  28.778   6.529  0.0548  0.0167  0.4149
 5073POPS   C4A61400  11.539  28.718   6.140  0.4164  0.0746  0.1205
 5073POPS   C1B61401  11.338  29.177   7.471 -0.0842 -0.0697  0.2143
 5073POPS   C2B61402  11.340  29.477   7.151  0.1638 -0.1098  0.1422
 5073POPS   C3B61403  11.336  29.650   6.710 -0.0838 -0.0205  0.3182
 5073POPS   C4B61404  11.537  29.929   6.449 -0.0397 -0.1114  0.2856
 5074POPS   CNO61405  14.843  29.694   7.728  0.1017  0.0489  0.0920
 5074POPS   PO461406  14.957  29.995   7.931 -0.0963  0.0951 -0.2321
 5074POPS   GL161407  14.783  30.058   7.460 -0.1499  0.1812 -0.1652
 5074POPS   GL261408  15.024  30.231   7.413  0.2894 -0.0350  0.2877
 5074POPS   C1A61409  14.488  29.782   7.204 -0.1621  0.0806 -0.1584
 5074POPS   D2A61410  14.471  29.314   7.132 -0.0406 -0.1927 -0.1163
 5074POPS   C3A61411  14.602  29.177   6.709 -0.1158  0.0230  0.2571
 5074POPS   C4A61412  14.518  29.072   6.225 -0.0507 -0.0335 -0.0761
 5074POPS   C1B61413  14.896  30.127   6.957  0.1578 -0.2610 -0.0717
 5074POPS   C2B61414  14.942  30.049   6.513 -0.0576  0.2639  0.1612
 5074POPS   C3B61415  15.083  30.031   6.078  0.3727  0.1072 -0.0195
 5074POPS   C4B61416  14.901  30.290   5.725  0.0820  0.1329  0.2476
 5075POPS   CNO61417  27.075  24.640   7.992  0.0040 -0.4442 -0.1029
 5075POPS   PO461418  26.934  24.324   7.827  0.0746  0.3020 -0.2019
 5075POPS   GL161419  27.088  24.251   7.397 -0.0681 -0.0194  0.0887
 5075POPS   GL261420  27.039  23.915   7.435  0.0400 -0.0137 -0.1942
 5075POPS   C1A61421  26.986  24.255   6.970  0.1026 -0.0345 -0.1073
 5075POPS   D2A61422  26.891  24.056   6.537 -0.3735 -0.0578  0.1119
 5075POPS   C3A61423  27.130  24.225   6.230  0.0280 -0.1500 -0.3081
 5075POPS   C4A61424  27.469  24.456   6.001  0.1366  0.0698 -0.2803
 5075POPS   C1B61425  26.652  23.870   7.155  0.2120  0.0164  0.0550
 5075POPS   C2B61426  26.464  23.682   6.831 -0.5847 -0.1350  0.2377
 5075POPS   C3B61427  26.289  23.509   6.436 -0.1558 -0.0745  0.0599
 5075POPS   C4B61428  26.392  23.551   5.985  0.1758 -0.1260 -0.1250
 5076POPS   CNO61429   1.914  16.500   7.707  0.1895 -0.1326  0.0438
 5076POPS   PO461430   2.062  16.180   7.598 -0.2377  0.1488  0.1013
 5076POPS   GL161431   2.151  15.901   7.335 -0.0707 -0.0466 -0.0201
 5076POPS   GL261432   2.352  15.925   7.120  0.1301  0.1314 -0.1834
 5076POPS   C1A61433   1.972  15.954   6.868 -0.0842  0.0689  0.1566
 5076POPS   D2A61434   2.188  16.222   6.591 -0.0051 -0.0731 -0.1472
 5076POPS   C3A61435   2.225  16.444   6.197  0.0416  0.1521 -0.0566
 5076POPS   C4A61436   1.981  16.446   5.743 -0.2690  0.0841  0.2478
 5076POPS   C1B61437   2.575  16.080   6.770  0.3235 -0.2814  0.1703
 5076POPS   C2B61438   2.698  16.003   6.347 -0.1328  0.3414 -0.2506
 5076POPS   C3B61439   2.819  15.850   5.921  0.0800 -0.2032 -0.1165
 5076POPS   C4B61440   2.804  15.951   5.509 -0.0634  0.3741  0.2090
 5077POPS   CNO61441  18.011   3.274   7.695  0.0892 -0.0578  0.0132
 5077POPS   PO461442  17.622   3.250   7.804 -0.1347 -0.0029  0.1108
 5077POPS   GL161443  17.579   3.179   7.453 -0.2509  0.1147  0.3209
 5077POPS   GL261444  17.711   3.400   7.263  0.1660  0.3434 -0.2615
 5077POPS   C1A61445  17.870   2.909   7.164  0.5701 -0.2365 -0.0604
 5077POPS   D2A61446  17.886   2.703   6.777 -0.1965  0.1073  0.2371
 5077POPS   C3A61447  17.780   2.524   6.404 -0.1731 -0.0931 -0.4663
 5077POPS   C4A61448  17.429   2.514   6.130 -0.2074 -0.0712  0.1220
 5077POPS   C1B61449  17.777   3.615   6.850 -0.1129 -0.3714 -0.1188
 5077POPS   C2B61450  17.838   3.852   6.460 -0.0758  0.0923  0.0976
 5077POPS   C3B61451  17.985   3.873   6.041  0.1383 -0.0630  0.2492
 5077POPS   C4B61452  18.385   3.933   5.862  0.0980 -0.1283  0.2081
 5078POPS   CNO61453  13.600   4.953   7.888 -0.0431 -0.1080 -0.1928
 5078POPS   PO461454  13.311   5.083   7.682 -0.1981  0.2643 -0.2946
 5078POPS   GL161455  13.181   5.178   7.304 -0.1387 -0.5135  0.1290
 5078POPS   GL261456  13.256   5.442   7.163 -0.0035  0.2919  0.0334
 5078POPS   C1A61457  13.095   5.000   6.880  0.0121  0.4778  0.2197
 5078POPS   D2A61458  13.196   4.890   6.450 -0.0028  0.1450  0.0742
 5078POPS   C3A61459  13.413   5.116   6.117  0.0010 -0.1586  0.2839
 5078POPS   C4A61460  13.583   4.990   5.723 -0.1225 -0.0176 -0.2597
 5078POPS   C1B61461  13.114   5.719   6.830  0.2070 -0.0991 -0.2170
 5078POPS   C2B61462  12.929   5.863   6.451  0.0449  0.3137 -0.3100
 5078POPS   C3B61463  12.609   6.007   6.195  0.2489 -0.4094 -0.0160
 5078POPS   C4B61464  12.435   6.084   5.793 -0.3163 -0.2068 -0.3058
 5079POPS   CNO61465   5.062  27.489   8.015 -0.0220  0.0672 -0.1692
 5079POPS   PO461466   4.777  27.560   7.735  0.1305  0.0473 -0.1536
 5079POPS   GL161467   4.636  27.575   7.407  0.1715  0.4251  0.0809
 5079POPS   GL261468   4.461  27.794   7.355  0.0403  0.0898 -0.0475
 5079POPS   C1A61469   4.714  27.629   6.937 -0.1561  0.3830 -0.4765
 5079POPS   D2A61470   4.722  27.470   6.513 -0.0018  0.1930  0.1839
 5079POPS   C3A61471   5.063  27.428   6.197  0.1396 -0.1915  0.1346
 5079POPS   C4A61472   5.366  27.541   5.839 -0.1630 -0.0709 -0.2111
 5079POPS   C1B61473   4.180  27.583   7.083  0.1700 -0.1603 -0.0103
 5079POPS   C2B61474   4.187  27.232   6.745  0.1588 -0.1999  0.4603
 5079POPS   C3B61475   4.324  27.067   6.356 -0.0597  0.0384 -0.2632
 5079POPS   C4B61476   4.208  26.871   5.986  0.0682  0.0572 -0.0453
 5080POPS   CNO61477  19.176  16.742   7.666  0.0554 -0.0303  0.0143
 5080POPS   PO461478  19.407  16.509   7.491  0.3001  0.0754  0.0603
 5080POPS   GL161479  19.328  16.603   7.148 -0.0355  0.2497 -0.1006
 5080POPS   GL261480  19.530  16.530   7.048  0.3294 -0.0339  0.0905
 5080POPS   C1A61481  19.352  16.851   6.725 -0.2192  0.4225 -0.1344
 5080POPS   D2A61482  19.219  16.680   6.323 -0.1242  0.2694 -0.2826
 5080POPS   C3A61483  19.042  16.601   5.980  0.2034 -0.0562  0.2275
 5080POPS   C4A61484  18.982  16.173   5.817 -0.0218  0.2913 -0.0130
 5080POPS   C1B61485  19.658  16.452   6.561  0.2538 -0.1453 -0.3260
 5080POPS   C2B61486  19.683  16.503   6.094  0.0594  0.0763  0.1487
 5080POPS   C3B61487  19.583  16.153   5.811  0.3497 -0.0261  0.1149
 5080POPS   C4B61488  19.315  15.789   5.654  0.1764 -0.0472  0.0631
 5081POPS   CNO61489   0.125  14.737   8.214 -0.0629 -0.2749 -0.1149
 5081POPS   PO461490  -0.199  14.847   8.063 -0.1116 -0.4300  0.0126
 5081POPS   GL161491  -0.062  14.847   7.712 -0.1360  0.5862 -0.1644
 5081POPS   GL261492   0.230  14.867   7.735 -0.0896 -0.0822 -0.1108
 5081POPS   C1A61493  -0.219  14.874   7.319  0.3091 -0.3542 -0.2841
 5081POPS   D2A61494  -0.096  14.902   6.896 -0.1779  0.0948 -0.0594
 5081POPS   C3A61495  -0.110  14.775   6.407 -0.1077 -0.1062 -0.0413
 5081POPS   C4A61496  -0.377  14.736   6.045 -0.1118  0.0795  0.0085
 5081POPS   C1B61497   0.130  14.512   7.458  0.0627  0.2944 -0.0907
 5081POPS   C2B61498  -0.013  14.411   7.014 -0.4259 -0.0326  0.1662
 5081POPS   C3B61499   0.119  14.333   6.548  0.0527 -0.1838 -0.0560
 5081POPS   C4B61500   0.102  14.300   6.096 -0.0750 -0.2358  0.0887
 5082POPS   CNO61501  23.483  22.897   7.756 -0.4266  0.2723  0.4397
 5082POPS   PO461502  23.647  23.051   7.419 -0.0139 -0.0243  0.1481
 5082POPS   GL161503  23.549  23.157   7.105 -0.4642 -0.1606  0.0103
 5082POPS   GL261504  23.719  23.414   7.097 -0.0768 -0.2788 -0.2602
 5082POPS   C1A61505  23.753  22.899   6.677  0.1088 -0.0266 -0.3177
 5082POPS   D2A61506  23.933  22.772   6.267 -0.0290  0.0046  0.0515
 5082POPS   C3A61507  23.814  22.351   6.021 -0.0030 -0.2085  0.1210
 5082POPS   C4A61508  23.671  21.929   5.968 -0.3876  0.1069  0.1907
 5082POPS   C1B61509  23.720  23.553   6.650 -0.0275  0.0670 -0.0825
 5082POPS   C2B61510  23.873  23.255   6.322 -0.2462 -0.5822  0.0399
 5082POPS   C3B61511  24.036  23.126   5.919 -0.0680 -0.0022 -0.2127
 5082POPS   C4B61512  24.063  22.771   5.567  0.2259  0.1131  0.1737
 5083POPS   CNO61513   7.622  19.786   7.406 -0.2559 -0.1668 -0.0381
 5083POPS   PO461514   7.891  19.570   7.615 -0.0060 -0.0033 -0.0675
 5083POPS   GL161515   8.035  19.594   7.274 -0.2045 -0.2358 -0.0040
 5083POPS   GL261516   8.109  19.866   7.324  0.1605 -0.1346  0.1091
 5083POPS   C1A61517   7.867  19.719   6.845  0.2242 -0.0543 -0.3171
 5083POPS   D2A61518   7.855  20.056   6.552 -0.1789 -0.0495  0.0184
 5083POPS   C3A61519   7.790  20.489   6.503 -0.2819 -0.1858 -0.3556
 5083POPS   C4A61520   7.482  20.794   6.277  0.0429  0.2505  0.0420
 5083POPS   C1B61521   8.274  19.902   6.909 -0.4273  0.2900  0.0825
 5083POPS   C2B61522   8.403  19.945   6.487  0.0815  0.0020  0.1350
 5083POPS   C3B61523   8.473  19.859   6.049 -0.0980  0.0880  0.0316
 5083POPS   C4B61524   8.432  19.465   5.792 -0.3624  0.0083  0.0185
 5084POPS   CNO61525  12.061   8.089   7.919 -0.1079  0.2141 -0.1676
 5084POPS   PO461526  12.301   8.273   7.639 -0.1306  0.1565 -0.1053
 5084POPS   GL161527  12.340   8.198   7.218  0.1087 -0.0200 -0.1111
 5084POPS   GL261528  12.496   8.021   7.079  0.0308  0.2057  0.0259
 5084POPS   C1A61529  12.394   8.447   6.803  0.1040 -0.0885 -0.2702
 5084POPS   D2A61530  12.223   8.596   6.391 -0.1425  0.1474 -0.3429
 5084POPS   C3A61531  11.962   8.594   5.960 -0.1053 -0.2553 -0.0172
 5084POPS   C4A61532  11.686   8.651   5.610  0.0883  0.2069  0.2226
 5084POPS   C1B61533  12.368   7.966   6.669  0.1213 -0.1463 -0.0964
 5084POPS   C2B61534  12.320   7.662   6.301  0.2349 -0.4207 -0.1184
 5084POPS   C3B61535  12.322   7.566   5.797  0.1220 -0.0006 -0.0953
 5084POPS   C4B61536  11.976   7.321   5.626 -0.0560  0.0533  0.0194
 5085POPS   CNO61537  17.987  24.927   7.924  0.0042 -0.0886  0.0943
 5085POPS   PO461538  18.335  24.978   7.801 -0.1263  0.1023  0.2265
 5085POPS   GL161539  18.451  25.050   7.411  0.0390  0.0914  0.0268
 5085POPS   GL261540  18.577  25.280   7.272 -0.1146  0.1872 -0.1879
 5085POPS   C1A61541  18.797  24.871   7.130 -0.0007  0.0863  0.3192
 5085POPS   D2A61542  19.017  24.473   6.969  0.0941  0.0047  0.3927
 5085POPS   C3A61543  18.974  24.370   6.483  0.2193 -0.1369  0.0690
 5085POPS   C4A61544  18.939  24.197   6.021  0.0177 -0.1494 -0.0985
 5085POPS   C1B61545  18.664  25.421   6.819 -0.0065  0.1938 -0.4154
 5085POPS   C2B61546  18.703  25.467   6.382 -0.0175  0.0273 -0.2307
 5085POPS   C3B61547  18.831  25.200   5.938  0.1752 -0.0136 -0.1066
 5085POPS   C4B61548  18.879  25.001   5.589  0.0990 -0.0360  0.0461
 5086POPS   CNO61549   3.013   1.213   7.998  0.1148  0.1462  0.1280
 5086POPS   PO461550   3.236   1.441   7.819  0.1423  0.2094  0.3636
 5086POPS   GL161551   2.955   1.419   7.511  0.0629  0.1458 -0.1787
 5086POPS   GL261552   3.179   1.658   7.377  0.2688  0.1365  0.1108
 5086POPS   C1A61553   2.851   1.462   7.057  0.0784  0.0819 -0.0730
 5086POPS   D2A61554   2.721   1.388   6.641  0.2833  0.0308  0.2367
 5086POPS   C3A61555   2.710   1.795   6.508 -0.2307  0.0627  0.0977
 5086POPS   C4A61556   2.424   2.114   6.274  0.0065  0.0259  0.0060
 5086POPS   C1B61557   3.128   1.839   6.952 -0.1103 -0.2197 -0.1024
 5086POPS   C2B61558   3.227   1.927   6.508 -0.0411 -0.0474  0.0080
 5086POPS   C3B61559   3.401   1.662   6.157 -0.0550  0.1481  0.0819
 5086POPS   C4B61560   3.339   1.282   5.907  0.2209 -0.0048  0.0965
 5087POPS   CNO61561  14.780  13.863   7.847  0.1436 -0.1935 -0.0509
 5087POPS   PO461562  14.441  13.798   7.694 -0.2374  0.3082  0.2084
 5087POPS   GL161563  14.255  13.807   7.263 -0.1131  0.0171  0.2901
 5087POPS   GL261564  14.310  13.586   7.219  0.0612  0.1096  0.1996
 5087POPS   C1A61565  14.543  13.888   6.901  0.1789 -0.2388  0.2597
 5087POPS   D2A61566  14.449  13.828   6.436 -0.3098  0.2404 -0.0971
 5087POPS   C3A61567  14.642  13.558   6.121  0.1462 -0.2311  0.0095
 5087POPS   C4A61568  14.621  13.415   5.694 -0.0980 -0.0806 -0.2081
 5087POPS   C1B61569  14.321  13.343   6.873 -0.1308  0.3440  0.0161
 5087POPS   C2B61570  14.603  13.226   6.506 -0.0024  0.1759  0.3082
 5087POPS   C3B61571  14.916  13.122   6.203 -0.1059 -0.2005  0.0420
 5087POPS   C4B61572  15.364  12.984   6.308 -0.0087  0.3650 -0.1452
 5088POPS   CNO61573  27.291  19.465   8.148  0.2438 -0.2567  0.3080
 5088POPS   PO461574  27.137  19.646   7.835 -0.1189 -0.0140  0.3234
 5088POPS   GL161575  27.308  19.599   7.478  0.1087 -0.1036 -0.2352
 5088POPS   GL261576  27.558  19.395   7.438  0.2477 -0.0658  0.0424
 5088POPS   C1A61577  27.345  19.691   7.047 -0.2234  0.1763  0.1504
 5088POPS   D2A61578  27.051  20.007   6.799 -0.2715 -0.2597  0.1226
 5088POPS   C3A61579  27.155  20.023   6.325 -0.2371  0.0812  0.0416
 5088POPS   C4A61580  27.097  20.228   5.896  0.0258 -0.3027  0.0712
 5088POPS   C1B61581  27.832  19.536   7.067  0.1065  0.1041 -0.3160
 5088POPS   C2B61582  28.051  19.603   6.673  0.0189  0.1240  0.1066
 5088POPS   C3B61583  28.334  19.693   6.221  0.0169 -0.2204  0.0375
 5088POPS   C4B61584  28.559  19.500   5.894 -0.0470  0.2674  0.2036
 5089POPS   CNO61585  13.986  17.521   7.716 -0.0297  0.1040 -0.1585
 5089POPS   PO461586  13.990  17.142   7.627  0.0596 -0.0522  0.2799
 5089POPS   GL161587  14.068  17.202   7.259  0.1987 -0.3066  0.4908
 5089POPS   GL261588  13.881  17.077   7.049 -0.3119 -0.0452  0.2217
 5089POPS   C1A61589  14.358  17.374   6.924  0.1793 -0.1442  0.1786
 5089POPS   D2A61590  14.502  17.470   6.473  0.0557  0.2072 -0.1930
 5089POPS   C3A61591  14.486  17.878   6.308  0.0129 -0.0430  0.2508
 5089POPS   C4A61592  14.691  18.015   5.891  0.1184  0.0191 -0.2616
 5089POPS   C1B61593  14.083  17.042   6.611  0.1210 -0.1335 -0.1088
 5089POPS   C2B61594  14.295  17.128   6.198  0.2671  0.1202 -0.3126
 5089POPS   C3B61595  14.416  17.000   5.822  0.0440  0.1306 -0.1670
 5089POPS   C4B61596  14.660  16.949   5.436 -0.0035 -0.3542 -0.0710
 5090POPS   CNO61597  22.030  29.155   8.018  0.3349 -0.0430  0.1747
 5090POPS   PO461598  22.292  29.101   7.780  0.0847  0.1487  0.1346
 5090POPS   GL161599  22.201  29.298   7.526 -0.0951  0.1111 -0.1912
 5090POPS   GL261600  21.886  29.261   7.450  0.0064 -0.1014 -0.0210
 5090POPS   C1A61601  22.251  29.469   7.098 -0.0629 -0.0899 -0.0752
 5090POPS   D2A61602  22.223  29.852   6.887  0.0260 -0.1464  0.1022
 5090POPS   C3A61603  21.846  29.786   6.624  0.2587 -0.0581  0.1069
 5090POPS   C4A61604  21.384  29.708   6.720 -0.0200  0.0419  0.0617
 5090POPS   C1B61605  21.545  28.976   7.206  0.1968 -0.2035 -0.3477
 5090POPS   C2B61606  21.251  28.620   7.059  0.5208  0.1814  0.3194
 5090POPS   C3B61607  21.190  28.268   6.766 -0.1618 -0.0332  0.2215
 5090POPS   C4B61608  21.219  28.097   6.346  0.3261  0.2276  0.0448
 5091POPS   CNO61609  15.439  29.916   8.134  0.1513  0.1605 -0.1258
 5091POPS   PO461610  15.658  29.803   7.821 -0.3957 -0.1378  0.2518
 5091POPS   GL161611  15.567  29.898   7.423 -0.0698  0.0675 -0.1210
 5091POPS   GL261612  15.242  29.758   7.434 -0.0045 -0.0659 -0.2650
 5091POPS   C1A61613  15.770  29.643   7.034  0.2585 -0.1006 -0.1198
 5091POPS   D2A61614  16.163  29.449   6.789 -0.0570 -0.3360 -0.1247
 5091POPS   C3A61615  16.342  29.707   6.448 -0.0065  0.0482  0.4949
 5091POPS   C4A61616  16.454  30.027   6.112  0.0327  0.0172 -0.1896
 5091POPS   C1B61617  14.929  29.529   7.189 -0.0086 -0.0248 -0.1843
 5091POPS   C2B61618  14.707  29.663   6.808 -0.1179 -0.0358  0.0979
 5091POPS   C3B61619  14.677  29.609   6.382  0.0547 -0.1602  0.1850
 5091POPS   C4B61620  14.457  29.481   6.004  0.1223 -0.1649 -0.1666
 5092POPS   CNO61621   2.980  25.634   8.216 -0.0713 -0.0535  0.0117
 5092POPS   PO461622   2.958  25.621   7.858 -0.0638  0.2297  0.0927
 5092POPS   GL161623   2.731  25.550   7.573 -0.2218  0.1758  0.3389
 5092POPS   GL261624   2.712  25.763   7.373  0.0606 -0.0612  0.1427
 5092POPS   C1A61625   2.553  25.415   7.136 -0.0119 -0.2788 -0.1511
 5092POPS   D2A61626   2.478  25.056   6.815  0.3140 -0.1258 -0.0008
 5092POPS   C3A61627   2.649  25.192   6.395  0.2343  0.1820  0.4160
 5092POPS   C4A61628   2.542  25.325   5.963 -0.4378 -0.0123 -0.3149
 5092POPS   C1B61629   2.607  25.838   6.889  0.0201  0.1809 -0.0909
 5092POPS   C2B61630   2.350  25.550   6.612  0.0697  0.0586  0.2328
 5092POPS   C3B61631   2.125  25.291   6.273 -0.0210 -0.1197 -0.0103
 5092POPS   C4B61632   1.659  25.275   6.044  0.1496  0.0434  0.0126
 5093POPS   CNO61633   0.646  25.583   7.652 -0.0962 -0.2264  0.0707
 5093POPS   PO461634   0.806  25.217   7.750  0.1628  0.2999 -0.0302
 5093POPS   GL161635   0.752  25.235   7.357  0.1670 -0.1284  0.0623
 5093POPS   GL261636   1.065  25.385   7.387  0.2848 -0.1149  0.0746
 5093POPS   C1A61637   0.567  25.402   6.956 -0.1797  0.4135 -0.1068
 5093POPS   D2A61638   0.355  25.495   6.561 -0.0674 -0.0874 -0.0462
 5093POPS   C3A61639   0.485  25.476   6.119  0.0974  0.2432  0.2902
 5093POPS   C4A61640   0.507  25.435   5.669  0.4754 -0.0718 -0.1013
 5093POPS   C1B61641   1.026  25.550   6.963 -0.2640 -0.1096  0.0409
 5093POPS   C2B61642   0.856  25.442   6.531  0.0745  0.1297 -0.2606
 5093POPS   C3B61643   0.830  25.025   6.258 -0.0096 -0.0117 -0.0041
 5093POPS   C4B61644   0.883  24.620   5.994 -0.0419 -0.1196 -0.1832
 5094POPS   CNO61645  15.248  16.462   8.093 -0.1087  0.3466 -0.1286
 5094POPS   PO461646  15.382  16.496   7.748 -0.4340 -0.1825  0.1469
 5094POPS   GL161647  15.418  16.396   7.442  0.0969  0.4913 -0.0195
 5094POPS   GL261648  15.210  16.265   7.307  0.1345 -0.2973  0.1313
 5094POPS   C1A61649  15.525  16.696   7.041  0.1464  0.2616 -0.1357
 5094POPS   D2A61650  15.720  16.897   6.650 -0.0055  0.0250  0.0961
 5094POPS   C3A61651  16.074  16.856   6.272  0.0804  0.1988 -0.1354
 5094POPS   C4A61652  15.992  16.865   5.810 -0.0484 -0.0296 -0.0372
 5094POPS   C1B61653  15.314  16.287   6.852 -0.0399  0.0984  0.3001
 5094POPS   C2B61654  15.196  16.135   6.412  0.1701 -0.2630  0.3196
 5094POPS   C3B61655  15.299  16.208   5.955 -0.1678  0.1092  0.0752
 5094POPS   C4B61656  15.313  16.415   5.536  0.0013 -0.1075 -0.1656
 5095POPS   CNO61657  22.181  23.788   8.032  0.1002  0.0199 -0.0715
 5095POPS   PO461658  22.467  23.695   7.803 -0.2681  0.0234 -0.1033
 5095POPS   GL161659  22.355  23.422   7.450 -0.1095  0.0002  0.1681
 5095POPS   GL261660  22.128  23.567   7.232  0.1294  0.0913  0.2018
 5095POPS   C1A61661  22.533  23.309   7.015 -0.0165 -0.0038  0.0413
 5095POPS   D2A61662  22.466  23.413   6.580  0.0583  0.0346  0.3482
 5095POPS   C3A61663  22.067  23.359   6.340 -0.0478 -0.1780 -0.2358
 5095POPS   C4A61664  21.627  23.482   6.117  0.1866 -0.2337 -0.2395
 5095POPS   C1B61665  22.367  23.791   6.872  0.0208  0.2445 -0.3187
 5095POPS   C2B61666  22.213  23.936   6.417  0.1029 -0.1393 -0.0966
 5095POPS   C3B61667  22.024  24.224   6.066  0.2166 -0.3519  0.1803
 5095POPS   C4B61668  21.906  24.143   5.639  0.3612 -0.0074  0.1426
 5096POPS   CNO61669  21.887  16.311   8.425 -0.3567 -0.1717  0.0207
 5096POPS   PO461670  22.148  16.577   8.328  0.0095  0.0007  0.0213
 5096POPS   GL161671  22.348  16.497   7.904 -0.3466  0.0969 -0.1293
 5096POPS   GL261672  22.608  16.575   8.109  0.2296 -0.0356  0.1344
 5096POPS   C1A61673  22.691  16.618   7.628 -0.2035 -0.2292 -0.2315
 5096POPS   D2A61674  23.126  16.640   7.433  0.0055 -0.2060  0.1415
 5096POPS   C3A61675  23.368  16.857   7.113  0.2778 -0.3262  0.1009
 5096POPS   C4A61676  23.737  17.045   7.089  0.0172 -0.1047  0.1200
 5096POPS   C1B61677  22.981  16.816   8.094 -0.1788  0.0890  0.1159
 5096POPS   C2B61678  23.117  17.230   8.236 -0.0007 -0.1246  0.0152
 5096POPS   C3B61679  23.236  17.715   8.361  0.2422  0.1642 -0.0121
 5096POPS   C4B61680  23.165  18.152   8.532  0.2516  0.3565 -0.1030
 5097POPS   CNO61681  30.684   0.494   7.860 -0.4444 -0.2628  0.2768
 5097POPS   PO461682  30.881   0.226   7.699  0.0257 -0.1114  0.2907
 5097POPS   GL161683  30.597   0.134   7.442 -0.1790 -0.0226  0.1779
 5097POPS   GL261684  30.348   0.320   7.493 -0.0463  0.2276 -0.3815
 5097POPS   C1A61685  30.466   0.071   6.984 -0.0212  0.0786  0.2378
 5097POPS   D2A61686  30.355   0.075   6.563  0.1105  0.0231  0.2718
 5097POPS   C3A61687  30.388  -0.350   6.377  0.0718  0.1787 -0.1748
 5097POPS   C4A61688  30.450  -0.664   5.990  0.0592 -0.1252 -0.2854
 5097POPS   C1B61689  30.328   0.787   7.384  0.0708 -0.1355 -0.0239
 5097POPS   C2B61690  30.247   1.031   6.979 -0.1322 -0.2240 -0.0525
 5097POPS   C3B61691  30.252   0.918   6.547  0.0678  0.0983  0.0355
 5097POPS   C4B61692  30.090   0.919   6.159 -0.0958  0.0424  0.2168
 5098POPS   CNO61693   7.552  28.559   7.618 -0.0295  0.2983  0.0424
 5098POPS   PO461694   7.535  28.922   7.792 -0.2096  0.3330  0.0852
 5098POPS   GL161695   7.436  29.012   7.390 -0.0256  0.3687  0.0102
 5098POPS   GL261696   7.302  28.959   7.222  0.2923  0.0045 -0.1938
 5098POPS   C1A61697   7.663  29.259   7.100  0.2136 -0.2470  0.2146
 5098POPS   D2A61698   7.707  29.429   6.661 -0.0118 -0.3556  0.0321
 5098POPS   C3A61699   7.776  29.819   6.427 -0.2639  0.1602 -0.0663
 5098POPS   C4A61700   8.054  30.168   6.423 -0.3895 -0.1098 -0.1060
 5098POPS   C1B61701   6.997  28.853   6.919 -0.1712 -0.1703 -0.0733
 5098POPS   C2B61702   6.811  28.653   6.553  0.1698  0.3143 -0.1890
 5098POPS   C3B61703   6.691  28.746   6.092 -0.0301  0.2793 -0.1800
 5098POPS   C4B61704   6.468  28.939   5.771  0.1924  0.1037 -0.1036
 5099POPS   CNO61705   8.409  10.313   8.132 -0.1139 -0.0587  0.4470
 5099POPS   PO461706   8.596  10.206   7.852 -0.0858 -0.1516  0.0016
 5099POPS   GL161707   8.619  10.241   7.435 -0.3624  0.0998  0.1970
 5099POPS   GL261708   8.650  10.455   7.240 -0.0192 -0.1236  0.0035
 5099POPS   C1A61709   8.638   9.987   7.057  0.2037 -0.1049  0.1140
 5099POPS   D2A61710   8.689   9.945   6.569 -0.2329  0.1906  0.2586
 5099POPS   C3A61711   8.928  10.255   6.291  0.1087  0.1813 -0.3103
 5099POPS   C4A61712   8.955  10.668   6.040  0.0798 -0.1337  0.0654
 5099POPS   C1B61713   8.809  10.466   6.785 -0.3564  0.0702  0.0417
 5099POPS   C2B61714   9.137  10.620   6.465 -0.2797  0.0596 -0.3021
 5099POPS   C3B61715   9.282  10.934   6.235  0.2348 -0.1976 -0.0990
 5099POPS   C4B61716   9.236  11.197   5.912 -0.1423 -0.1223  0.0350
 5100POPS   CNO61717  26.103  30.560   7.914  0.1329  0.1365 -0.0958
 5100POPS   PO461718  26.122  30.902   7.764  0.0700 -0.0118 -0.0899
 5100POPS   GL161719  26.236  30.876   7.433  0.0223 -0.0759 -0.1621
 5100POPS   GL261720  26.510  30.930   7.355 -0.3215 -0.4469  0.0938
 5100POPS   C1A61721  26.216  30.539   7.122  0.2182 -0.2125 -0.1930
 5100POPS   D2A61722  26.140  30.067   7.097  0.0793 -0.2929  0.2226
 5100POPS   C3A61723  26.080  29.913   6.646 -0.2121  0.2704  0.2180
 5100POPS   C4A61724  26.182  29.803   6.226  0.0699  0.0278  0.2511
 5100POPS   C1B61725  26.655  30.875   6.948  0.0984  0.0429  0.0592
 5100POPS   C2B61726  26.691  30.735   6.491 -0.1482 -0.2598 -0.2172
 5100POPS   C3B61727  26.742  30.450   6.122 -0.0335  0.1313  0.1100
 5100POPS   C4B61728  27.066  30.316   5.809  0.1092 -0.0070  0.0139
 5101POPS   CNO61729  28.031   9.787   8.371  0.1968 -0.2141 -0.0429
 5101POPS   PO461730  27.896   9.817   7.998  0.2174 -0.0187  0.1333
 5101POPS   GL161731  27.861   9.678   7.684 -0.0259 -0.1538 -0.1989
 5101POPS   GL261732  28.148   9.709   7.564 -0.2225 -0.2718  0.1556
 5101POPS   C1A61733  27.548   9.587   7.329 -0.1998 -0.0320 -0.2032
 5101POPS   D2A61734  27.465   9.310   7.000 -0.1525  0.0298 -0.0158
 5101POPS   C3A61735  27.201   9.428   6.661  0.2493  0.0327 -0.0816
 5101POPS   C4A61736  26.825   9.690   6.550 -0.1821 -0.0191  0.1480
 5101POPS   C1B61737  27.992   9.868   7.206 -0.2074 -0.3443  0.2315
 5101POPS   C2B61738  27.876   9.670   6.797  0.1217  0.0666 -0.0030
 5101POPS   C3B61739  27.681   9.547   6.372 -0.0282 -0.0966 -0.1121
 5101POPS   C4B61740  27.244   9.764   6.315 -0.0246  0.2141 -0.1550
 5102POPS   CNO61741  24.756  14.160   8.379 -0.1980 -0.0609  0.1972
 5102POPS   PO461742  24.551  13.902   8.186  0.0660 -0.1378  0.1626
 5102POPS   GL161743  24.643  14.044   7.866  0.0396  0.0011  0.1735
 5102POPS   GL261744  24.380  14.016   7.693  0.2884  0.3305 -0.0108
 5102POPS   C1A61745  24.622  14.393   7.525  0.3945  0.0501 -0.1858
 5102POPS   D2A61746  24.664  14.867   7.502 -0.0282 -0.0369  0.2956
 5102POPS   C3A61747  24.898  15.168   7.257  0.0385 -0.0209 -0.0956
 5102POPS   C4A61748  25.325  15.323   7.292 -0.0796 -0.1959 -0.0010
 5102POPS   C1B61749  24.671  13.890   7.368  0.2013  0.0151 -0.0848
 5102POPS   C2B61750  24.750  14.191   6.963  0.1595 -0.0281  0.1103
 5102POPS   C3B61751  24.518  14.506   6.715 -0.2074  0.1214 -0.1290
 5102POPS   C4B61752  24.205  14.777   6.471 -0.1512 -0.2466  0.2082
 5103POPS   CNO61753  30.159   3.947   8.001 -0.0162  0.1305  0.2628
 5103POPS   PO461754  30.123   3.863   7.647  0.0440 -0.0766  0.0615
 5103POPS   GL161755  30.202   3.954   7.222 -0.0120 -0.1070  0.1217
 5103POPS   GL261756  30.327   3.684   7.103 -0.0835 -0.4144  0.0260
 5103POPS   C1A61757  30.642   4.087   7.115 -0.0955  0.1132 -0.2279
 5103POPS   D2A61758  30.815   4.146   6.683 -0.1932 -0.1267 -0.0177
 5103POPS   C3A61759  31.249   4.220   6.662 -0.0017  0.0572 -0.0840
 5103POPS   C4A61760  31.721   4.179   6.738  0.2397 -0.1963 -0.2219
 5103POPS   C1B61761  30.497   3.828   6.689  0.1202  0.0580 -0.0541
 5103POPS   C2B61762  30.715   3.847   6.263  0.0960 -0.1337  0.2077
 5103POPS   C3B61763  31.087   4.132   6.150  0.1171 -0.1160 -0.2646
 5103POPS   C4B61764  31.200   4.486   5.856  0.0890 -0.1019  0.0465
 5104POPS   CNO61765  29.444  18.969   7.638  0.4468  0.2750  0.2667
 5104POPS   PO461766  29.626  18.646   7.614 -0.1234  0.3971  0.1581
 5104POPS   GL161767  29.652  18.787   7.226 -0.3695 -0.0157  0.2570
 5104POPS   GL261768  29.494  18.931   7.103  0.0723  0.0924  0.0244
 5104POPS   C1A61769  29.940  18.888   6.936 -0.1162  0.0178 -0.0525
 5104POPS   D2A61770  30.114  18.764   6.480 -0.0930  0.1175 -0.0872
 5104POPS   C3A61771  29.915  18.861   6.116 -0.0907 -0.1567 -0.0983
 5104POPS   C4A61772  29.513  19.032   5.976  0.0943  0.1626 -0.1896
 5104POPS   C1B61773  29.410  18.899   6.655 -0.0926  0.2093 -0.0493
 5104POPS   C2B61774  29.253  18.709   6.298  0.1340  0.1794  0.1128
 5104POPS   C3B61775  29.248  18.666   5.811  0.0909 -0.2849 -0.0759
 5104POPS   C4B61776  29.637  18.640   5.615  0.0558  0.1320  0.1706
 5105POPS   CNO61777   1.635  29.150   8.193  0.1312  0.4092 -0.1264
 5105POPS   PO461778   1.447  28.871   8.032 -0.2352  0.1578  0.0584
 5105POPS   GL161779   1.361  28.954   7.703 -0.2519  0.0422  0.0399
 5105POPS   GL261780   1.521  28.872   7.470  0.5299 -0.1061  0.1573
 5105POPS   C1A61781   1.051  28.897   7.352  0.0913 -0.0373  0.1015
 5105POPS   D2A61782   0.856  28.722   6.976  0.1668  0.1418  0.0460
 5105POPS   C3A61783   0.780  28.823   6.524 -0.1784 -0.3238  0.0175
 5105POPS   C4A61784   0.726  29.083   6.166  0.0656 -0.0618 -0.1504
 5105POPS   C1B61785   1.362  28.857   6.994  0.0082  0.2234  0.3394
 5105POPS   C2B61786   1.250  28.685   6.566  0.1091  0.1118  0.2177
 5105POPS   C3B61787   1.072  28.631   6.118 -0.1840  0.1865 -0.1257
 5105POPS   C4B61788   0.787  28.348   5.820 -0.1030  0.2402 -0.1610
 5106POPS   CNO61789  28.381  18.306   7.194 -0.0411 -0.2122 -0.1996
 5106POPS   PO461790  28.179  18.570   7.388 -0.0081  0.4823  0.2566
 5106POPS   GL161791  28.098  18.659   7.039 -0.1027 -0.1578  0.2519
 5106POPS   GL261792  28.334  18.722   6.955 -0.0601 -0.1756  0.1562
 5106POPS   C1A61793  28.024  19.074   6.823 -0.0466 -0.2640 -0.0565
 5106POPS   D2A61794  27.794  19.212   6.417 -0.2510 -0.2340 -0.1515
 5106POPS   C3A61795  27.950  19.401   6.061 -0.0945  0.4614  0.0722
 5106POPS   C4A61796  27.843  19.448   5.626 -0.0354 -0.4729 -0.0237
 5106POPS   C1B61797  28.117  18.671   6.525 -0.2134  0.2057 -0.2294
 5106POPS   C2B61798  27.856  18.805   6.173 -0.0372  0.0003  0.0038
 5106POPS   C3B61799  27.522  18.918   5.891  0.0787  0.0630 -0.3596
 5106POPS   C4B61800  27.394  18.766   5.476 -0.0899  0.1646  0.2090
 5107POPS   CNO61801  22.591   4.501   7.912  0.0378  0.1774 -0.4277
 5107POPS   PO461802  22.614   4.519   7.554 -0.2007 -0.0709 -0.0017
 5107POPS   GL161803  22.768   4.189   7.300  0.0174 -0.2394  0.2562
 5107POPS   GL261804  23.030   4.029   7.312 -0.1730 -0.1626  0.0369
 5107POPS   C1A61805  22.712   3.854   6.964 -0.2163  0.3065  0.0126
 5107POPS   D2A61806  22.606   3.916   6.526  0.1420  0.1796  0.1247
 5107POPS   C3A61807  22.323   3.620   6.297 -0.1861  0.0181  0.0488
 5107POPS   C4A61808  22.163   3.362   5.944  0.2395  0.1745  0.0444
 5107POPS   C1B61809  23.243   4.006   6.931  0.3435 -0.3012  0.1529
 5107POPS   C2B61810  23.281   4.016   6.471  0.2093  0.1439 -0.0252
 5107POPS   C3B61811  22.994   3.748   6.217 -0.1084 -0.0151 -0.3284
 5107POPS   C4B61812  23.040   3.367   5.945  0.1538 -0.2927  0.0517
 5108POPS   CNO61813   9.723  16.826   8.115  0.2533 -0.1328  0.1144
 5108POPS   PO461814   9.762  16.861   7.739 -0.4023 -0.0050  0.0614
 5108POPS   GL161815   9.936  17.101   7.459  0.0601 -0.1003 -0.4871
 5108POPS   GL261816   9.763  17.334   7.372  0.0034 -0.0414 -0.0138
 5108POPS   C1A61817  10.043  17.188   7.027 -0.0357  0.0023 -0.1571
 5108POPS   D2A61818  10.132  17.567   6.723  0.1588  0.1996  0.0278
 5108POPS   C3A61819  10.319  17.600   6.269  0.0133  0.2237  0.0330
 5108POPS   C4A61820  10.543  17.809   5.936 -0.2609  0.0965 -0.0769
 5108POPS   C1B61821   9.903  17.671   7.167  0.1238  0.0816  0.1587
 5108POPS   C2B61822   9.861  17.971   6.811 -0.0096 -0.0779  0.5041
 5108POPS   C3B61823   9.565  17.955   6.520  0.0482 -0.1064 -0.0916
 5108POPS   C4B61824   9.319  17.973   6.090 -0.2703  0.3026  0.0316
 5109POPS   CNO61825   5.199  24.506   8.178  0.0428 -0.1239 -0.0184
 5109POPS   PO461826   5.212  24.813   7.980 -0.2347  0.2546  0.1556
 5109POPS   GL161827   5.305  24.680   7.634  0.2148  0.1472 -0.3442
 5109POPS   GL261828   5.384  24.331   7.747  0.0533  0.0247 -0.1215
 5109POPS   C1A61829   5.080  24.465   7.228 -0.2278  0.0603  0.0832
 5109POPS   D2A61830   4.817  24.585   6.881  0.0299  0.0128 -0.2106
 5109POPS   C3A61831   4.651  24.270   6.578  0.4437  0.2743 -0.0196
 5109POPS   C4A61832   4.467  24.157   6.199  0.0016  0.1905 -0.0344
 5109POPS   C1B61833   5.300  24.032   7.453  0.2306 -0.0076  0.1022
 5109POPS   C2B61834   5.036  23.711   7.189  0.0073  0.0305  0.2349
 5109POPS   C3B61835   4.752  23.636   6.804  0.0362 -0.0170  0.0855
 5109POPS   C4B61836   4.786  23.788   6.369  0.1786  0.2304  0.0753
 5110POPS   CNO61837  14.428  15.942   7.508 -0.1879 -0.0127  0.1402
 5110POPS   PO461838  14.156  16.147   7.317  0.1350  0.1154 -0.2514
 5110POPS   GL161839  13.932  16.200   7.091 -0.0807  0.0262  0.0852
 5110POPS   GL261840  13.957  16.567   7.040  0.2145 -0.1208 -0.0082
 5110POPS   C1A61841  13.786  16.053   6.685 -0.0097  0.1313  0.0205
 5110POPS   D2A61842  13.811  15.956   6.225  0.0372  0.0459  0.1491
 5110POPS   C3A61843  13.840  15.615   5.944  0.0548  0.2657  0.2682
 5110POPS   C4A61844  13.819  15.316   5.557 -0.1782 -0.0833  0.1942
 5110POPS   C1B61845  13.911  16.562   6.580 -0.1111  0.0594 -0.0703
 5110POPS   C2B61846  13.688  16.421   6.238  0.0348 -0.0865 -0.2125
 5110POPS   C3B61847  13.527  16.194   5.900 -0.2580  0.0328 -0.0054
 5110POPS   C4B61848  13.728  15.930   5.567 -0.0600 -0.2547  0.6640
 5111POPS   CNO61849   9.832  15.293   7.492 -0.0150  0.1757  0.0394
 5111POPS   PO461850   9.967  14.936   7.508  0.0713 -0.0303 -0.2888
 5111POPS   GL161851   9.929  14.782   7.186 -0.2692  0.2767 -0.0470
 5111POPS   GL261852  10.104  14.524   7.209  0.0151 -0.1546  0.0373
 5111POPS   C1A61853   9.750  14.658   6.722 -0.0058  0.0386 -0.3203
 5111POPS   D2A61854   9.738  14.522   6.335 -0.0629 -0.0919  0.5023
 5111POPS   C3A61855   9.952  14.741   5.940  0.0399 -0.1692  0.0552
 5111POPS   C4A61856  10.235  15.037   5.785 -0.0164 -0.1475  0.1425
 5111POPS   C1B61857  10.385  14.455   6.889  0.2930 -0.0842  0.2063
 5111POPS   C2B61858  10.508  14.359   6.431  0.1161 -0.1572 -0.0990
 5111POPS   C3B61859  10.766  14.279   6.036 -0.0751 -0.1293  0.0373
 5111POPS   C4B61860  10.881  14.564   5.658  0.3048 -0.0017 -0.2810
 5112POPS   CNO61861  25.372   4.410   8.166  0.1918  0.2883  0.1684
 5112POPS   PO461862  25.658   4.377   8.470 -0.2501 -0.0925 -0.0907
 5112POPS   GL161863  25.744   3.997   8.154  0.3197  0.0277 -0.0040
 5112POPS   GL261864  25.622   4.025   7.880  0.0062 -0.0481 -0.0338
 5112POPS   C1A61865  25.670   3.523   8.026  0.0444  0.4387 -0.1704
 5112POPS   D2A61866  25.433   3.108   7.993 -0.3080 -0.1386 -0.2668
 5112POPS   C3A61867  25.448   2.700   7.821  0.0526  0.0164 -0.0161
 5112POPS   C4A61868  25.599   2.323   8.014 -0.1459  0.4388 -0.0569
 5112POPS   C1B61869  25.848   3.774   7.571  0.3028 -0.0993 -0.1216
 5112POPS   C2B61870  25.995   3.550   7.197 -0.0766  0.2023 -0.0218
 5112POPS   C3B61871  26.161   3.419   6.780  0.0922 -0.3634  0.0979
 5112POPS   C4B61872  26.579   3.373   6.560 -0.0905  0.0000 -0.2172
 5113POPS   CNO61873  18.726  14.321   8.008 -0.2536  0.1888 -0.1762
 5113POPS   PO461874  19.007  14.258   7.758 -0.0221 -0.2060 -0.2107
 5113POPS   GL161875  18.938  14.280   7.320 -0.0261  0.2034  0.1182
 5113POPS   GL261876  19.198  14.122   7.306 -0.1589  0.0126  0.0366
 5113POPS   C1A61877  18.656  14.450   7.002  0.0607 -0.3170 -0.0210
 5113POPS   D2A61878  18.264  14.537   6.775  0.0089 -0.4285 -0.0216
 5113POPS   C3A61879  18.216  14.212   6.479 -0.1123  0.0832  0.1295
 5113POPS   C4A61880  18.103  14.116   6.035 -0.1467 -0.1757  0.0789
 5113POPS   C1B61881  19.109  14.204   6.824 -0.3909 -0.0692 -0.0501
 5113POPS   C2B61882  18.785  14.302   6.464  0.1763 -0.2376  0.0230
 5113POPS   C3B61883  18.594  14.305   6.088 -0.2719 -0.1834  0.0930
 5113POPS   C4B61884  18.394  14.267   5.667 -0.1790 -0.2368  0.0920
 5114POPS   CNO61885   2.804  23.790   8.459  0.2350  0.1726 -0.0343
 5114POPS   PO461886   3.081  23.875   8.189  0.0437 -0.1631 -0.0721
 5114POPS   GL161887   3.339  23.713   7.834 -0.1939 -0.1838 -0.2857
 5114POPS   GL261888   3.035  23.580   7.687  0.1099 -0.2053 -0.1564
 5114POPS   C1A61889   3.415  23.681   7.340 -0.0186 -0.1123 -0.0298
 5114POPS   D2A61890   3.630  23.493   7.022 -0.3161 -0.2552  0.0898
 5114POPS   C3A61891   3.706  23.690   6.620 -0.1450  0.2137  0.0261
 5114POPS   C4A61892   3.422  23.623   6.251 -0.0775  0.0741 -0.1166
 5114POPS   C1B61893   2.926  23.677   7.209 -0.2530  0.2231 -0.0048
 5114POPS   C2B61894   3.193  23.613   6.824  0.0451  0.2246  0.0680
 5114POPS   C3B61895   3.026  23.419   6.501  0.0440  0.4797 -0.1628
 5114POPS   C4B61896   3.011  23.353   6.037  0.2877  0.1048  0.3338
 5115POPS   CNO61897  13.913   0.009   7.763 -0.2849 -0.1022  0.4769
 5115POPS   PO461898  14.070  -0.312   7.864  0.0357  0.1632  0.1850
 5115POPS   GL161899  13.916  -0.346   7.517 -0.2626  0.2225 -0.2114
 5115POPS   GL261900  14.060  -0.250   7.350  0.1864 -0.2508 -0.3480
 5115POPS   C1A61901  13.801  -0.682   7.227  0.1745  0.1259  0.1120
 5115POPS   D2A61902  13.850  -0.860   6.800  0.0566 -0.1738  0.0976
 5115POPS   C3A61903  13.877  -0.797   6.321 -0.3263 -0.0049  0.1852
 5115POPS   C4A61904  14.009  -0.917   5.912  0.0795  0.1097 -0.1311
 5115POPS   C1B61905  14.232  -0.452   7.019 -0.1099 -0.1844 -0.2854
 5115POPS   C2B61906  14.295  -0.603   6.585 -0.1424 -0.0212 -0.3079
 5115POPS   C3B61907  14.447  -0.889   6.245  0.0557  0.1583  0.1556
 5115POPS   C4B61908  14.683  -0.785   5.846 -0.1319  0.2206 -0.3729
 5116POPS   CNO61909   4.534   9.577   7.981  0.1722  0.1205 -0.1086
 5116POPS   PO461910   4.290   9.860   7.949 -0.2526 -0.2050  0.0143
 5116POPS   GL161911   4.442   9.757   7.546  0.3036  0.1593  0.3754
 5116POPS   GL261912   4.268  10.009   7.496 -0.1454 -0.2008 -0.0749
 5116POPS   C1A61913   4.352   9.812   7.080 -0.1167 -0.1191  0.1200
 5116POPS   D2A61914   4.547  10.141   6.789  0.2891  0.2993 -0.1390
 5116POPS   C3A61915   4.456  10.159   6.348  0.1338 -0.0172 -0.0548
 5116POPS   C4A61916   4.672  10.218   5.958 -0.0563  0.0781 -0.0323
 5116POPS   C1B61917   4.598  10.241   7.296  0.0489  0.1104 -0.1113
 5116POPS   C2B61918   4.761  10.544   6.978 -0.0329 -0.0298 -0.0112
 5116POPS   C3B61919   4.600  10.617   6.521 -0.1527 -0.2888  0.1911
 5116POPS   C4B61920   4.294  10.585   6.188 -0.1117  0.0500 -0.2065
 5117POPS   CNO61921   7.973  20.523   8.118 -0.1663 -0.0139  0.0127
 5117POPS   PO461922   8.059  20.816   7.960 -0.2431 -0.2130  0.2044
 5117POPS   GL161923   8.079  20.893   7.569  0.0169  0.2522  0.1733
 5117POPS   GL261924   8.035  21.156   7.469  0.4673 -0.2986 -0.4065
 5117POPS   C1A61925   8.530  20.841   7.376 -0.5030  0.2341  0.1587
 5117POPS   D2A61926   8.805  20.853   7.065  0.2476 -0.0687 -0.0327
 5117POPS   C3A61927   8.778  20.714   6.630  0.1740 -0.0653  0.0768
 5117POPS   C4A61928   8.558  20.685   6.249  0.1915  0.3326 -0.0129
 5117POPS   C1B61929   7.900  20.875   7.152  0.0284  0.1054  0.1448
 5117POPS   C2B61930   8.270  20.712   6.922 -0.2502 -0.0783  0.0157
 5117POPS   C3B61931   8.325  20.395   6.599 -0.1486  0.1917  0.0125
 5117POPS   C4B61932   8.187  20.256   6.135  0.1267  0.0820 -0.0094
 5118POPS   CNO61933  11.249  10.504   7.795 -0.3257 -0.1937  0.0357
 5118POPS   PO461934  11.576  10.338   7.726 -0.0703 -0.1569 -0.1538
 5118POPS   GL161935  11.542  10.299   7.341 -0.0903  0.1164  0.1975
 5118POPS   GL261936  11.789  10.144   7.278 -0.0186  0.4038  0.0242
 5118POPS   C1A61937  11.413  10.496   6.946 -0.0016  0.0119  0.1939
 5118POPS   D2A61938  11.230  10.511   6.462  0.1431  0.1805  0.1436
 5118POPS   C3A61939  11.070  10.805   6.179 -0.1086 -0.1971 -0.2546
 5118POPS   C4A61940  11.153  11.209   5.985 -0.1446  0.0517 -0.0725
 5118POPS   C1B61941  11.775  10.188   6.862 -0.2579  0.0568 -0.2146
 5118POPS   C2B61942  12.097  10.168   6.541 -0.2460 -0.0807  0.0669
 5118POPS   C3B61943  12.186  10.263   6.107  0.1389  0.3043  0.0044
 5118POPS   C4B61944  12.063  10.120   5.697  0.0363  0.2278 -0.0077
 5119POPS   CNO61945  17.979  11.099   8.628  0.1419 -0.2036  0.0269
 5119POPS   PO461946  18.190  10.986   8.303 -0.2612 -0.1304  0.1556
 5119POPS   GL161947  18.096  10.737   8.012  0.3144  0.0108 -0.3135
 5119POPS   GL261948  18.217  10.724   7.771 -0.1434 -0.0093 -0.0960
 5119POPS   C1A61949  17.733  10.688   7.753  0.1755 -0.0768 -0.1399
 5119POPS   D2A61950  17.347  10.724   7.539 -0.0457  0.1244 -0.0974
 5119POPS   C3A61951  17.198  10.895   7.141  0.0707 -0.1518 -0.1550
 5119POPS   C4A61952  17.259  10.764   6.721  0.2912  0.0088  0.2439
 5119POPS   C1B61953  18.499  10.874   7.400  0.0942 -0.1848  0.1346
 5119POPS   C2B61954  18.339  11.061   7.041  0.1572  0.0155 -0.1564
 5119POPS   C3B61955  18.129  11.093   6.570 -0.0875  0.1723  0.1817
 5119POPS   C4B61956  18.102  11.189   6.140  0.0380 -0.4414 -0.3018
 5120POPS   CNO61957  16.188  17.061   8.124 -0.0109 -0.1438  0.0423
 5120POPS   PO461958  16.522  17.245   8.118  0.1507  0.2321  0.0805
 5120POPS   GL161959  16.563  17.426   7.742 -0.0597 -0.2051 -0.1561
 5120POPS   GL261960  16.859  17.517   7.825  0.5625 -0.1784  0.1626
 5120POPS   C1A61961  16.475  17.219   7.309  0.2057  0.3583  0.0034
 5120POPS   D2A61962  16.423  17.222   6.849 -0.0899 -0.0056 -0.1584
 5120POPS   C3A61963  16.464  17.204   6.391 -0.2068 -0.0481 -0.0332
 5120POPS   C4A61964  16.772  17.252   6.042  0.2560  0.0276 -0.3191
 5120POPS   C1B61965  16.840  17.505   7.356  0.0494 -0.0982 -0.1043
 5120POPS   C2B61966  16.897  17.579   6.888  0.0239 -0.4012  0.2563
 5120POPS   C3B61967  16.959  17.687   6.403 -0.1578  0.0072  0.0527
 5120POPS   C4B61968  17.068  17.746   5.961  0.2347  0.1605 -0.2854
 5121POPS   CNO61969  24.992  31.342   7.929  0.1921 -0.2355 -0.3832
 5121POPS   PO461970  25.065  31.018   7.711  0.0938 -0.0084  0.0046
 5121POPS   GL161971  25.066  31.035   7.384  0.0078 -0.0471  0.2927
 5121POPS   GL261972  25.221  30.898   7.243 -0.0545  0.0191 -0.0463
 5121POPS   C1A61973  25.018  31.367   7.052  0.1090  0.2596 -0.2077
 5121POPS   D2A61974  24.851  31.623   6.730  0.0880  0.1594 -0.0499
 5121POPS   C3A61975  24.782  31.927   6.440 -0.1550  0.1446  0.0179
 5121POPS   C4A61976  24.476  32.050   6.210  0.0581  0.1946 -0.0693
 5121POPS   C1B61977  25.203  30.934   6.724 -0.0974 -0.0856 -0.1070
 5121POPS   C2B61978  25.327  30.954   6.278  0.3950 -0.2163 -0.3545
 5121POPS   C3B61979  25.461  30.844   5.827  0.0033  0.1428  0.2583
 5121POPS   C4B61980  25.868  30.988   5.647 -0.0355 -0.1784 -0.1349
 5122POPS   CNO61981   7.765  30.514   8.098  0.1238  0.0897 -0.0270
 5122POPS   PO461982   7.920  30.736   7.843 -0.0186  0.2880 -0.0387
 5122POPS   GL161983   7.718  30.463   7.606 -0.0415  0.2910 -0.0194
 5122POPS   GL261984   7.479  30.515   7.673 -0.1718 -0.0973 -0.0968
 5122POPS   C1A61985   7.644  30.496   7.156 -0.1631 -0.3569 -0.1024
 5122POPS   D2A61986   7.901  30.717   6.801 -0.2338  0.1428 -0.0293
 5122POPS   C3A61987   7.827  30.710   6.315 -0.0769 -0.1473  0.1749
 5122POPS   C4A61988   7.922  30.607   5.883 -0.1711 -0.1430  0.2327
 5122POPS   C1B61989   7.359  30.935   7.470 -0.0395 -0.4063 -0.3603
 5122POPS   C2B61990   7.034  31.068   7.230  0.0952  0.0621  0.0548
 5122POPS   C3B61991   6.835  31.300   6.861  0.2234  0.1791  0.0660
 5122POPS   C4B61992   6.767  31.660   6.548  0.2101  0.0031 -0.2729
 5123POPS   CNO61993  10.542  10.550   8.311 -0.1361  0.3838  0.0536
 5123POPS   PO461994  10.619  10.736   8.005 -0.1644 -0.4051  0.0655
 5123POPS   GL161995  10.509  11.106   7.940 -0.1222 -0.1793 -0.0404
 5123POPS   GL261996  10.458  11.039   7.613  0.1676  0.0460 -0.1368
 5123POPS   C1A61997  10.401  11.508   7.893 -0.1312 -0.1800  0.0137
 5123POPS   D2A61998  10.217  11.878   8.092  0.0039 -0.1529  0.2776
 5123POPS   C3A61999  10.227  12.267   7.916 -0.1565 -0.0723 -0.2180
 5123POPS   C4A62000  10.078  12.617   7.696 -0.0254 -0.2252 -0.1296
 5123POPS   C1B62001  10.583  11.144   7.159 -0.0305 -0.0805  0.1313
 5123POPS   C2B62002  10.432  11.434   6.779 -0.1535 -0.1195 -0.0253
 5123POPS   C3B62003  10.355  11.538   6.289 -0.2043  0.2626  0.1841
 5123POPS   C4B62004  10.151  11.900   6.082  0.3428 -0.0969 -0.0837
 5124POPS   CNO62005  24.149   3.668   8.017 -0.2016 -0.3695 -0.0750
 5124POPS   PO462006  23.816   3.765   7.909 -0.0043 -0.0282 -0.2025
 5124POPS   GL162007  23.921   3.573   7.505 -0.2208  0.0147 -0.1082
 5124POPS   GL262008  23.693   3.402   7.422  0.0146 -0.0233  0.0275
 5124POPS   C1A62009  24.282   3.502   7.283  0.0038 -0.1570 -0.0475
 5124POPS   D2A62010  24.645   3.657   7.040 -0.0796 -0.3215 -0.2880
 5124POPS   C3A62011  24.595   3.654   6.584  0.3892 -0.1304 -0.1295
 5124POPS   C4A62012  24.784   3.431   6.225  0.0309  0.0754 -0.1897
 5124POPS   C1B62013  23.607   3.674   7.132  0.0636  0.0580 -0.0283
 5124POPS   C2B62014  23.689   3.860   6.706 -0.1017  0.0117 -0.2134
 5124POPS   C3B62015  23.844   3.874   6.246  0.1952 -0.1907 -0.0870
 5124POPS   C4B62016  24.020   3.778   5.861 -0.0037  0.2684 -0.0849
 5125POPS   CNO62017  30.562  26.829   8.408  0.0678  0.1135  0.1940
 5125POPS   PO462018  30.298  26.659   8.228 -0.0906  0.1427 -0.0852
 5125POPS   GL162019  30.418  26.719   7.814  0.0338 -0.1809 -0.0226
 5125POPS   GL262020  30.642  26.967   7.921  0.1742 -0.2190  0.1874
 5125POPS   C1A62021  30.218  26.753   7.414 -0.1659  0.0687  0.2353
 5125POPS   D2A62022  29.910  26.795   7.002  0.0168 -0.0615 -0.1852
 5125POPS   C3A62023  30.128  27.046   6.613  0.0985 -0.0068  0.0153
 5125POPS   C4A62024  30.419  27.330   6.381 -0.3132  0.3879 -0.0578
 5125POPS   C1B62025  30.569  27.129   7.504 -0.0642  0.0711  0.1513
 5125POPS   C2B62026  30.766  27.480   7.252 -0.0919 -0.1076  0.1239
 5125POPS   C3B62027  30.733  27.648   6.847  0.1477  0.0497  0.2467
 5125POPS   C4B62028  30.865  27.908   6.471  0.3433  0.2262  0.3104
 5126POPS   CNO62029   2.851  12.006   8.730  0.1850  0.1078  0.2492
 5126POPS   PO462030   2.856  11.941   8.363 -0.1089 -0.2390  0.0005
 5126POPS   GL162031   2.941  12.290   8.287 -0.2150 -0.1920 -0.0743
 5126POPS   GL262032   2.831  12.342   8.029  0.3139 -0.0950  0.1162
 5126POPS   C1A62033   2.762  12.693   8.376  0.1083 -0.1660  0.0045
 5126POPS   D2A62034   2.711  13.088   8.603 -0.1295  0.0836 -0.1454
 5126POPS   C3A62035   2.750  13.360   8.225  0.0673  0.0846  0.0664
 5126POPS   C4A62036   3.005  13.520   7.859 -0.2623 -0.0095  0.2353
 5126POPS   C1B62037   3.072  12.530   7.675 -0.2511  0.0026 -0.1957
 5126POPS   C2B62038   3.183  12.775   7.345 -0.1163  0.4696  0.0869
 5126POPS   C3B62039   3.161  12.738   6.857  0.0161  0.0363 -0.1723
 5126POPS   C4B62040   3.399  12.681   6.500  0.0197  0.1793 -0.1890
 5127POPS   CNO62041  25.059  26.750   7.893 -0.1403  0.1559 -0.0511
 5127POPS   PO462042  24.827  26.693   7.633  0.1467  0.1570 -0.2199
 5127POPS   GL162043  24.783  26.749   7.140 -0.2801 -0.4065  0.1036
 5127POPS   GL262044  24.657  27.045   7.218  0.3273  0.3416  0.2226
 5127POPS   C1A62045  24.540  26.589   6.792  0.1401 -0.0412 -0.0735
 5127POPS   D2A62046  24.499  26.666   6.367 -0.2560 -0.1481  0.1677
 5127POPS   C3A62047  24.566  26.631   5.907 -0.2599 -0.0511 -0.0332
 5127POPS   C4A62048  24.734  26.792   5.511  0.1428 -0.1852 -0.3991
 5127POPS   C1B62049  24.267  26.992   6.952 -0.1313  0.3145  0.4272
 5127POPS   C2B62050  24.133  26.959   6.514 -0.2360 -0.3328  0.2307
 5127POPS   C3B62051  24.136  27.001   6.041  0.4487  0.0016  0.3630
 5127POPS   C4B62052  23.815  27.242   5.717  0.1175  0.0725  0.1169
 5128POPS   CNO62053   7.245  20.122   8.109 -0.0907  0.1315 -0.2399
 5128POPS   PO462054   7.429  20.258   7.787  0.2424  0.1259 -0.0857
 5128POPS   GL162055   7.523  20.253   7.435 -0.1033  0.0298 -0.0393
 5128POPS   GL262056   7.451  20.542   7.383  0.1229  0.1588 -0.1032
 5128POPS   C1A62057   7.380  20.060   7.044 -0.0062  0.3459  0.0503
 5128POPS   D2A62058   7.375  20.113   6.613 -0.0772 -0.3402  0.2920
 5128POPS   C3A62059   7.177  20.466   6.473 -0.2472  0.1224 -0.0958
 5128POPS   C4A62060   6.743  20.683   6.414  0.0750 -0.0173 -0.0809
 5128POPS   C1B62061   7.353  20.930   7.221 -0.0589  0.0782  0.0250
 5128POPS   C2B62062   6.974  21.211   7.084  0.1094 -0.0601  0.4014
 5128POPS   C3B62063   6.637  21.444   6.901 -0.0624  0.1801  0.1337
 5128POPS   C4B62064   6.440  21.858   6.914  0.1822  0.0449 -0.0586
 5129POPS   CNO62065  28.025  19.250   8.017  0.2816  0.0800  0.2172
 5129POPS   PO462066  27.971  19.478   7.721  0.4437 -0.0197  0.0624
 5129POPS   GL162067  27.913  19.744   7.456 -0.2678  0.2136 -0.1522
 5129POPS   GL262068  27.685  19.847   7.385  0.1207 -0.1794  0.1229
 5129POPS   C1A62069  28.162  20.068   7.198  0.1671  0.0294 -0.0144
 5129POPS   D2A62070  28.182  20.120   6.749  0.0090  0.0972  0.1009
 5129POPS   C3A62071  27.804  20.028   6.477  0.1205  0.1564  0.0061
 5129POPS   C4A62072  27.501  19.763   6.539 -0.0973 -0.2148  0.1531
 5129POPS   C1B62073  27.710  20.094   7.018  0.1234 -0.1536 -0.1386
 5129POPS   C2B62074  27.462  20.316   6.730 -0.0103 -0.3028  0.0777
 5129POPS   C3B62075  27.239  20.518   6.361 -0.1661  0.0503  0.1800
 5129POPS   C4B62076  26.819  20.634   6.144  0.2218  0.2061 -0.0809
 5130POPS   CNO62077  11.672  14.562   7.824 -0.2076  0.2336  0.1465
 5130POPS   PO462078  12.033  14.484   7.768  0.2124 -0.2936  0.1333
 5130POPS   GL162079  11.850  14.376   7.333  0.2792  0.0532 -0.0683
 5130POPS   GL262080  11.550  14.424   7.334 -0.1015 -0.1940  0.0887
 5130POPS   C1A62081  11.753  13.945   7.126 -0.0145 -0.1615 -0.0721
 5130POPS   D2A62082  11.882  13.883   6.697  0.0460 -0.0360  0.0438
 5130POPS   C3A62083  11.879  13.579   6.400  0.0197 -0.0014 -0.1508
 5130POPS   C4A62084  11.754  13.490   5.985 -0.2632  0.0831  0.2269
 5130POPS   C1B62085  11.652  14.396   6.855 -0.3937  0.3566 -0.2370
 5130POPS   C2B62086  11.696  14.244   6.385 -0.1057 -0.3460  0.0097
 5130POPS   C3B62087  11.939  14.432   6.028 -0.0495  0.0681  0.0683
 5130POPS   C4B62088  12.177  14.476   5.586  0.1659  0.1051  0.0548
 5131POPS   CNO62089  23.091  23.787   7.733  0.0124 -0.0483 -0.2542
 5131POPS   PO462090  22.866  24.090   7.628  0.0158 -0.2259  0.0072
 5131POPS   GL162091  22.981  24.232   7.341  0.0794 -0.1457  0.1558
 5131POPS   GL262092  23.236  24.138   7.231  0.2038  0.1092  0.0228
 5131POPS   C1A62093  22.896  24.027   6.902  0.0084 -0.1595 -0.0153
 5131POPS   D2A62094  22.719  23.871   6.480  0.1041  0.1348 -0.1625
 5131POPS   C3A62095  22.601  23.674   6.088  0.3226  0.3831  0.3904
 5131POPS   C4A62096  22.689  23.516   5.681  0.4188  0.2050 -0.4605
 5131POPS   C1B62097  23.375  23.847   6.944 -0.0851  0.1169 -0.2047
 5131POPS   C2B62098  23.266  23.756   6.488  0.3356 -0.1040 -0.0246
 5131POPS   C3B62099  23.095  23.762   6.063  0.1833 -0.0473 -0.0929
 5131POPS   C4B62100  22.978  23.984   5.667  0.1775  0.1235 -0.0247
 5132POPS   CNO62101  26.234  20.578   8.125 -0.2278  0.2591  0.0777
 5132POPS   PO462102  26.566  20.505   7.957 -0.0702 -0.2922 -0.0030
 5132POPS   GL162103  26.412  20.656   7.685  0.0517  0.0485  0.3235
 5132POPS   GL262104  26.473  20.517   7.432  0.0464 -0.0737 -0.4077
 5132POPS   C1A62105  26.418  21.036   7.386  0.0746  0.2423 -0.1026
 5132POPS   D2A62106  26.660  21.375   7.448 -0.0289  0.1972 -0.0741
 5132POPS   C3A62107  26.670  21.755   7.217  0.0503 -0.0921  0.1622
 5132POPS   C4A62108  26.570  21.925   6.831 -0.0051  0.2262  0.1614
 5132POPS   C1B62109  26.546  20.779   7.029 -0.1147 -0.0070  0.1119
 5132POPS   C2B62110  26.221  20.798   6.653  0.0670 -0.0763  0.1308
 5132POPS   C3B62111  25.972  20.888   6.351  0.1185  0.2220  0.0188
 5132POPS   C4B62112  25.688  20.767   5.986 -0.1070 -0.1055  0.5963
 5133POPS   CNO62113  28.966   7.337   8.004 -0.0210 -0.2561  0.2080
 5133POPS   PO462114  29.244   7.170   7.825 -0.0755  0.0042  0.1031
 5133POPS   GL162115  29.130   7.236   7.377  0.2172  0.1513 -0.0218
 5133POPS   GL262116  29.250   6.993   7.290  0.0167  0.0845  0.2946
 5133POPS   C1A62117  28.885   7.221   6.974  0.0191  0.0681 -0.0682
 5133POPS   D2A62118  28.903   7.506   6.598 -0.0140 -0.3050 -0.0254
 5133POPS   C3A62119  28.907   7.321   6.149 -0.0176 -0.1759  0.0070
 5133POPS   C4A62120  28.902   7.187   5.692 -0.0964  0.0190 -0.2718
 5133POPS   C1B62121  29.172   6.853   6.849  0.0198  0.0234  0.1400
 5133POPS   C2B62122  28.952   6.808   6.397  0.2352 -0.3474 -0.1536
 5133POPS   C3B62123  29.051   6.743   5.948 -0.1046  0.1174 -0.2874
 5133POPS   C4B62124  29.306   6.611   5.625 -0.1144  0.0482 -0.1259
 5134POPS   CNO62125   1.486   8.657   7.419 -0.0813 -0.0082  0.2038
 5134POPS   PO462126   1.237   8.454   7.597  0.4972 -0.1666  0.1082
 5134POPS   GL162127   1.203   8.318   7.171  0.2127  0.1063 -0.2405
 5134POPS   GL262128   1.077   8.539   6.982  0.0539  0.1463 -0.2964
 5134POPS   C1A62129   1.329   8.241   6.703 -0.0750  0.1803  0.3351
 5134POPS   D2A62130   1.137   7.903   6.442  0.2799 -0.0015  0.3810
 5134POPS   C3A62131   1.204   7.908   5.964 -0.0188  0.1022 -0.0726
 5134POPS   C4A62132   1.451   8.127   5.670 -0.0197 -0.1539  0.1446
 5134POPS   C1B62133   1.112   8.636   6.524 -0.1107  0.2596  0.2655
 5134POPS   C2B62134   1.111   8.807   6.062  0.0825  0.1987 -0.1677
 5134POPS   C3B62135   1.198   9.174   5.835 -0.0271  0.1025  0.2472
 5134POPS   C4B62136   0.923   9.418   5.523 -0.0833  0.0044  0.0866
 5135POPS   CNO62137   1.167   7.928   7.419 -0.2969  0.0053 -0.1067
 5135POPS   PO462138   0.813   7.777   7.453 -0.0597 -0.2619  0.2499
 5135POPS   GL162139   0.933   7.689   7.057  0.0784  0.2394 -0.0277
 5135POPS   GL262140   0.970   7.946   6.943 -0.1389  0.1367  0.2764
 5135POPS   C1A62141   0.937   7.457   6.644 -0.0228  0.1546 -0.3201
 5135POPS   D2A62142   0.944   7.222   6.257  0.1687  0.2824  0.0656
 5135POPS   C3A62143   1.063   7.340   5.821  0.0217 -0.0930  0.1558
 5135POPS   C4A62144   1.241   7.686   5.545  0.0809  0.3363 -0.1184
 5135POPS   C1B62145   0.793   8.241   6.600 -0.0927  0.3937  0.1378
 5135POPS   C2B62146   0.869   8.261   6.134 -0.0660 -0.1024 -0.0210
 5135POPS   C3B62147   1.040   8.424   5.754  0.0559  0.5168  0.1938
 5135POPS   C4B62148   0.957   8.815   5.490 -0.1497 -0.4443  0.0690
 5136POPS   CNO62149  29.421   2.492   7.474  0.0495 -0.2026 -0.1388
 5136POPS   PO462150  29.642   2.339   7.700 -0.0854  0.1923  0.0195
 5136POPS   GL162151  29.548   2.074   7.369 -0.2052 -0.1539  0.1776
 5136POPS   GL262152  29.522   1.753   7.394 -0.1780  0.1463  0.0648
 5136POPS   C1A62153  29.453   2.164   6.965  0.0647  0.2426  0.1464
 5136POPS   D2A62154  29.112   2.333   6.786  0.2340  0.0533  0.0636
 5136POPS   C3A62155  28.844   2.177   6.412 -0.0252  0.1646 -0.1396
 5136POPS   C4A62156  28.545   1.882   6.153 -0.1688 -0.4202 -0.0004
 5136POPS   C1B62157  29.389   1.414   7.155  0.0955  0.4033 -0.1760
 5136POPS   C2B62158  29.302   1.016   6.996  0.1167  0.0056  0.1509
 5136POPS   C3B62159  29.365   0.754   6.622 -0.0134 -0.1922 -0.1189
 5136POPS   C4B62160  29.301   0.669   6.149  0.2339 -0.0193 -0.1380
 5137POPS   CNO62161  21.725  13.735   8.015  0.1636 -0.2290  0.1417
 5137POPS   PO462162  21.544  13.466   7.783 -0.3547 -0.0230  0.0917
 5137POPS   GL162163  21.419  13.510   7.367 -0.0306 -0.0304 -0.3876
 5137POPS   GL262164  21.671  13.521   7.294 -0.0117 -0.0205  0.1319
 5137POPS   C1A62165  21.319  13.761   6.983 -0.1983 -0.1937 -0.1199
 5137POPS   D2A62166  20.957  13.899   6.803 -0.0774  0.1591  0.0238
 5137POPS   C3A62167  21.017  13.931   6.329  0.2010  0.0059 -0.0947
 5137POPS   C4A62168  21.087  14.155   5.878 -0.2434  0.3630  0.1108
 5137POPS   C1B62169  21.784  13.591   6.857  0.1361 -0.2484  0.0114
 5137POPS   C2B62170  21.897  13.677   6.415  0.1580 -0.0821 -0.1305
 5137POPS   C3B62171  21.942  13.713   5.961 -0.0663  0.3562  0.0685
 5137POPS   C4B62172  22.107  13.772   5.537  0.2068 -0.1034  0.0793
 5138POPS   CNO62173  14.433  23.002   8.261 -0.1232 -0.1973 -0.0532
 5138POPS   PO462174  14.678  23.248   8.136 -0.1631  0.4112 -0.0746
 5138POPS   GL162175  14.716  23.015   7.841 -0.2780  0.0019 -0.0723
 5138POPS   GL262176  14.811  23.182   7.655 -0.2522  0.1534  0.1500
 5138POPS   C1A62177  14.505  22.873   7.452 -0.2814  0.1226  0.0789
 5138POPS   D2A62178  14.364  22.601   7.128  0.5252  0.0893  0.1048
 5138POPS   C3A62179  14.411  22.771   6.702 -0.0918  0.2444 -0.3136
 5138POPS   C4A62180  14.447  22.753   6.254 -0.0846 -0.1253 -0.3084
 5138POPS   C1B62181  14.633  23.334   7.279  0.0908  0.0791 -0.1144
 5138POPS   C2B62182  14.816  23.510   6.868 -0.0239  0.0444 -0.0652
 5138POPS   C3B62183  14.619  23.585   6.453 -0.4453 -0.0846 -0.0138
 5138POPS   C4B62184  14.635  23.780   6.007  0.2758  0.0510 -0.2978
 5139POPS   CNO62185   9.941  20.750   7.811 -0.0119  0.2852  0.0566
 5139POPS   PO462186   9.853  20.386   7.749  0.0085  0.2501 -0.0129
 5139POPS   GL162187  10.056  20.575   7.431 -0.2952 -0.1982 -0.3980
 5139POPS   GL262188  10.290  20.421   7.452  0.1656 -0.1684 -0.0000
 5139POPS   C1A62189  10.172  20.538   6.974  0.0305 -0.0901  0.0415
 5139POPS   D2A62190  10.168  20.648   6.481  0.0238 -0.3058 -0.3812
 5139POPS   C3A62191   9.867  20.864   6.236  0.0076  0.1765  0.1894
 5139POPS   C4A62192   9.632  20.801   5.850  0.2645  0.2866 -0.1752
 5139POPS   C1B62193  10.595  20.677   7.187  0.2504 -0.2732  0.2025
 5139POPS   C2B62194  10.391  20.973   6.872  0.3510 -0.0168 -0.1664
 5139POPS   C3B62195  10.354  21.105   6.440  0.1764  0.6004  0.0591
 5139POPS   C4B62196  10.306  21.076   5.989 -0.0684 -0.1307 -0.1107
 5140POPS   CNO62197   9.292  19.743   7.760 -0.1473 -0.0582  0.0789
 5140POPS   PO462198   9.678  19.878   7.846  0.0851 -0.1784 -0.0205
 5140POPS   GL162199   9.829  19.931   7.544 -0.0423 -0.4898  0.0594
 5140POPS   GL262200   9.680  19.707   7.371  0.1919 -0.0966 -0.0009
 5140POPS   C1A62201   9.880  20.142   7.127 -0.2455 -0.0721  0.1789
 5140POPS   D2A62202   9.681  20.534   6.921 -0.0763 -0.2637  0.3687
 5140POPS   C3A62203   9.790  20.967   6.681  0.1868  0.1729 -0.2345
 5140POPS   C4A62204  10.006  21.311   6.837 -0.0659 -0.1352  0.0174
 5140POPS   C1B62205   9.712  19.730   6.929  0.1145  0.1355  0.1066
 5140POPS   C2B62206   9.545  19.981   6.536  0.1737  0.3929 -0.4075
 5140POPS   C3B62207   9.286  20.034   6.134 -0.5428 -0.2616  0.1456
 5140POPS   C4B62208   9.390  20.105   5.684  0.0171  0.2079  0.0513
 5141POPS   CNO62209  18.560  14.060   7.545  0.0219  0.1077  0.4057
 5141POPS   PO462210  18.288  13.829   7.702 -0.1195  0.2979 -0.0721
 5141POPS   GL162211  18.232  13.517   7.419  0.3763 -0.2561 -0.1084
 5141POPS   GL262212  18.433  13.636   7.244  0.0356  0.0480 -0.2093
 5141POPS   C1A62213  18.112  13.389   6.984  0.2280  0.0291  0.2899
 5141POPS   D2A62214  18.081  13.310   6.547  0.2624  0.2005  0.2050
 5141POPS   C3A62215  18.254  13.085   6.188  0.2570 -0.1600  0.1641
 5141POPS   C4A62216  18.018  12.679   6.094 -0.2039 -0.0332 -0.0726
 5141POPS   C1B62217  18.696  13.392   6.870  0.1467 -0.1332  0.2267
 5141POPS   C2B62218  18.596  13.172   6.529  0.1249  0.3438  0.1817
 5141POPS   C3B62219  18.536  12.730   6.438 -0.0795 -0.1176  0.1600
 5141POPS   C4B62220  18.341  12.360   6.345  0.0371 -0.0160 -0.2193
 5142POPS   CNO62221  22.980  20.530   7.808 -0.1728 -0.3148 -0.3455
 5142POPS   PO462222  22.666  20.614   7.650 -0.1117  0.1477 -0.0595
 5142POPS   GL162223  22.764  20.740   7.338  0.0607 -0.3316 -0.1628
 5142POPS   GL262224  22.693  21.008   7.390  0.0200  0.0393  0.1248
 5142POPS   C1A62225  22.886  20.533   6.930  0.2457 -0.3174 -0.0548
 5142POPS   D2A62226  22.776  20.587   6.484  0.3979 -0.0163  0.1547
 5142POPS   C3A62227  22.786  20.498   6.044 -0.2325  0.1265 -0.0043
 5142POPS   C4A62228  22.740  20.125   5.812  0.0444  0.0378  0.0487
 5142POPS   C1B62229  22.523  20.916   6.969 -0.1151 -0.3844  0.3744
 5142POPS   C2B62230  22.408  20.936   6.478 -0.1166  0.1279 -0.1128
 5142POPS   C3B62231  22.326  20.597   6.205  0.0173 -0.0447  0.1179
 5142POPS   C4B62232  22.233  20.238   5.936 -0.2550 -0.1983  0.2305
 5143POPS   CNO62233  15.985   0.777   8.040  0.1496  0.0274  0.3457
 5143POPS   PO462234  15.752   0.875   7.753 -0.2246  0.0335  0.0684
 5143POPS   GL162235  15.742   1.067   7.405  0.4360  0.2105  0.1286
 5143POPS   GL262236  15.889   1.322   7.474  0.0192  0.0449  0.0050
 5143POPS   C1A62237  15.568   1.115   6.953 -0.0937  0.1022 -0.1069
 5143POPS   D2A62238  15.462   1.448   6.692  0.3407 -0.0792 -0.1718
 5143POPS   C3A62239  15.582   1.458   6.255  0.0552  0.0666 -0.0342
 5143POPS   C4A62240  15.733   1.505   5.838 -0.1399  0.1754  0.1483
 5143POPS   C1B62241  15.932   1.627   7.126 -0.0104 -0.1670 -0.0200
 5143POPS   C2B62242  15.882   1.659   6.666 -0.1589 -0.0867 -0.0189
 5143POPS   C3B62243  15.893   1.897   6.322  0.0215  0.2520 -0.1311
 5143POPS   C4B62244  15.850   2.203   5.981  0.0221  0.0376  0.1082
 5144POPS   CNO62245  28.145  29.474   7.582 -0.0174 -0.1822  0.0686
 5144POPS   PO462246  27.859  29.701   7.483 -0.0944  0.0958  0.1957
 5144POPS   GL162247  27.938  29.537   7.098  0.0371 -0.0124  0.3700
 5144POPS   GL262248  28.232  29.549   7.070  0.0312  0.1858  0.2222
 5144POPS   C1A62249  27.906  29.570   6.653 -0.1111 -0.0381 -0.1691
 5144POPS   D2A62250  27.627  29.689   6.312 -0.2226 -0.1282 -0.2684
 5144POPS   C3A62251  27.764  29.592   5.891 -0.1197  0.2859  0.2115
 5144POPS   C4A62252  28.079  29.531   5.544  0.0297 -0.3470 -0.3336
 5144POPS   C1B62253  28.385  29.647   6.649  0.0124 -0.2743 -0.1185
 5144POPS   C2B62254  28.668  29.860   6.314  0.1334 -0.1802 -0.4916
 5144POPS   C3B62255  28.814  30.129   5.927  0.2415 -0.1274  0.0673
 5144POPS   C4B62256  28.836  30.294   5.512  0.2339 -0.0258  0.0678
 5145POPS   CNO62257  24.674  30.669   7.874  0.1816  0.3367 -0.2306
 5145POPS   PO462258  24.670  30.754   7.502 -0.3038 -0.2261 -0.1788
 5145POPS   GL162259  24.438  30.767   7.165 -0.3548  0.2473  0.2082
 5145POPS   GL262260  24.672  30.922   7.056 -0.1003 -0.1343  0.4549
 5145POPS   C1A62261  24.459  30.394   6.891 -0.2075  0.1487  0.1723
 5145POPS   D2A62262  24.343  30.368   6.463 -0.0313  0.0334  0.0083
 5145POPS   C3A62263  24.678  30.378   6.110  0.3139 -0.2676 -0.2677
 5145POPS   C4A62264  25.127  30.503   6.156 -0.3439  0.1545  0.0139
 5145POPS   C1B62265  24.763  31.145   6.615 -0.1089  0.1239 -0.4691
 5145POPS   C2B62266  24.678  31.427   6.229 -0.1143  0.2033 -0.0433
 5145POPS   C3B62267  24.763  31.584   5.791 -0.0166  0.0197 -0.4977
 5145POPS   C4B62268  25.025  31.831   5.484 -0.0390  0.1184  0.3361
 5146POPS   CNO62269  21.809  23.975   8.323  0.2747  0.0672  0.0756
 5146POPS   PO462270  21.463  23.949   8.296  0.0972  0.1594  0.1281
 5146POPS   GL162271  21.202  23.861   8.055  0.1559 -0.0788  0.0937
 5146POPS   GL262272  21.360  23.813   7.839 -0.2878 -0.0764 -0.0659
 5146POPS   C1A62273  21.045  24.115   7.653  0.2499 -0.1281 -0.1274
 5146POPS   D2A62274  21.128  24.337   7.196 -0.2295 -0.0700  0.2006
 5146POPS   C3A62275  20.786  24.185   6.864  0.0044  0.1871  0.1317
 5146POPS   C4A62276  20.364  24.095   6.706  0.1295 -0.1054  0.2766
 5146POPS   C1B62277  21.281  23.735   7.430  0.1329 -0.1311 -0.0845
 5146POPS   C2B62278  20.964  23.758   7.058  0.0103 -0.0301  0.0393
 5146POPS   C3B62279  20.518  23.735   7.036  0.2007  0.1710 -0.0279
 5146POPS   C4B62280  20.115  23.705   6.699  0.2595  0.2171  0.3115
 5147POPS   CNO62281  30.216  11.955   7.872  0.0325 -0.0336 -0.0291
 5147POPS   PO462282  30.107  12.309   7.852  0.1810 -0.0955 -0.1516
 5147POPS   GL162283  29.787  12.299   7.626 -0.0184 -0.0945 -0.0852
 5147POPS   GL262284  29.896  12.067   7.467  0.0847  0.2305  0.0376
 5147POPS   C1A62285  29.599  12.328   7.163 -0.1256  0.0170  0.4264
 5147POPS   D2A62286  29.779  12.186   6.757 -0.1826 -0.2408 -0.1208
 5147POPS   C3A62287  29.849  12.509   6.486  0.0225 -0.0197  0.1612
 5147POPS   C4A62288  30.040  12.694   6.157  0.0560  0.0105  0.0161
 5147POPS   C1B62289  30.115  12.043   7.124 -0.1636  0.1713  0.0748
 5147POPS   C2B62290  30.223  11.958   6.651 -0.2780  0.1419  0.1856
 5147POPS   C3B62291  30.574  11.840   6.376 -0.0546  0.1353 -0.0939
 5147POPS   C4B62292  30.785  12.069   5.986  0.0860  0.0524 -0.0600
 5148POPS   CNO62293   7.966   9.683   8.192 -0.2759  0.0280 -0.2378
 5148POPS   PO462294   8.141   9.909   7.922 -0.2042 -0.0775 -0.2005
 5148POPS   GL162295   8.074   9.690   7.558 -0.3146 -0.0495  0.2517
 5148POPS   GL262296   7.866   9.868   7.387  0.1807 -0.2027 -0.1803
 5148POPS   C1A62297   8.351   9.436   7.216  0.3583  0.1117 -0.0902
 5148POPS   D2A62298   8.325   9.342   6.735 -0.1204 -0.2652  0.1557
 5148POPS   C3A62299   8.729   9.263   6.470  0.0041  0.1400 -0.1013
 5148POPS   C4A62300   9.019   9.303   6.145 -0.1974 -0.1575 -0.1277
 5148POPS   C1B62301   8.117   9.873   6.933 -0.1578  0.3245  0.3478
 5148POPS   C2B62302   8.047   9.755   6.489 -0.3319 -0.1564  0.0761
 5148POPS   C3B62303   8.264   9.476   6.214 -0.0883 -0.2624 -0.1114
 5148POPS   C4B62304   8.261   9.424   5.749 -0.0632 -0.3611 -0.2338
 5149POPS   CNO62305  15.460  26.605   8.094 -0.1030 -0.0464  0.5694
 5149POPS   PO462306  15.439  26.443   7.747 -0.2722 -0.1603  0.2651
 5149POPS   GL162307  15.616  26.712   7.570  0.0032  0.4916  0.4815
 5149POPS   GL262308  15.845  26.648   7.359  0.0112  0.1441  0.2546
 5149POPS   C1A62309  15.436  26.796   7.127  0.0267 -0.0694  0.5114
 5149POPS   D2A62310  15.199  26.641   6.852  0.1282  0.1447 -0.0430
 5149POPS   C3A62311  15.134  26.800   6.437 -0.0478 -0.1258  0.1785
 5149POPS   C4A62312  15.043  26.898   5.970 -0.4393  0.0437 -0.2105
 5149POPS   C1B62313  15.781  26.582   6.883  0.1513 -0.2683 -0.1291
 5149POPS   C2B62314  15.550  26.488   6.499  0.2089 -0.2083 -0.1173
 5149POPS   C3B62315  15.360  26.485   6.048  0.0121 -0.1804 -0.1156
 5149POPS   C4B62316  15.241  26.441   5.607  0.0453  0.2079  0.0250
 5150POPS   CNO62317  13.030  31.087   8.043 -0.0349 -0.1397  0.0041
 5150POPS   PO462318  13.086  31.215   7.687 -0.1695 -0.2585  0.0774
 5150POPS   GL162319  13.019  31.086   7.327 -0.0130  0.0582 -0.1133
 5150POPS   GL262320  12.986  31.307   7.150  0.3600 -0.2799 -0.0099
 5150POPS   C1A62321  12.671  31.006   7.049  0.2371  0.0695 -0.1150
 5150POPS   D2A62322  12.510  31.053   6.602 -0.0049 -0.1319  0.1641
 5150POPS   C3A62323  12.258  30.890   6.285  0.1425  0.3438  0.0627
 5150POPS   C4A62324  11.937  30.888   5.959  0.1560 -0.1279 -0.2592
 5150POPS   C1B62325  13.051  31.268   6.712 -0.1830 -0.0089  0.2842
 5150POPS   C2B62326  13.049  31.021   6.264 -0.0425  0.1137  0.0478
 5150POPS   C3B62327  13.105  30.921   5.829 -0.0836 -0.0906  0.2872
 5150POPS   C4B62328  13.066  30.482   5.589  0.4023  0.1314 -0.1209
 5151POPS   CNO62329  12.312   5.786   8.159 -0.2888 -0.0653 -0.0224
 5151POPS   PO462330  12.487   6.106   8.038 -0.1083  0.0766 -0.0480
 5151POPS   GL162331  12.548   6.213   7.585 -0.0631  0.3094  0.1905
 5151POPS   GL262332  12.856   6.042   7.572 -0.1768  0.2029  0.1471
 5151POPS   C1A62333  12.715   6.378   7.169  0.0181  0.1013  0.0578
 5151POPS   D2A62334  12.757   6.285   6.730  0.0132  0.1298  0.0375
 5151POPS   C3A62335  12.396   6.377   6.463 -0.1323 -0.0340 -0.1126
 5151POPS   C4A62336  12.015   6.372   6.201 -0.1279 -0.1035  0.0421
 5151POPS   C1B62337  12.813   5.758   7.231  0.0840  0.0653  0.3909
 5151POPS   C2B62338  12.783   5.367   6.896 -0.1211  0.2763 -0.0267
 5151POPS   C3B62339  12.846   5.335   6.444  0.0107 -0.0706 -0.0309
 5151POPS   C4B62340  12.889   5.143   6.027  0.4722 -0.0255 -0.0231
 5152POPS   CNO62341   3.710   6.843   8.293 -0.2156 -0.1626  0.3456
 5152POPS   PO462342   3.653   7.005   7.986 -0.1837  0.2240 -0.3315
 5152POPS   GL162343   3.723   7.326   7.681 -0.1036  0.1466 -0.2773
 5152POPS   GL262344   3.970   7.410   7.796 -0.2079 -0.1405  0.1481
 5152POPS   C1A62345   3.748   7.351   7.222  0.0536 -0.1549 -0.2999
 5152POPS   D2A62346   3.921   7.204   6.816  0.0668 -0.0395  0.1935
 5152POPS   C3A62347   3.873   7.500   6.477 -0.1715  0.1257  0.0768
 5152POPS   C4A62348   4.048   7.808   6.197  0.0486  0.1036  0.2842
 5152POPS   C1B62349   4.203   7.322   7.391  0.1095 -0.0356 -0.2053
 5152POPS   C2B62350   4.385   7.253   6.977 -0.3265  0.1491  0.1447
 5152POPS   C3B62351   4.576   7.085   6.553 -0.1997  0.2906 -0.1528
 5152POPS   C4B62352   4.572   6.664   6.329  0.1363  0.1327  0.2159
 5153POPS   CNO62353   9.934  15.999   7.776 -0.2159  0.2380  0.3890
 5153POPS   PO462354  10.310  16.067   7.632  0.1323  0.0940  0.0666
 5153POPS   GL162355  10.100  15.846   7.299 -0.0485 -0.1265 -0.4895
 5153POPS   GL262356  10.393  15.737   7.267 -0.0877  0.0021  0.1099
 5153POPS   C1A62357   9.801  15.877   6.955  0.0991 -0.1356 -0.0813
 5153POPS   D2A62358   9.728  15.910   6.509  0.2433  0.0137  0.2782
 5153POPS   C3A62359   9.267  15.838   6.285 -0.2410 -0.0130 -0.0502
 5153POPS   C4A62360   9.010  15.654   5.885  0.1477  0.0619  0.1121
 5153POPS   C1B62361  10.359  15.874   6.819  0.1571  0.0235  0.1346
 5153POPS   C2B62362  10.261  15.658   6.424  0.0917 -0.2292 -0.1677
 5153POPS   C3B62363   9.958  15.719   6.078  0.1155 -0.0861  0.1818
 5153POPS   C4B62364  10.017  15.706   5.585  0.1516 -0.0091  0.1943
 5154POPS   CNO62365   8.901  30.806   8.180  0.0258 -0.1641 -0.0623
 5154POPS   PO462366   8.833  30.961   7.831 -0.1031 -0.1249 -0.0127
 5154POPS   GL162367   8.985  31.108   7.511 -0.1730 -0.2090 -0.1767
 5154POPS   GL262368   9.032  30.882   7.349 -0.1152 -0.0635  0.2016
 5154POPS   C1A62369   9.344  31.283   7.334  0.4837  0.2311  0.0637
 5154POPS   D2A62370   9.399  31.553   6.909 -0.2989 -0.0351  0.1449
 5154POPS   C3A62371   9.393  31.409   6.473  0.0520 -0.1862  0.0704
 5154POPS   C4A62372   9.077  31.243   6.257 -0.1547  0.2716 -0.3506
 5154POPS   C1B62373   9.089  31.035   6.915 -0.4314  0.3022  0.0647
 5154POPS   C2B62374   9.116  30.808   6.484 -0.1072 -0.2925  0.2119
 5154POPS   C3B62375   9.090  30.767   6.009  0.4091 -0.1309 -0.0259
 5154POPS   C4B62376   9.142  30.890   5.548  0.1192  0.2367 -0.0721
 5155POPS   CNO62377  13.854   9.514   7.748  0.1382  0.1408 -0.0885
 5155POPS   PO462378  13.502   9.562   7.552  0.5042  0.0380  0.0895
 5155POPS   GL162379  13.404   9.710   7.176  0.2686  0.0988 -0.0342
 5155POPS   GL262380  13.681   9.809   7.108  0.0528 -0.1571  0.2324
 5155POPS   C1A62381  13.229   9.890   6.771  0.0207 -0.0515  0.5495
 5155POPS   D2A62382  13.131  10.140   6.431 -0.2388 -0.3429  0.0453
 5155POPS   C3A62383  12.811  10.161   6.101 -0.1475 -0.2516 -0.0785
 5155POPS   C4A62384  12.532   9.939   5.775  0.0772  0.2638 -0.1260
 5155POPS   C1B62385  13.864   9.987   6.703  0.0998 -0.1150 -0.1500
 5155POPS   C2B62386  13.766  10.015   6.300  0.1955 -0.4707  0.2019
 5155POPS   C3B62387  13.816   9.799   5.938  0.0875 -0.0467  0.3186
 5155POPS   C4B62388  14.110   9.499   5.702 -0.2052  0.1482 -0.1800
 5156POPS   CNO62389  16.156  19.265   8.260 -0.2686 -0.1205 -0.1672
 5156POPS   PO462390  16.463  19.198   8.053  0.0705  0.2303  0.1669
 5156POPS   GL162391  16.291  19.151   7.694 -0.0530  0.1345 -0.1213
 5156POPS   GL262392  16.365  18.876   7.631  0.1253  0.1304  0.1326
 5156POPS   C1A62393  16.148  19.140   7.241  0.2313 -0.3169 -0.0638
 5156POPS   D2A62394  15.918  19.082   6.824 -0.2108 -0.1861  0.2297
 5156POPS   C3A62395  16.150  19.200   6.450  0.3114 -0.1067 -0.0092
 5156POPS   C4A62396  16.485  19.191   6.151  0.1916  0.1199 -0.0405
 5156POPS   C1B62397  16.178  18.537   7.375 -0.1722 -0.1451  0.0976
 5156POPS   C2B62398  16.303  18.093   7.252  0.3465 -0.2801  0.0288
 5156POPS   C3B62399  16.394  17.773   6.988  0.0267  0.5703 -0.1093
 5156POPS   C4B62400  16.412  17.736   6.514 -0.2500 -0.2596  0.2529
 5157POPS   CNO62401   9.772  21.261   8.166  0.0403 -0.0934 -0.2956
 5157POPS   PO462402   9.825  21.629   8.033 -0.2711 -0.0705  0.1056
 5157POPS   GL162403   9.811  21.797   7.612  0.1388 -0.1724  0.1716
 5157POPS   GL262404  10.055  21.815   7.492 -0.0132  0.0542  0.0086
 5157POPS   C1A62405   9.541  21.654   7.243 -0.0783 -0.1955 -0.0637
 5157POPS   D2A62406   9.484  21.326   6.910  0.0786 -0.0628  0.0212
 5157POPS   C3A62407   9.559  21.488   6.512  0.0077  0.0363 -0.1624
 5157POPS   C4A62408   9.904  21.339   6.214  0.1359  0.0896  0.4349
 5157POPS   C1B62409  10.250  21.740   7.075  0.1560 -0.1642  0.0665
 5157POPS   C2B62410  10.362  21.608   6.599  0.2404 -0.0292 -0.0207
 5157POPS   C3B62411  10.373  21.672   6.179  0.1514 -0.1151  0.2070
 5157POPS   C4B62412  10.472  21.583   5.727  0.1638 -0.1103  0.1048
 5158POPS   CNO62413   4.392  30.560   8.091  0.1231  0.0617 -0.0493
 5158POPS   PO462414   4.732  30.534   7.924 -0.0490 -0.4481 -0.0671
 5158POPS   GL162415   4.640  30.587   7.535 -0.0817  0.1741  0.3039
 5158POPS   GL262416   4.862  30.626   7.388  0.0370 -0.1165  0.0106
 5158POPS   C1A62417   4.394  30.866   7.262  0.0850  0.0943 -0.3929
 5158POPS   D2A62418   4.316  30.995   6.780 -0.0400 -0.2601 -0.0747
 5158POPS   C3A62419   4.431  31.028   6.318 -0.0223 -0.1264 -0.2677
 5158POPS   C4A62420   4.775  31.003   6.006 -0.1652 -0.0498 -0.0901
 5158POPS   C1B62421   4.834  30.670   6.920 -0.1666  0.1926 -0.0064
 5158POPS   C2B62422   4.687  30.619   6.491 -0.0359 -0.0949  0.1134
 5158POPS   C3B62423   4.481  30.581   6.131 -0.0664 -0.2595 -0.0521
 5158POPS   C4B62424   4.320  30.691   5.670 -0.1370 -0.0298 -0.2444
 5159POPS   CNO62425  22.574   0.168   7.831 -0.0352  0.3144 -0.0456
 5159POPS   PO462426  22.687   0.473   7.718 -0.1706 -0.1681  0.2592
 5159POPS   GL162427  22.754   0.504   7.310  0.0923  0.1525  0.2094
 5159POPS   GL262428  22.846   0.752   7.273 -0.1738 -0.2949  0.3395
 5159POPS   C1A62429  22.701   0.499   6.869  0.2936  0.2910 -0.0790
 5159POPS   D2A62430  22.821   0.498   6.424 -0.1230  0.2107  0.0064
 5159POPS   C3A62431  23.010   0.264   6.064  0.1353 -0.0631  0.0814
 5159POPS   C4A62432  23.032  -0.025   5.686 -0.1362 -0.0735  0.0104
 5159POPS   C1B62433  23.126   0.957   7.005 -0.1346  0.1603  0.1900
 5159POPS   C2B62434  23.131   0.966   6.522 -0.0716  0.1866  0.0979
 5159POPS   C3B62435  22.811   0.976   6.201 -0.0947  0.1489 -0.0313
 5159POPS   C4B62436  22.677   0.640   5.912 -0.1944  0.0697  0.2628
 5160POPS   CNO62437  31.450  12.909   8.134 -0.1839  0.0894 -0.3011
 5160POPS   PO462438  31.308  13.115   7.844 -0.3503 -0.1293  0.0218
 5160POPS   GL162439  31.301  13.151   7.387  0.1154 -0.1886 -0.0736
 5160POPS   GL262440  31.068  13.294   7.325  0.0198  0.1166 -0.1358
 5160POPS   C1A62441  31.395  12.957   6.988  0.1676  0.0622  0.2734
 5160POPS   D2A62442  31.328  12.805   6.553  0.1367 -0.1294  0.0317
 5160POPS   C3A62443  31.430  12.898   6.072 -0.0677 -0.0646  0.0772
 5160POPS   C4A62444  31.343  13.115   5.687 -0.0974  0.1526 -0.2146
 5160POPS   C1B62445  30.906  13.095   6.937  0.0034 -0.1648 -0.1119
 5160POPS   C2B62446  31.036  13.293   6.527  0.0570  0.3195  0.2044
 5160POPS   C3B62447  31.151  13.393   6.082  0.0988 -0.4310  0.2913
 5160POPS   C4B62448  30.907  13.421   5.698  0.0777  0.2487 -0.3175
 5161POPS   CNO62449   3.723  19.550   7.828 -0.1642 -0.0869 -0.0305
 5161POPS   PO462450   3.729  19.859   7.609 -0.1332  0.0743  0.0785
 5161POPS   GL162451   3.721  19.705   7.210 -0.2339 -0.1565  0.1257
 5161POPS   GL262452   3.655  19.986   7.108 -0.0199 -0.0077  0.0181
 5161POPS   C1A62453   3.505  19.586   6.852  0.0146 -0.0665  0.2056
 5161POPS   D2A62454   3.421  19.653   6.364 -0.0311  0.2316  0.3703
 5161POPS   C3A62455   3.558  19.461   5.913  0.3133 -0.0952 -0.1922
 5161POPS   C4A62456   3.703  19.150   5.627 -0.0368 -0.1829 -0.0781
 5161POPS   C1B62457   3.688  20.093   6.662  0.0533 -0.0001 -0.1702
 5161POPS   C2B62458   3.710  20.451   6.354 -0.0998 -0.1000 -0.0826
 5161POPS   C3B62459   4.033  20.794   6.131 -0.0181 -0.3117  0.0004
 5161POPS   C4B62460   4.252  20.843   5.695  0.1176  0.1072 -0.0766
 5162POPS   CNO62461  25.985  18.804   8.284 -0.4753 -0.1347 -0.1260
 5162POPS   PO462462  26.097  18.913   7.892 -0.0455  0.1253 -0.1158
 5162POPS   GL162463  25.615  18.660   7.906  0.2537 -0.2325  0.3581
 5162POPS   GL262464  25.399  18.809   7.729  0.2461 -0.1715 -0.1621
 5162POPS   C1A62465  25.342  18.313   7.746  0.4111 -0.0030  0.2124
 5162POPS   D2A62466  25.233  17.912   7.566  0.0057 -0.2013 -0.4182
 5162POPS   C3A62467  25.175  17.541   7.729 -0.0619 -0.0576 -0.1366
 5162POPS   C4A62468  25.012  17.114   7.701 -0.0710 -0.0788  0.0897
 5162POPS   C1B62469  25.243  18.530   7.349 -0.1099 -0.1851  0.1306
 5162POPS   C2B62470  25.120  18.276   7.025 -0.3344 -0.1887 -0.3336
 5162POPS   C3B62471  24.995  18.215   6.572  0.1761  0.1174 -0.1670
 5162POPS   C4B62472  24.778  17.913   6.285  0.1959 -0.0212 -0.0136
 5163POPS   CNO62473  30.363   8.823   7.985 -0.1501 -0.0295 -0.1947
 5163POPS   PO462474  30.165   8.924   7.672  0.0995 -0.1105 -0.6255
 5163POPS   GL162475  30.343   8.915   7.304 -0.3049  0.3781  0.0213
 5163POPS   GL262476  30.263   9.179   7.190 -0.0949  0.1376 -0.2455
 5163POPS   C1A62477  30.569   8.947   6.875  0.0066  0.5813  0.1201
 5163POPS   D2A62478  30.900   8.972   6.504  0.2628  0.1299 -0.1814
 5163POPS   C3A62479  30.840   9.361   6.209  0.0478  0.1240 -0.1610
 5163POPS   C4A62480  30.694   9.702   5.811 -0.2670 -0.2192 -0.1074
 5163POPS   C1B62481  29.977   9.334   6.810 -0.1671 -0.2220 -0.0437
 5163POPS   C2B62482  29.821   9.598   6.413  0.2258 -0.1796 -0.0276
 5163POPS   C3B62483  29.731  10.043   6.208 -0.1521 -0.2683 -0.0994
 5163POPS   C4B62484  29.527  10.132   5.782  0.2748  0.3361  0.1701
 5164POPS   CNO62485  25.991  18.063   8.715 -0.1044 -0.0565 -0.2537
 5164POPS   PO462486  25.939  18.389   8.565  0.3524  0.0872  0.0804
 5164POPS   GL162487  25.799  18.148   8.293 -0.2110  0.2243 -0.1126
 5164POPS   GL262488  25.542  18.242   8.209 -0.0143  0.0356  0.1137
 5164POPS   C1A62489  25.604  17.847   7.993  0.1086 -0.2245  0.1058
 5164POPS   D2A62490  25.657  17.631   7.594  0.1703  0.0083  0.0643
 5164POPS   C3A62491  25.958  17.398   7.338 -0.1206  0.0684  0.1455
 5164POPS   C4A62492  26.420  17.482   7.192 -0.0488 -0.0397  0.5092
 5164POPS   C1B62493  25.053  18.075   8.096 -0.2238  0.2132 -0.1421
 5164POPS   C2B62494  24.673  17.876   7.848  0.1093  0.0248 -0.0407
 5164POPS   C3B62495  24.769  17.560   7.496 -0.0371 -0.1592  0.1293
 5164POPS   C4B62496  24.839  17.363   7.087  0.3242 -0.3328 -0.2481
 5165POPS   CNO62497  15.737   9.247   8.316 -0.0806  0.3948 -0.2020
 5165POPS   PO462498  15.613   9.213   7.958  0.2635  0.1743 -0.1603
 5165POPS   GL162499  15.681   9.345   7.580  0.1926  0.6874  0.2701
 5165POPS   GL262500  15.939   9.193   7.575  0.0634 -0.0538 -0.2530
 5165POPS   C1A62501  15.617   9.266   7.117  0.0051  0.0248  0.0594
 5165POPS   D2A62502  15.699   9.231   6.654  0.3105 -0.0517 -0.2680
 5165POPS   C3A62503  15.850   9.479   6.252  0.0246 -0.0249  0.2130
 5165POPS   C4A62504  15.613   9.731   5.933 -0.0961 -0.2102 -0.2077
 5165POPS   C1B62505  16.075   8.947   7.191 -0.2347 -0.0873 -0.2669
 5165POPS   C2B62506  15.938   8.835   6.788 -0.1886 -0.0250  0.1482
 5165POPS   C3B62507  16.059   8.480   6.497  0.3446  0.1480 -0.0751
 5165POPS   C4B62508  16.206   8.224   6.155  0.2715  0.1503 -0.0442
 5166POPS   CNO62509   4.885  11.978   8.126 -0.1332 -0.0732 -0.2033
 5166POPS   PO462510   4.824  12.171   7.807 -0.3037  0.0497 -0.0117
 5166POPS   GL162511   4.520  12.312   7.550 -0.4239 -0.0507 -0.2297
 5166POPS   GL262512   4.440  12.115   7.362  0.0595  0.0277 -0.1011
 5166POPS   C1A62513   4.322  12.707   7.341 -0.1254  0.1027  0.2037
 5166POPS   D2A62514   3.907  12.789   7.236  0.3672 -0.0877  0.2474
 5166POPS   C3A62515   3.744  13.156   7.516  0.1308  0.0619  0.0604
 5166POPS   C4A62516   3.265  13.279   7.513  0.1405  0.2216  0.1325
 5166POPS   C1B62517   4.554  12.003   6.939  0.0025 -0.3310  0.1905
 5166POPS   C2B62518   4.446  12.268   6.588 -0.1819 -0.2159 -0.3929
 5166POPS   C3B62519   4.598  12.628   6.480  0.0389 -0.0687  0.0128
 5166POPS   C4B62520   4.395  12.963   6.260 -0.1192  0.1010 -0.1777
 5167POPS   CNO62521  14.000  21.571   8.143  0.0814  0.0516 -0.1032
 5167POPS   PO462522  13.856  21.602   7.816  0.0360  0.0555  0.0370
 5167POPS   GL162523  14.032  21.508   7.562  0.1596  0.0896  0.7108
 5167POPS   GL262524  13.747  21.477   7.332 -0.1998  0.1466 -0.1977
 5167POPS   C1A62525  14.161  21.590   7.041  0.1205  0.3360 -0.2086
 5167POPS   D2A62526  14.165  21.855   6.611  0.1641  0.1677  0.0105
 5167POPS   C3A62527  13.972  21.498   6.368  0.2101  0.2410 -0.0110
 5167POPS   C4A62528  13.953  21.325   5.887 -0.0358 -0.0276  0.0546
 5167POPS   C1B62529  13.669  21.483   6.852  0.0909 -0.0794  0.1342
 5167POPS   C2B62530  13.820  21.109   6.677  0.3426 -0.4020  0.1422
 5167POPS   C3B62531  13.786  20.909   6.220  0.0194  0.1350  0.1914
 5167POPS   C4B62532  13.752  20.550   5.900 -0.1721  0.1599  0.1899
 5168POPS   CNO62533  24.242   8.570   8.382  0.1369 -0.0374  0.2304
 5168POPS   PO462534  24.622   8.583   8.494  0.1762 -0.1815  0.1783
 5168POPS   GL162535  24.632   8.555   8.135 -0.2027 -0.0220  0.1691
 5168POPS   GL262536  24.718   8.290   8.071 -0.1748 -0.0451  0.1030
 5168POPS   C1A62537  24.651   8.789   7.692  0.0237  0.2630 -0.2033
 5168POPS   D2A62538  24.257   8.739   7.389 -0.1743  0.2062  0.3715
 5168POPS   C3A62539  24.290   8.609   6.982  0.0989 -0.2040  0.1502
 5168POPS   C4A62540  24.070   8.299   6.748  0.2247 -0.0583 -0.0745
 5168POPS   C1B62541  24.961   8.321   7.692  0.1730 -0.0039 -0.2129
 5168POPS   C2B62542  25.084   8.204   7.306  0.0007  0.0090 -0.0130
 5168POPS   C3B62543  25.213   8.410   6.872  0.0540 -0.0647  0.1148
 5168POPS   C4B62544  25.462   8.585   6.520 -0.0107 -0.2765  0.0428
 5169POPS   CNO62545   2.614  16.419   7.909  0.2129 -0.0009  0.3441
 5169POPS   PO462546   2.522  16.667   7.629  0.3469 -0.0481  0.3051
 5169POPS   GL162547   2.493  16.847   7.247 -0.1282  0.2525  0.2241
 5169POPS   GL262548   2.777  16.807   7.112 -0.1874 -0.2536 -0.1010
 5169POPS   C1A62549   2.202  16.766   6.860  0.0017  0.0772  0.1520
 5169POPS   D2A62550   2.261  16.945   6.457  0.0521 -0.1178 -0.2985
 5169POPS   C3A62551   2.232  17.365   6.326  0.1405 -0.5431  0.0868
 5169POPS   C4A62552   1.941  17.460   6.007 -0.1776 -0.4657  0.0414
 5169POPS   C1B62553   2.630  16.575   6.683 -0.0189 -0.2074  0.2000
 5169POPS   C2B62554   2.707  16.559   6.239  0.1697  0.1405  0.1164
 5169POPS   C3B62555   2.591  16.276   5.851 -0.3592 -0.0194  0.0931
 5169POPS   C4B62556   2.566  16.370   5.385  0.0081  0.2602 -0.0670
 5170POPS   CNO62557  18.996  12.928   7.939 -0.2284  0.0722 -0.1774
 5170POPS   PO462558  18.835  12.989   7.613  0.2269 -0.1886 -0.3553
 5170POPS   GL162559  19.041  12.862   7.248 -0.1648 -0.0122 -0.0407
 5170POPS   GL262560  19.190  13.093   7.181  0.2600  0.2019 -0.0574
 5170POPS   C1A62561  18.938  12.806   6.782  0.0062 -0.1970 -0.5180
 5170POPS   D2A62562  19.013  12.547   6.433  0.1264  0.0537 -0.1460
 5170POPS   C3A62563  19.153  12.635   5.996 -0.0952 -0.3539 -0.1796
 5170POPS   C4A62564  19.185  13.010   5.764 -0.1456  0.2014 -0.1649
 5170POPS   C1B62565  19.357  13.091   6.785 -0.2543 -0.0062 -0.1415
 5170POPS   C2B62566  19.538  13.388   6.420  0.0753  0.0279  0.1871
 5170POPS   C3B62567  19.292  13.461   6.031 -0.1733  0.3409 -0.1024
 5170POPS   C4B62568  19.371  13.420   5.583 -0.1248 -0.0407 -0.1268
 5171POPS   CNO62569  11.096  20.199   8.133  0.0576 -0.1152 -0.1709
 5171POPS   PO462570  11.133  19.892   7.942  0.1658  0.2245 -0.0013
 5171POPS   GL162571  11.174  19.970   7.554  0.0759 -0.0647  0.0699
 5171POPS   GL262572  11.059  19.797   7.348 -0.2065  0.1075 -0.0770
 5171POPS   C1A62573  10.880  20.223   7.247 -0.2668  0.0267 -0.1474
 5171POPS   D2A62574  10.725  20.342   6.834 -0.0283 -0.0958 -0.0395
 5171POPS   C3A62575  10.556  20.206   6.427 -0.2820  0.3350  0.2762
 5171POPS   C4A62576  10.306  20.088   6.051 -0.0547  0.2444  0.1425
 5171POPS   C1B62577  11.234  20.005   6.929 -0.1428  0.4144 -0.0091
 5171POPS   C2B62578  11.137  20.175   6.530 -0.0531  0.0622 -0.0358
 5171POPS   C3B62579  10.969  20.454   6.241 -0.1456 -0.2155 -0.2661
 5171POPS   C4B62580  10.883  20.872   6.082 -0.0552 -0.2064  0.1802
 5172POPS   CNO62581  13.874  20.893   8.028 -0.1116 -0.2640  0.1446
 5172POPS   PO462582  13.925  20.803   7.682 -0.1418 -0.2136  0.0833
 5172POPS   GL162583  14.020  21.088   7.425  0.4025  0.0522  0.0326
 5172POPS   GL262584  13.841  20.977   7.235 -0.1319 -0.0224  0.0956
 5172POPS   C1A62585  14.273  21.105   7.027  0.0593  0.1899  0.0828
 5172POPS   D2A62586  14.365  21.314   6.588  0.1819  0.0411 -0.3487
 5172POPS   C3A62587  14.303  21.087   6.236  0.3033 -0.2139  0.0494
 5172POPS   C4A62588  14.354  20.926   5.800  0.0199 -0.1656 -0.2045
 5172POPS   C1B62589  13.924  20.666   6.925 -0.4638  0.1873  0.1142
 5172POPS   C2B62590  14.146  20.684   6.470 -0.2992  0.1289 -0.0446
 5172POPS   C3B62591  14.206  20.545   6.003 -0.2218 -0.0371  0.0143
 5172POPS   C4B62592  14.279  20.291   5.527 -0.0776 -0.0311  0.2109
 5173POPS   CNO62593  24.352   8.034   8.300  0.0267  0.0466  0.2103
 5173POPS   PO462594  24.264   7.987   7.912 -0.3826  0.2349  0.0812
 5173POPS   GL162595  24.323   8.164   7.560 -0.1222  0.2632 -0.1046
 5173POPS   GL262596  24.600   7.965   7.543 -0.1227  0.2154 -0.1010
 5173POPS   C1A62597  24.220   8.031   7.146  0.2766  0.3937  0.1588
 5173POPS   D2A62598  24.363   7.880   6.679  0.0843 -0.4204  0.0865
 5173POPS   C3A62599  24.522   7.980   6.234  0.1665  0.0468  0.0619
 5173POPS   C4A62600  24.828   8.055   5.839  0.0047  0.1763 -0.0458
 5173POPS   C1B62601  24.968   7.786   7.529 -0.0851 -0.1398 -0.0550
 5173POPS   C2B62602  25.395   7.721   7.509  0.2901  0.1511  0.0450
 5173POPS   C3B62603  25.821   7.869   7.653  0.2646  0.1358 -0.1751
 5173POPS   C4B62604  26.190   7.671   7.840  0.1186 -0.2014  0.0820
 5174POPS   CNO62605   7.512   2.811   8.092 -0.2029 -0.2560  0.5497
 5174POPS   PO462606   7.246   2.982   7.859  0.1176  0.0343 -0.0808
 5174POPS   GL162607   7.505   2.878   7.570 -0.0677 -0.1606 -0.2574
 5174POPS   GL262608   7.709   2.657   7.571 -0.0980 -0.1585  0.2595
 5174POPS   C1A62609   7.703   2.928   7.115  0.1023  0.2352 -0.1022
 5174POPS   D2A62610   8.021   2.751   6.790  0.1558  0.1555 -0.0064
 5174POPS   C3A62611   7.828   2.611   6.404  0.2463  0.0962  0.2537
 5174POPS   C4A62612   7.565   2.292   6.145  0.0900  0.2561 -0.0947
 5174POPS   C1B62613   7.904   2.433   7.208  0.1573 -0.1847 -0.0648
 5174POPS   C2B62614   8.265   2.272   6.992  0.0142  0.0663 -0.0966
 5174POPS   C3B62615   8.410   2.097   6.541  0.2961  0.0232 -0.0339
 5174POPS   C4B62616   8.537   1.966   6.097  0.0210  0.0199 -0.0007
 5175POPS   CNO62617  25.995  13.346   8.092 -0.2742 -0.2462  0.0347
 5175POPS   PO462618  25.971  13.238   7.763 -0.2175 -0.0191 -0.1411
 5175POPS   GL162619  26.001  13.093   7.342 -0.1049  0.5159 -0.2088
 5175POPS   GL262620  25.645  13.008   7.301 -0.0385 -0.0411  0.4161
 5175POPS   C1A62621  26.284  13.098   7.003 -0.1131  0.0686  0.2764
 5175POPS   D2A62622  26.262  12.918   6.583  0.0141  0.1028 -0.0553
 5175POPS   C3A62623  26.127  12.983   6.179 -0.1142 -0.1805 -0.0082
 5175POPS   C4A62624  26.213  12.778   5.766 -0.2934  0.1999 -0.3164
 5175POPS   C1B62625  25.369  13.328   7.078 -0.0394  0.1151 -0.2028
 5175POPS   C2B62626  25.363  13.395   6.673  0.1872 -0.1272  0.1316
 5175POPS   C3B62627  25.234  13.544   6.262 -0.0719 -0.0010  0.1237
 5175POPS   C4B62628  25.102  13.424   5.858 -0.1325  0.1574  0.1129
 5176POPS   CNO62629  12.532  19.822   7.805 -0.2046  0.1512 -0.1149
 5176POPS   PO462630  12.575  20.195   7.636  0.1163 -0.1375  0.0618
 5176POPS   GL162631  12.793  20.156   7.276  0.2974 -0.0290 -0.2506
 5176POPS   GL262632  12.514  20.218   7.084 -0.3597  0.0069 -0.2808
 5176POPS   C1A62633  12.971  19.820   6.991  0.2394  0.2682  0.2180
 5176POPS   D2A62634  13.225  19.493   6.915 -0.2016 -0.4960 -0.1772
 5176POPS   C3A62635  13.500  19.385   6.555  0.0849 -0.0804  0.1378
 5176POPS   C4A62636  13.788  19.575   6.241 -0.1041 -0.3001  0.1557
 5176POPS   C1B62637  12.689  20.379   6.732  0.0933 -0.1272 -0.0658
 5176POPS   C2B62638  13.058  20.513   6.495 -0.0765 -0.2138 -0.2211
 5176POPS   C3B62639  13.194  20.756   6.104 -0.1048  0.3212  0.0738
 5176POPS   C4B62640  13.504  21.005   5.839 -0.1072 -0.0378  0.2921
 5177POPS   CNO62641   6.969  27.620   8.406 -0.0158  0.4525 -0.1191
 5177POPS   PO462642   6.775  27.331   8.270  0.2656 -0.2095  0.1584
 5177POPS   GL162643   6.579  27.399   7.898  0.3199 -0.0335  0.2365
 5177POPS   GL262644   6.612  27.649   7.860 -0.0511  0.0954  0.0502
 5177POPS   C1A62645   6.190  27.454   7.652  0.0417 -0.1788 -0.1970
 5177POPS   D2A62646   5.812  27.672   7.445 -0.3148 -0.0781  0.0742
 5177POPS   C3A62647   5.572  27.577   7.100  0.0190 -0.0811 -0.3013
 5177POPS   C4A62648   5.227  27.389   7.021  0.1971 -0.1081  0.1594
 5177POPS   C1B62649   6.892  27.342   7.522  0.6144 -0.2569  0.3011
 5177POPS   C2B62650   7.286  27.248   7.330 -0.1449  0.0665 -0.1119
 5177POPS   C3B62651   7.497  27.378   6.927 -0.0974  0.4883  0.0807
 5177POPS   C4B62652   7.509  27.535   6.532  0.0560  0.1304  0.4410
 5178POPS   CNO62653  14.769  14.962   7.796  0.1232  0.1513 -0.0232
 5178POPS   PO462654  14.871  15.196   7.493  0.4367  0.0791 -0.1036
 5178POPS   GL162655  14.763  15.329   7.123 -0.2991 -0.0970  0.0429
 5178POPS   GL262656  14.688  15.132   7.007  0.3274  0.5585  0.1118
 5178POPS   C1A62657  14.675  15.515   6.689 -0.2070  0.0085 -0.0911
 5178POPS   D2A62658  14.730  15.464   6.225 -0.2334 -0.2434 -0.0965
 5178POPS   C3A62659  14.610  15.543   5.796  0.2113  0.3282  0.3990
 5178POPS   C4A62660  14.207  15.610   5.510  0.3969 -0.0127  0.1510
 5178POPS   C1B62661  14.640  14.995   6.620  0.0292 -0.3195 -0.2249
 5178POPS   C2B62662  14.476  14.675   6.318  0.1004 -0.3458  0.0446
 5178POPS   C3B62663  14.490  14.706   5.845  0.1145  0.1461 -0.1202
 5178POPS   C4B62664  14.159  14.907   5.601 -0.0559  0.0899 -0.1140
 5179POPS   CNO62665   5.081  29.727   8.267 -0.0953 -0.0124  0.2312
 5179POPS   PO462666   5.148  29.833   7.894 -0.2134  0.1816 -0.1538
 5179POPS   GL162667   4.988  29.689   7.519 -0.1015 -0.5954 -0.1661
 5179POPS   GL262668   5.219  29.632   7.334 -0.2061 -0.1886 -0.1593
 5179POPS   C1A62669   4.801  29.807   7.134  0.3280  0.0669  0.1814
 5179POPS   D2A62670   4.835  29.698   6.718  0.2504  0.1531  0.0092
 5179POPS   C3A62671   4.508  29.746   6.425  0.0191  0.1745  0.0326
 5179POPS   C4A62672   4.292  29.616   6.026 -0.1069  0.1009 -0.2149
 5179POPS   C1B62673   5.316  29.623   6.843  0.0477 -0.1533  0.0579
 5179POPS   C2B62674   5.374  29.396   6.502  0.3508 -0.1571  0.0540
 5179POPS   C3B62675   5.305  29.419   6.027 -0.3329  0.3214  0.0287
 5179POPS   C4B62676   5.243  29.578   5.561 -0.0655  0.2969  0.1899
 5180POPS   CNO62677  24.469  21.515   8.372  0.1459 -0.0447 -0.0903
 5180POPS   PO462678  24.677  21.512   8.112 -0.0082 -0.1602 -0.2357
 5180POPS   GL162679  24.848  21.443   7.736  0.0597  0.1900  0.2016
 5180POPS   GL262680  24.926  21.162   7.593 -0.1530  0.0712  0.2122
 5180POPS   C1A62681  25.169  21.581   7.467  0.1632  0.0996 -0.0118
 5180POPS   D2A62682  25.420  21.942   7.455 -0.1690  0.1044  0.1999
 5180POPS   C3A62683  25.834  21.850   7.560 -0.1024 -0.2476 -0.0627
 5180POPS   C4A62684  26.287  21.938   7.730  0.2215 -0.0028 -0.3439
 5180POPS   C1B62685  24.783  21.360   7.185 -0.1850  0.1592  0.0698
 5180POPS   C2B62686  24.830  21.180   6.776  0.0630 -0.1142  0.1743
 5180POPS   C3B62687  24.884  20.971   6.371  0.1593  0.0200  0.2406
 5180POPS   C4B62688  24.940  20.896   5.941  0.3350  0.0806 -0.2831
 5181POPS   CNO62689  21.090  10.290   8.482  0.0622 -0.2152 -0.2925
 5181POPS   PO462690  21.293  10.404   8.176  0.0710 -0.0703  0.0295
 5181POPS   GL162691  21.151  10.544   7.804 -0.2556  0.1276  0.3570
 5181POPS   GL262692  21.322  10.498   7.633 -0.1441 -0.3262 -0.0523
 5181POPS   C1A62693  20.801  10.573   7.496  0.1435  0.1431  0.4831
 5181POPS   D2A62694  20.876  10.507   7.042 -0.0307  0.0519  0.0473
 5181POPS   C3A62695  20.660  10.583   6.632  0.0811  0.3035  0.0748
 5181POPS   C4A62696  20.384  10.505   6.251  0.0690  0.1472  0.0869
 5181POPS   C1B62697  21.250  10.744   7.272 -0.0523 -0.1664  0.1574
 5181POPS   C2B62698  21.137  10.998   6.860 -0.0896  0.5023  0.1294
 5181POPS   C3B62699  20.945  10.917   6.507  0.0909 -0.0157  0.0181
 5181POPS   C4B62700  21.243  10.897   6.171 -0.0668  0.2147  0.2447
 5182POPS   CNO62701  11.837  31.347   7.600  0.0065 -0.0107  0.0409
 5182POPS   PO462702  11.669  31.354   7.954 -0.2988  0.0778 -0.0947
 5182POPS   GL162703  11.437  31.017   7.806  0.0128  0.1124  0.1043
 5182POPS   GL262704  11.340  31.219   7.628  0.2678  0.2323 -0.0594
 5182POPS   C1A62705  11.453  30.642   7.527  0.0521 -0.1954  0.0057
 5182POPS   D2A62706  11.314  30.508   7.071  0.0782 -0.1402  0.0527
 5182POPS   C3A62707  11.462  30.582   6.614 -0.2420  0.3705  0.1147
 5182POPS   C4A62708  11.688  30.472   6.223  0.0318 -0.0060 -0.2252
 5182POPS   C1B62709  11.164  31.008   7.306  0.0133  0.0619 -0.0935
 5182POPS   C2B62710  11.121  30.938   6.863  0.4455 -0.1030  0.1588
 5182POPS   C3B62711  11.007  30.720   6.458  0.1196  0.1192  0.1238
 5182POPS   C4B62712  11.241  30.524   6.099  0.0182 -0.0486 -0.2150
 5183POPS   CNO62713   2.105  30.824   7.546 -0.1579 -0.0384 -0.1198
 5183POPS   PO462714   2.161  30.480   7.531 -0.2305 -0.2877 -0.1219
 5183POPS   GL162715   2.292  30.623   7.162 -0.1490  0.1603  0.0559
 5183POPS   GL262716   2.378  30.289   7.091  0.3879  0.0514 -0.3451
 5183POPS   C1A62717   2.069  30.566   6.755  0.0651 -0.1316 -0.1544
 5183POPS   D2A62718   1.909  30.393   6.354 -0.2603  0.2035 -0.3699
 5183POPS   C3A62719   2.128  30.120   6.063 -0.0944 -0.1335 -0.0413
 5183POPS   C4A62720   2.565  30.105   5.863  0.2859 -0.1289  0.3250
 5183POPS   C1B62721   2.619  30.335   6.660  0.0464  0.0234  0.0277
 5183POPS   C2B62722   2.839  30.291   6.261  0.0267 -0.1827  0.1667
 5183POPS   C3B62723   2.900  30.490   5.868 -0.0178  0.0864 -0.1517
 5183POPS   C4B62724   2.513  30.598   5.619 -0.2791  0.1085 -0.0200
 5184POPS   CNO62725  25.602  30.445   8.120 -0.0169  0.1052 -0.2126
 5184POPS   PO462726  25.567  30.324   7.804  0.0607  0.0851 -0.0780
 5184POPS   GL162727  25.783  30.224   7.422 -0.0416  0.1756  0.0479
 5184POPS   GL262728  25.893  30.541   7.446  0.4958  0.0684 -0.0348
 5184POPS   C1A62729  25.652  30.093   7.010  0.0790 -0.1957  0.0222
 5184POPS   D2A62730  25.461  30.320   6.667  0.3693  0.2150  0.2816
 5184POPS   C3A62731  25.618  30.439   6.251 -0.0676 -0.0653  0.0584
 5184POPS   C4A62732  25.815  30.445   5.827 -0.1056  0.2393  0.1085
 5184POPS   C1B62733  25.697  30.672   7.067  0.1656 -0.0740 -0.1645
 5184POPS   C2B62734  25.705  30.880   6.605  0.2796  0.0223  0.2352
 5184POPS   C3B62735  25.950  30.847   6.195 -0.1386 -0.1010 -0.0806
 5184POPS   C4B62736  26.262  30.700   5.901  0.4014 -0.1189 -0.0789
 5185POPS   CNO62737  22.431  12.576   7.581 -0.2143  0.0696 -0.0770
 5185POPS   PO462738  22.174  12.336   7.459 -0.3581 -0.0237  0.2497
 5185POPS   GL162739  22.363  12.482   7.123 -0.1834 -0.0961 -0.0080
 5185POPS   GL262740  22.469  12.254   6.910 -0.2225  0.0550 -0.0511
 5185POPS   C1A62741  22.643  12.710   6.814  0.4224 -0.2894 -0.0950
 5185POPS   D2A62742  23.030  12.951   6.781  0.2696 -0.3945  0.2625
 5185POPS   C3A62743  23.425  12.786   6.571 -0.0704  0.6054 -0.0648
 5185POPS   C4A62744  23.739  13.075   6.408 -0.0042  0.3218  0.0577
 5185POPS   C1B62745  22.638  12.200   6.504 -0.0462 -0.2337  0.3620
 5185POPS   C2B62746  22.754  12.240   6.061 -0.0467  0.0886  0.0481
 5185POPS   C3B62747  23.037  12.350   5.685 -0.0087 -0.0968 -0.0554
 5185POPS   C4B62748  23.263  12.248   5.330  0.0738  0.1906 -0.0882
 5186POPS   CNO62749  18.681  19.257   7.754 -0.0738 -0.0196  0.0255
 5186POPS   PO462750  18.675  18.882   7.844  0.0920  0.3103 -0.1763
 5186POPS   GL162751  18.548  18.636   7.622  0.0643  0.2702 -0.1340
 5186POPS   GL262752  18.675  18.401   7.737  0.0556  0.0636  0.1586
 5186POPS   C1A62753  18.347  18.837   7.253 -0.1519  0.1626  0.0398
 5186POPS   D2A62754  18.142  19.027   6.878  0.1101 -0.2438  0.1878
 5186POPS   C3A62755  18.059  19.341   6.519 -0.2092 -0.2125  0.1592
 5186POPS   C4A62756  18.092  19.311   6.071 -0.1383 -0.0867 -0.2167
 5186POPS   C1B62757  18.642  17.992   7.553 -0.0211 -0.2819  0.3130
 5186POPS   C2B62758  18.439  17.805   7.165 -0.1827 -0.1010  0.0993
 5186POPS   C3B62759  18.091  17.927   6.962  0.0110  0.0523  0.1084
 5186POPS   C4B62760  17.909  18.146   6.526  0.0801 -0.3045  0.3308
 5187POPS   CNO62761  22.173   1.525   8.007 -0.3572  0.0190 -0.0076
 5187POPS   PO462762  21.879   1.312   8.072  0.2419 -0.1061 -0.1062
 5187POPS   GL162763  22.014   1.393   7.615  0.0526  0.2388 -0.0822
 5187POPS   GL262764  21.954   1.180   7.436 -0.0363 -0.0234 -0.1194
 5187POPS   C1A62765  22.213   1.626   7.318  0.1482 -0.3472  0.2015
 5187POPS   D2A62766  22.091   1.825   6.964 -0.0914  0.3156  0.0788
 5187POPS   C3A62767  22.395   2.151   6.844  0.0642 -0.0448  0.0606
 5187POPS   C4A62768  22.806   2.185   6.916  0.2447 -0.1424  0.0985
 5187POPS   C1B62769  21.769   1.498   7.204 -0.0169 -0.1986  0.0895
 5187POPS   C2B62770  21.699   1.594   6.758 -0.1527  0.1397  0.4092
 5187POPS   C3B62771  21.667   1.729   6.309  0.0235  0.0856 -0.0605
 5187POPS   C4B62772  21.657   1.691   5.834 -0.4040  0.1433  0.1758
 5188POPS   CNO62773   9.641  15.501   7.936  0.2348 -0.1312  0.0710
 5188POPS   PO462774   9.395  15.362   7.675 -0.2555  0.1295  0.0644
 5188POPS   GL162775   9.299  15.062   7.530 -0.0965  0.0836 -0.0987
 5188POPS   GL262776   9.455  15.029   7.262  0.1643  0.5141  0.3859
 5188POPS   C1A62777   8.883  14.805   7.508 -0.0645  0.1068 -0.4317
 5188POPS   D2A62778   8.875  14.434   7.285 -0.1121  0.1788 -0.0418
 5188POPS   C3A62779   8.703  14.334   6.873 -0.1136 -0.0372  0.2943
 5188POPS   C4A62780   8.702  14.371   6.424 -0.1068  0.0666  0.1728
 5188POPS   C1B62781   9.391  15.016   6.821 -0.3506  0.0397  0.0165
 5188POPS   C2B62782   9.508  14.950   6.379 -0.0323 -0.0868  0.3704
 5188POPS   C3B62783   9.434  14.805   5.929  0.0140  0.1784 -0.2111
 5188POPS   C4B62784   9.592  14.782   5.548 -0.3533 -0.0645 -0.2281
 5189POPS   CNO62785  13.887  11.015   7.817  0.0036  0.0572  0.1693
 5189POPS   PO462786  14.179  10.940   7.605  0.2897  0.0599 -0.1346
 5189POPS   GL162787  14.345  11.100   7.224  0.2578 -0.0785  0.1744
 5189POPS   GL262788  14.495  11.341   7.190  0.1596  0.0068  0.1286
 5189POPS   C1A62789  14.324  10.984   6.771  0.0575  0.1884  0.1883
 5189POPS   D2A62790  14.289  10.958   6.252 -0.0504 -0.1207  0.1038
 5189POPS   C3A62791  14.185  11.045   5.800  0.0273 -0.0624  0.1760
 5189POPS   C4A62792  14.275  10.765   5.410 -0.0481 -0.1248  0.0266
 5189POPS   C1B62793  14.655  11.389   6.748 -0.0963  0.1002  0.2669
 5189POPS   C2B62794  14.600  11.373   6.254 -0.0358  0.4455 -0.0748
 5189POPS   C3B62795  14.611  11.382   5.839 -0.0540 -0.0121  0.2188
 5189POPS   C4B62796  14.661  11.071   5.507  0.0076 -0.1550 -0.0413
 5190POPS   CNO62797   9.936   6.622   8.282 -0.1859 -0.0219  0.1300
 5190POPS   PO462798   9.792   6.433   7.997  0.0674  0.1424 -0.2039
 5190POPS   GL162799   9.609   6.572   7.600 -0.2373  0.1897 -0.1377
 5190POPS   GL262800   9.359   6.444   7.531  0.1123  0.3813  0.3122
 5190POPS   C1A62801   9.809   6.591   7.240  0.1328  0.2771  0.1245
 5190POPS   D2A62802   9.969   6.187   7.042 -0.1585  0.2894 -0.1401
 5190POPS   C3A62803  10.320   6.169   6.722 -0.0386 -0.0700  0.0034
 5190POPS   C4A62804  10.490   6.199   6.294 -0.1104  0.0916  0.0028
 5190POPS   C1B62805   9.434   6.310   7.099  0.0822 -0.0672 -0.1326
 5190POPS   C2B62806   9.636   6.200   6.717 -0.1640 -0.3099 -0.0340
 5190POPS   C3B62807   9.797   6.228   6.294  0.0759  0.4798  0.2414
 5190POPS   C4B62808  10.037   6.157   5.937  0.0183 -0.0666  0.1082
 5191POPS   CNO62809  14.090   1.076   7.926 -0.1943  0.2780  0.0753
 5191POPS   PO462810  14.135   1.383   7.704  0.0902  0.0101 -0.0314
 5191POPS   GL162811  14.236   1.550   7.389  0.1966  0.0110  0.1308
 5191POPS   GL262812  14.063   1.653   7.193 -0.1235  0.1543 -0.0053
 5191POPS   C1A62813  14.518   1.712   7.033  0.0363  0.1936  0.1811
 5191POPS   D2A62814  14.618   1.988   6.683  0.1230 -0.0512 -0.1197
 5191POPS   C3A62815  14.902   2.200   6.389 -0.0101 -0.2461 -0.1339
 5191POPS   C4A62816  15.185   2.447   6.095 -0.3373  0.2587 -0.2479
 5191POPS   C1B62817  13.983   1.537   6.739 -0.1420 -0.0506 -0.1071
 5191POPS   C2B62818  13.652   1.292   6.561  0.0675  0.0714  0.2184
 5191POPS   C3B62819  13.429   1.488   6.176 -0.2482  0.1722 -0.1566
 5191POPS   C4B62820  13.326   1.631   5.816  0.0508 -0.1994 -0.0224
 5192POPS   CNO62821  29.046  26.158   8.378 -0.0336  0.2263 -0.1938
 5192POPS   PO462822  29.209  26.068   8.027 -0.2766  0.0465 -0.1230
 5192POPS   GL162823  29.169  26.252   7.662  0.0492 -0.1382  0.1127
 5192POPS   GL262824  29.436  26.386   7.662  0.3144 -0.1596  0.0743
 5192POPS   C1A62825  29.078  26.019   7.246  0.2125 -0.0064 -0.1093
 5192POPS   D2A62826  29.097  25.973   6.788 -0.1155 -0.0668  0.0358
 5192POPS   C3A62827  29.337  26.185   6.417 -0.1542 -0.2435 -0.0095
 5192POPS   C4A62828  29.402  26.368   5.973 -0.4284 -0.2390 -0.0364
 5192POPS   C1B62829  29.693  26.417   7.257 -0.1295  0.2306  0.0612
 5192POPS   C2B62830  29.930  26.158   6.975 -0.1200 -0.2371  0.0408
 5192POPS   C3B62831  30.239  26.109   6.629 -0.0268 -0.1961 -0.1490
 5192POPS   C4B62832  30.539  26.186   6.299 -0.0867  0.1176 -0.0799
 5193POPS   CNO62833   0.599   7.940   7.924  0.1173 -0.0968  0.5400
 5193POPS   PO462834   0.410   8.203   7.709  0.2462 -0.2004  0.2953
 5193POPS   GL162835   0.391   8.016   7.390 -0.0188 -0.3052  0.2868
 5193POPS   GL262836   0.104   8.007   7.287  0.1648 -0.1249 -0.0287
 5193POPS   C1A62837   0.469   7.960   6.928  0.0327  0.0734 -0.1974
 5193POPS   D2A62838   0.526   7.733   6.526 -0.1270  0.1447  0.0248
 5193POPS   C3A62839   0.712   7.709   6.096 -0.1938  0.3745 -0.4368
 5193POPS   C4A62840   0.761   7.931   5.638  0.0591  0.0565 -0.2767
 5193POPS   C1B62841  -0.092   8.138   6.941  0.3131  0.0625 -0.0329
 5193POPS   C2B62842  -0.170   8.327   6.463 -0.0157  0.2541  0.2165
 5193POPS   C3B62843   0.061   8.440   6.133  0.0490 -0.0810 -0.1418
 5193POPS   C4B62844   0.430   8.256   5.905 -0.1815  0.0017  0.2186
 5194POPS   CNO62845  15.456   2.638   8.479 -0.0803  0.2226 -0.1672
 5194POPS   PO462846  15.424   2.770   8.129  0.2012  0.1668  0.1534
 5194POPS   GL162847  15.578   2.567   7.853  0.0713 -0.1109  0.1636
 5194POPS   GL262848  15.603   2.698   7.558  0.5010  0.0174 -0.0400
 5194POPS   C1A62849  15.655   2.148   7.657 -0.1979  0.2256  0.4027
 5194POPS   D2A62850  15.571   1.947   7.266 -0.1365 -0.2039  0.0879
 5194POPS   C3A62851  15.524   1.961   6.811  0.1113 -0.2386 -0.1778
 5194POPS   C4A62852  15.449   2.279   6.473 -0.1829  0.0301 -0.2217
 5194POPS   C1B62853  15.677   2.954   7.171 -0.1027 -0.1233 -0.0265
 5194POPS   C2B62854  15.902   3.214   6.829  0.1907  0.0573  0.0622
 5194POPS   C3B62855  15.929   3.335   6.375 -0.2031 -0.2489 -0.2668
 5194POPS   C4B62856  15.900   3.451   5.962 -0.3499  0.1753  0.0377
 5195POPS   CNO62857  28.434   8.793   8.194 -0.2396  0.0867  0.0067
 5195POPS   PO462858  28.573   8.431   8.172 -0.1795 -0.1084  0.5471
 5195POPS   GL162859  28.534   8.385   7.767 -0.2521 -0.3069 -0.1318
 5195POPS   GL262860  28.388   8.667   7.679 -0.3247 -0.1618  0.2313
 5195POPS   C1A62861  28.609   8.339   7.308  0.0338 -0.1047  0.0773
 5195POPS   D2A62862  28.791   8.593   6.910  0.2524 -0.1093  0.1783
 5195POPS   C3A62863  28.856   8.574   6.436 -0.2535  0.2280 -0.2711
 5195POPS   C4A62864  29.040   8.273   6.183  0.1461 -0.1077  0.0550
 5195POPS   C1B62865  28.348   8.795   7.199 -0.1804 -0.1297 -0.0498
 5195POPS   C2B62866  28.297   8.772   6.751  0.2193 -0.0705 -0.0638
 5195POPS   C3B62867  28.312   8.770   6.267  0.1284  0.1132  0.4434
 5195POPS   C4B62868  28.465   9.119   6.012 -0.0587 -0.0874  0.0782
 5196POPS   CNO62869  15.277  13.139   8.011  0.1428 -0.1373  0.0375
 5196POPS   PO462870  15.048  13.362   7.815 -0.0277  0.0810  0.2027
 5196POPS   GL162871  15.042  13.593   7.543 -0.1542  0.1107 -0.2267
 5196POPS   GL262872  15.281  13.714   7.468 -0.1293 -0.1474  0.0351
 5196POPS   C1A62873  14.866  13.709   7.147 -0.1096 -0.1527  0.2316
 5196POPS   D2A62874  14.988  13.654   6.651  0.2357 -0.1486  0.0253
 5196POPS   C3A62875  15.225  13.564   6.233  0.1466 -0.4605 -0.3123
 5196POPS   C4A62876  15.124  13.413   5.817 -0.2511  0.1277  0.0224
 5196POPS   C1B62877  15.278  13.509   7.031 -0.1992 -0.2452  0.0088
 5196POPS   C2B62878  15.568  13.478   6.685  0.3290  0.2071  0.3315
 5196POPS   C3B62879  15.776  13.646   6.330  0.1917 -0.1726 -0.0160
 5196POPS   C4B62880  15.850  13.872   5.949 -0.0633  0.1883 -0.2961
 5197POPS   CNO62881  25.851  12.706   7.664  0.2701  0.2649  0.1488
 5197POPS   PO462882  26.194  12.605   7.597 -0.0774 -0.0541  0.0157
 5197POPS   GL162883  26.207  12.629   7.243  0.0427  0.1143 -0.1263
 5197POPS   GL262884  25.992  12.726   7.077  0.0628  0.1173 -0.1461
 5197POPS   C1A62885  26.409  12.458   6.913  0.2139  0.1193  0.0587
 5197POPS   D2A62886  26.499  12.420   6.445 -0.2845 -0.1982 -0.0817
 5197POPS   C3A62887  26.623  12.691   6.098  0.1159 -0.1140 -0.0400
 5197POPS   C4A62888  26.576  13.072   5.819 -0.0210  0.0890  0.2067
 5197POPS   C1B62889  25.743  12.955   6.790  0.2534  0.0225 -0.2780
 5197POPS   C2B62890  25.706  13.069   6.325 -0.3560 -0.0044 -0.1819
 5197POPS   C3B62891  25.551  13.296   5.989  0.1645 -0.3121  0.2681
 5197POPS   C4B62892  25.841  13.581   5.669  0.2323 -0.0300 -0.0352
 5198POPS   CNO62893   0.852  17.512   7.971 -0.2296 -0.0196 -0.1889
 5198POPS   PO462894   0.981  17.567   7.608 -0.0914  0.3756  0.1779
 5198POPS   GL162895   0.730  17.540   7.225  0.0885 -0.1533  0.1107
 5198POPS   GL262896   0.752  17.266   7.181  0.0664 -0.0855 -0.0236
 5198POPS   C1A62897   0.910  17.647   6.795  0.2221 -0.0934 -0.3224
 5198POPS   D2A62898   1.094  17.745   6.390 -0.0899  0.0441 -0.2045
 5198POPS   C3A62899   1.426  17.452   6.172  0.2571 -0.2240 -0.1783
 5198POPS   C4A62900   1.467  17.047   5.937 -0.1497  0.1591  0.0153
 5198POPS   C1B62901   0.557  17.008   6.843 -0.0108  0.0718 -0.4074
 5198POPS   C2B62902   0.374  17.050   6.435 -0.0374 -0.0861  0.0112
 5198POPS   C3B62903   0.365  17.016   6.011  0.1716 -0.3487  0.2753
 5198POPS   C4B62904   0.026  16.917   5.748 -0.0846  0.2638  0.0319
 5199POPS   CNO62905   9.186  18.799   7.798  0.0789  0.1910 -0.2675
 5199POPS   PO462906   8.956  18.529   7.732  0.3791  0.0127  0.0704
 5199POPS   GL162907   8.859  18.320   7.446  0.2896 -0.4551 -0.0864
 5199POPS   GL262908   8.589  18.274   7.397 -0.1002  0.0280 -0.0172
 5199POPS   C1A62909   8.829  18.318   6.990  0.2134  0.1181 -0.2110
 5199POPS   D2A62910   8.591  18.150   6.694  0.1746  0.2437 -0.0447
 5199POPS   C3A62911   8.569  18.168   6.204 -0.1983  0.0899 -0.0187
 5199POPS   C4A62912   8.471  18.412   5.896  0.1286  0.1314  0.0101
 5199POPS   C1B62913   8.226  18.124   7.059 -0.1385  0.0881  0.0087
 5199POPS   C2B62914   7.806  18.009   6.844 -0.1123  0.1001 -0.4217
 5199POPS   C3B62915   7.525  17.911   6.524  0.3132 -0.1145  0.2823
 5199POPS   C4B62916   7.076  17.764   6.446 -0.3047 -0.1711  0.0211
 5200POPS   CNO62917  31.353  24.660   7.612 -0.2253  0.4376 -0.0314
 5200POPS   PO462918  31.271  24.472   7.300 -0.1006 -0.0854 -0.1955
 5200POPS   GL162919  31.393  24.624   6.904  0.1863  0.0414 -0.0046
 5200POPS   GL262920  31.426  24.349   6.801  0.0423 -0.0540  0.0943
 5200POPS   C1A62921  31.140  24.665   6.532 -0.0185 -0.1385  0.1024
 5200POPS   D2A62922  31.122  24.557   6.087  0.1025 -0.0282 -0.2177
 5200POPS   C3A62923  30.786  24.817   5.901  0.0985 -0.1538 -0.1640
 5200POPS   C4A62924  30.437  25.031   5.656  0.1473 -0.0718  0.0101
 5200POPS   C1B62925  31.393  24.097   6.414  0.2503 -0.4193  0.3689
 5200POPS   C2B62926  31.284  23.758   6.118  0.0472 -0.1250  0.0494
 5200POPS   C3B62927  31.544  23.438   5.955 -0.1667  0.2081  0.2727
 5200POPS   C4B62928  31.779  23.215   5.621 -0.1337 -0.0491 -0.3625
 5201POPS   CNO62929  30.522  20.736   8.271  0.4153 -0.2164  0.1943
 5201POPS   PO462930  30.300  20.914   8.059  0.0483 -0.0774 -0.0970
 5201POPS   GL162931  30.484  20.895   7.680 -0.1369  0.2382 -0.0288
 5201POPS   GL262932  30.435  21.189   7.604 -0.0840  0.0490  0.2756
 5201POPS   C1A62933  30.782  20.819   7.354 -0.1872 -0.3112 -0.1132
 5201POPS   D2A62934  31.035  20.791   6.954  0.1231  0.0039  0.3836
 5201POPS   C3A62935  30.819  20.759   6.472 -0.2099  0.3513  0.0556
 5201POPS   C4A62936  30.952  20.926   6.041 -0.1289  0.0680  0.0504
 5201POPS   C1B62937  30.354  21.081   7.164  0.2479  0.1421  0.1274
 5201POPS   C2B62938  30.624  21.063   6.855 -0.2062 -0.1025 -0.3545
 5201POPS   C3B62939  30.960  21.200   6.568 -0.0584 -0.1771  0.1570
 5201POPS   C4B62940  31.258  21.236   6.203 -0.2566  0.0373 -0.2305
 5202POPS   CNO62941   6.877   5.058   7.618  0.1118 -0.0195  0.0211
 5202POPS   PO462942   6.534   4.979   7.597 -0.1751  0.1913  0.1851
 5202POPS   GL162943   6.562   4.939   7.288 -0.1014  0.3852 -0.1782
 5202POPS   GL262944   6.747   4.709   7.239  0.1674 -0.0045  0.4620
 5202POPS   C1A62945   6.382   5.208   6.992 -0.1106  0.1483 -0.1520
 5202POPS   D2A62946   6.548   5.394   6.639  0.1632  0.1757  0.2360
 5202POPS   C3A62947   6.331   5.157   6.263  0.2346  0.2197 -0.2157
 5202POPS   C4A62948   6.101   4.857   6.039  0.2665 -0.0322  0.1310
 5202POPS   C1B62949   6.818   4.465   6.808  0.0143  0.4044  0.3093
 5202POPS   C2B62950   6.946   4.267   6.396 -0.0327 -0.1328 -0.0915
 5202POPS   C3B62951   6.996   4.322   5.944 -0.1397  0.0622 -0.1381
 5202POPS   C4B62952   6.866   4.359   5.477 -0.0466 -0.0755  0.0629
 5203POPS   CNO62953   4.056  25.794   7.511  0.0320  0.1895 -0.1717
 5203POPS   PO462954   3.877  26.003   7.820 -0.0188  0.1836 -0.0412
 5203POPS   GL162955   3.920  26.157   7.334  0.0402  0.0661 -0.4847
 5203POPS   GL262956   3.697  26.044   7.274  0.4216  0.0492  0.0312
 5203POPS   C1A62957   4.259  26.120   7.027  0.2925  0.0296 -0.1021
 5203POPS   D2A62958   4.616  26.253   6.855 -0.2286 -0.1262  0.2082
 5203POPS   C3A62959   4.688  26.187   6.437 -0.0470  0.1085  0.1036
 5203POPS   C4A62960   4.940  26.259   6.024  0.0782  0.2874  0.1516
 5203POPS   C1B62961   3.823  26.049   6.824 -0.0645 -0.2879  0.0032
 5203POPS   C2B62962   4.039  26.207   6.430 -0.1930 -0.0762  0.2621
 5203POPS   C3B62963   4.330  26.354   6.062 -0.1443  0.2436 -0.1741
 5203POPS   C4B62964   4.497  26.427   5.639 -0.3084 -0.1070  0.0409
 5204POPS   CNO62965   6.147  20.703   7.958  0.3617 -0.1544 -0.0792
 5204POPS   PO462966   6.310  21.023   7.815  0.1282 -0.3135 -0.0629
 5204POPS   GL162967   6.382  21.331   7.488  0.0870  0.2647 -0.0070
 5204POPS   GL262968   6.442  21.178   7.323 -0.0157  0.0789  0.0279
 5204POPS   C1A62969   6.070  21.440   7.112  0.0372  0.1806 -0.1360
 5204POPS   D2A62970   5.943  21.662   6.695 -0.2772 -0.1100 -0.1034
 5204POPS   C3A62971   5.697  21.924   6.364  0.0164  0.4453  0.1083
 5204POPS   C4A62972   5.829  22.113   5.925  0.0095 -0.2630 -0.1144
 5204POPS   C1B62973   6.731  21.605   7.401  0.2221  0.0790 -0.0354
 5204POPS   C2B62974   6.964  21.764   7.114  0.3196 -0.0895  0.0338
 5204POPS   C3B62975   7.008  21.734   6.652  0.2748 -0.1004 -0.2658
 5204POPS   C4B62976   7.173  21.702   6.189  0.0224 -0.0118  0.1789
 5205POPS   CNO62977  25.033  19.974   8.398 -0.3125  0.1667 -0.0153
 5205POPS   PO462978  24.946  20.024   8.046  0.1415  0.0256  0.0259
 5205POPS   GL162979  25.016  20.099   7.699 -0.2455  0.3162  0.1393
 5205POPS   GL262980  25.007  20.365   7.612  0.3182 -0.1874  0.1073
 5205POPS   C1A62981  25.000  19.860   7.289  0.0121  0.1094 -0.0302
 5205POPS   D2A62982  25.189  19.908   6.820 -0.0375 -0.3903  0.1194
 5205POPS   C3A62983  25.519  20.127   6.652 -0.0359  0.1815 -0.0561
 5205POPS   C4A62984  25.598  20.367   6.284  0.0076 -0.1739 -0.0206
 5205POPS   C1B62985  25.078  20.697   7.336 -0.0927  0.2182  0.0335
 5205POPS   C2B62986  25.143  20.860   6.904 -0.2409 -0.1163 -0.2043
 5205POPS   C3B62987  25.398  21.175   6.636 -0.0714 -0.1544  0.1848
 5205POPS   C4B62988  25.637  21.274   6.221  0.1374  0.1261  0.0859
 5206POPS   CNO62989  12.577   7.568   8.176 -0.0862  0.0299 -0.3838
 5206POPS   PO462990  12.306   7.324   8.157 -0.0816 -0.0954  0.2018
 5206POPS   GL162991  12.131   7.390   7.708 -0.0879  0.3475 -0.2828
 5206POPS   GL262992  11.888   7.615   7.816 -0.1106  0.0423 -0.0910
 5206POPS   C1A62993  12.021   7.034   7.496  0.1652  0.0445 -0.0089
 5206POPS   D2A62994  11.744   6.810   7.156  0.2069  0.0629  0.1016
 5206POPS   C3A62995  11.478   6.465   7.286  0.2719 -0.2352  0.1868
 5206POPS   C4A62996  11.230   6.111   7.098  0.2787  0.2286  0.0832
 5206POPS   C1B62997  11.698   7.429   7.487  0.2435  0.2189 -0.2343
 5206POPS   C2B62998  11.652   7.307   6.992 -0.0795  0.2420  0.4247
 5206POPS   C3B62999  11.590   7.364   6.575  0.3466 -0.1308  0.0675
 5206POPS   C4B63000  11.332   7.351   6.185 -0.1855 -0.0130  0.0457
 5207POPS   CNO63001   8.319   0.090   7.858  0.1299  0.1048  0.3041
 5207POPS   PO463002   8.476   0.424   7.902 -0.1156 -0.1004  0.0798
 5207POPS   GL163003   8.449   0.340   7.487  0.2286 -0.0429  0.0966
 5207POPS   GL263004   8.724   0.242   7.499 -0.2318  0.0314  0.0547
 5207POPS   C1A63005   8.458   0.178   7.025  0.1278 -0.1072  0.0237
 5207POPS   D2A63006   8.646   0.169   6.605  0.2955 -0.2287  0.0099
 5207POPS   C3A63007   8.488  -0.031   6.234 -0.3045  0.1716  0.1732
 5207POPS   C4A63008   8.151  -0.098   5.915  0.1320 -0.1757 -0.0603
 5207POPS   C1B63009   8.763   0.524   7.170 -0.0762 -0.2490 -0.0674
 5207POPS   C2B63010   8.943   0.593   6.719  0.2173 -0.0189 -0.1592
 5207POPS   C3B63011   9.213   0.715   6.374  0.0384  0.0446 -0.1286
 5207POPS   C4B63012   9.626   0.797   6.169 -0.2894  0.2588 -0.2846
 5208POPS   CNO63013  12.665  10.184   7.803 -0.3076  0.2630  0.1531
 5208POPS   PO463014  12.828  10.368   7.490 -0.1065  0.0163  0.3299
 5208POPS   GL163015  12.623  10.357   7.129 -0.2834  0.3814 -0.1049
 5208POPS   GL263016  12.452  10.647   7.215  0.2740  0.0575  0.0236
 5208POPS   C1A63017  12.544  10.116   6.766  0.2498  0.1397 -0.1556
 5208POPS   D2A63018  12.498   9.865   6.349 -0.0929  0.2628 -0.3203
 5208POPS   C3A63019  12.121   9.722   6.180 -0.1848 -0.1114  0.2595
 5208POPS   C4A63020  11.738   9.876   5.988  0.1959  0.3346 -0.0193
 5208POPS   C1B63021  12.302  10.585   6.828 -0.1532  0.0611  0.4416
 5208POPS   C2B63022  12.353  10.696   6.379 -0.2587  0.1170  0.0182
 5208POPS   C3B63023  12.443  10.633   5.932  0.1713 -0.3285 -0.0307
 5208POPS   C4B63024  12.434  10.406   5.554 -0.2198  0.1392 -0.0630
 5209POPS   CNO63025  17.277   8.388   8.165  0.1653  0.0271 -0.1015
 5209POPS   PO463026  16.947   8.478   8.008  0.4181 -0.0370 -0.1961
 5209POPS   GL163027  16.916   8.308   7.641 -0.0548  0.2491  0.2241
 5209POPS   GL263028  16.652   8.323   7.509  0.0067 -0.1661  0.1078
 5209POPS   C1A63029  17.011   7.897   7.385  0.1942 -0.3946 -0.0575
 5209POPS   D2A63030  17.255   7.588   7.279  0.0370 -0.2984  0.2673
 5209POPS   C3A63031  17.089   7.336   6.940  0.0958 -0.0119  0.3197
 5209POPS   C4A63032  17.324   6.901   6.789 -0.1544  0.1169 -0.0676
 5209POPS   C1B63033  16.760   8.307   7.073  0.2687 -0.1765  0.2934
 5209POPS   C2B63034  16.999   8.222   6.645  0.3016 -0.4945 -0.3480
 5209POPS   C3B63035  16.953   8.244   6.177 -0.0725 -0.0081  0.0414
 5209POPS   C4B63036  17.005   8.333   5.681  0.3121  0.3207 -0.4029
 5210POPS   CNO63037  16.491  10.035   7.656 -0.4139 -0.1126 -0.2449
 5210POPS   PO463038  16.449   9.759   7.877  0.0201  0.0182 -0.1261
 5210POPS   GL163039  16.293   9.700   7.462  0.2773  0.1321  0.1002
 5210POPS   GL263040  16.330   9.405   7.310 -0.0443  0.1693  0.0833
 5210POPS   C1A63041  16.444   9.763   6.982  0.0767  0.2549 -0.0186
 5210POPS   D2A63042  16.351   9.800   6.482  0.2037 -0.1978 -0.3477
 5210POPS   C3A63043  16.405   9.474   6.126 -0.2222 -0.2990 -0.4252
 5210POPS   C4A63044  16.392   9.659   5.738 -0.0101  0.3255  0.0420
 5210POPS   C1B63045  16.150   9.342   6.840 -0.1181  0.2673 -0.0356
 5210POPS   C2B63046  16.130   9.128   6.408 -0.2060 -0.1229 -0.1120
 5210POPS   C3B63047  16.101   8.796   6.098 -0.2345  0.1938 -0.0597
 5210POPS   C4B63048  15.749   8.809   5.772 -0.3395 -0.4360  0.3149
 5211POPS   CNO63049  11.971  26.092   7.733  0.0656 -0.1053 -0.2929
 5211POPS   PO463050  11.601  25.980   7.873 -0.2245 -0.2143  0.0146
 5211POPS   GL163051  11.557  26.055   7.398 -0.1970 -0.4848 -0.5474
 5211POPS   GL263052  11.331  26.223   7.277  0.0582 -0.0558  0.2988
 5211POPS   C1A63053  11.496  25.805   7.051 -0.1033 -0.0420  0.0395
 5211POPS   D2A63054  11.283  25.663   6.662  0.1129  0.0273  0.0033
 5211POPS   C3A63055  10.963  25.882   6.432  0.0780 -0.1218  0.0249
 5211POPS   C4A63056  10.818  25.903   5.987 -0.1465  0.2418 -0.2078
 5211POPS   C1B63057  11.568  26.331   6.810  0.3572 -0.1563 -0.0559
 5211POPS   C2B63058  11.811  26.392   6.403  0.0586  0.0508 -0.0628
 5211POPS   C3B63059  11.971  26.278   6.032  0.0470  0.4171 -0.3470
 5211POPS   C4B63060  12.234  25.950   5.854  0.0517  0.2198 -0.0765
 5212POPS   CNO63061  17.170  19.292   7.906 -0.0113  0.2401  0.0979
 5212POPS   PO463062  16.901  19.483   8.005 -0.0850  0.0806  0.0641
 5212POPS   GL163063  16.782  19.395   7.607  0.0928  0.1336  0.0233
 5212POPS   GL263064  16.789  19.160   7.452  0.1287  0.0355  0.2230
 5212POPS   C1A63065  16.417  19.696   7.424  0.1066 -0.0963  0.0396
 5212POPS   D2A63066  16.073  19.951   7.208  0.0090 -0.0650 -0.2321
 5212POPS   C3A63067  16.388  20.052   6.903 -0.0538 -0.2357  0.4483
 5212POPS   C4A63068  16.761  19.954   6.624  0.1522  0.1226 -0.0850
 5212POPS   C1B63069  16.515  18.857   7.165  0.1173 -0.1203 -0.4021
 5212POPS   C2B63070  16.347  18.592   6.824  0.0322 -0.2643 -0.3216
 5212POPS   C3B63071  16.474  18.265   6.575 -0.1677  0.0772  0.0593
 5212POPS   C4B63072  16.555  18.028   6.155 -0.0577 -0.0019 -0.0597
 5213POPS   CNO63073  26.724  14.455   7.912  0.0472  0.0865 -0.1380
 5213POPS   PO463074  26.445  14.205   7.793 -0.1885 -0.1540 -0.1580
 5213POPS   GL163075  26.231  14.126   7.529  0.2035 -0.0139  0.2786
 5213POPS   GL263076  26.281  14.310   7.328  0.2878  0.0738  0.0184
 5213POPS   C1A63077  25.900  13.862   7.328  0.0249 -0.3289  0.3977
 5213POPS   D2A63078  25.510  13.858   7.134  0.1142 -0.1309 -0.0081
 5213POPS   C3A63079  25.345  13.924   6.679 -0.0057  0.0655  0.0824
 5213POPS   C4A63080  25.189  14.016   6.289 -0.1763 -0.1355 -0.0864
 5213POPS   C1B63081  26.157  14.194   6.926  0.4424 -0.1262  0.0514
 5213POPS   C2B63082  26.122  14.258   6.491 -0.2009  0.1181 -0.0150
 5213POPS   C3B63083  26.047  14.454   6.056  0.1665 -0.0204 -0.1626
 5213POPS   C4B63084  25.723  14.700   5.781  0.0007 -0.1780  0.0287
 5214POPS   CNO63085  15.446  19.982   7.605  0.1264 -0.0802  0.0094
 5214POPS   PO463086  15.792  19.875   7.702  0.0064 -0.1285  0.2474
 5214POPS   GL163087  15.792  20.232   7.394 -0.1253  0.1521  0.1844
 5214POPS   GL263088  15.803  20.515   7.375  0.1546  0.0466  0.3387
 5214POPS   C1A63089  15.994  20.329   6.959  0.4313 -0.0832 -0.0621
 5214POPS   D2A63090  16.074  20.396   6.496  0.1032  0.0528 -0.0379
 5214POPS   C3A63091  16.387  20.143   6.258 -0.0702  0.2646 -0.0013
 5214POPS   C4A63092  16.659  20.085   5.904  0.1774 -0.0342  0.1512
 5214POPS   C1B63093  16.035  20.775   7.103 -0.3244  0.2718 -0.0072
 5214POPS   C2B63094  16.180  20.836   6.712  0.0230  0.1902  0.0558
 5214POPS   C3B63095  16.289  20.852   6.271 -0.1729 -0.1430  0.0996
 5214POPS   C4B63096  16.422  20.568   5.951 -0.0089  0.0620 -0.1898
 5215POPS   CNO63097  18.899   6.805   7.759  0.1154 -0.1892 -0.1112
 5215POPS   PO463098  19.127   7.072   7.734 -0.0857  0.0268 -0.1671
 5215POPS   GL163099  19.291   6.988   7.331 -0.2723  0.1731 -0.0050
 5215POPS   GL263100  19.121   6.740   7.201 -0.0168  0.0318  0.3376
 5215POPS   C1A63101  19.689   6.884   7.134 -0.1623  0.2390  0.2499
 5215POPS   D2A63102  20.170   6.973   7.130  0.1848  0.1812  0.0599
 5215POPS   C3A63103  20.491   6.704   6.885  0.2219  0.0045 -0.2337
 5215POPS   C4A63104  20.827   6.605   6.567  0.2813  0.1483  0.0273
 5215POPS   C1B63105  19.226   6.780   6.778 -0.1325 -0.2264  0.0836
 5215POPS   C2B63106  19.491   6.675   6.366 -0.0005  0.4728  0.1004
 5215POPS   C3B63107  19.783   6.623   6.030 -0.3557 -0.3290 -0.1084
 5215POPS   C4B63108  20.176   6.565   5.845  0.0102  0.3782  0.1417
 5216POPS   CNO63109  26.272   6.276   8.113  0.0113 -0.0749  0.1093
 5216POPS   PO463110  26.278   6.564   7.907  0.1773  0.3604 -0.0505
 5216POPS   GL163111  26.330   6.624   7.490  0.1418  0.1216 -0.2713
 5216POPS   GL263112  26.647   6.750   7.469  0.1012 -0.2551  0.0583
 5216POPS   C1A63113  25.989   6.775   7.202 -0.1233  0.0762  0.4762
 5216POPS   D2A63114  25.585   6.869   7.036 -0.1133  0.1115  0.0478
 5216POPS   C3A63115  25.436   7.224   6.772 -0.1678  0.1565 -0.4072
 5216POPS   C4A63116  25.340   7.559   6.530  0.3477  0.0035 -0.3251
 5216POPS   C1B63117  26.520   6.680   7.010 -0.1443  0.0206  0.0855
 5216POPS   C2B63118  26.461   6.926   6.593 -0.4647  0.1453 -0.3101
 5216POPS   C3B63119  26.282   7.074   6.202  0.0831  0.0156  0.2916
 5216POPS   C4B63120  25.935   7.135   5.858  0.0628  0.4039 -0.0648
 5217POPS   CNO63121  22.363   1.055   7.827 -0.0232 -0.2884  0.0178
 5217POPS   PO463122  22.399   0.884   7.480  0.0125  0.1114 -0.3687
 5217POPS   GL163123  22.471   1.196   7.224 -0.0079 -0.2436 -0.0298
 5217POPS   GL263124  22.739   1.226   7.216 -0.1692 -0.0771 -0.2373
 5217POPS   C1A63125  22.185   1.181   6.793 -0.1147 -0.0221  0.1580
 5217POPS   D2A63126  21.910   1.240   6.417  0.4580 -0.0014 -0.1153
 5217POPS   C3A63127  22.011   1.231   5.970 -0.2792  0.0018 -0.0397
 5217POPS   C4A63128  22.341   1.127   5.707 -0.0476  0.1841 -0.0239
 5217POPS   C1B63129  22.696   0.954   6.842  0.0985 -0.1883  0.2854
 5217POPS   C2B63130  22.357   0.786   6.518  0.0081 -0.0567  0.2635
 5217POPS   C3B63131  22.206   0.656   6.115 -0.1442 -0.0165  0.2312
 5217POPS   C4B63132  22.223   0.502   5.694 -0.0979  0.0101  0.1252
 5218POPS   CNO63133   3.410  31.089   8.125 -0.2757 -0.2774  0.0003
 5218POPS   PO463134   3.184  31.282   7.916  0.1829  0.1404 -0.0600
 5218POPS   GL163135   3.407  31.284   7.573  0.4132 -0.4675 -0.3591
 5218POPS   GL263136   3.472  31.526   7.477  0.1818 -0.0254  0.3588
 5218POPS   C1A63137   3.301  31.256   7.131  0.1008  0.2263 -0.0754
 5218POPS   D2A63138   3.337  31.071   6.694 -0.2210 -0.1165 -0.1052
 5218POPS   C3A63139   3.491  31.271   6.319 -0.1967 -0.0100 -0.2876
 5218POPS   C4A63140   3.597  31.450   5.898  0.2668 -0.1849  0.1653
 5218POPS   C1B63141   3.391  31.869   7.092  0.2040  0.0731 -0.1642
 5218POPS   C2B63142   3.461  32.122   6.722 -0.3812  0.2378  0.4429
 5218POPS   C3B63143   3.590  32.350   6.356 -0.0956  0.2099  0.4626
 5218POPS   C4B63144   3.978  32.162   6.171  0.2162 -0.0312  0.1547
 5219POPS   CNO63145   3.389   8.164   8.147 -0.1402  0.2319  0.2730
 5219POPS   PO463146   3.257   8.132   7.789 -0.4294 -0.1421  0.2664
 5219POPS   GL163147   3.256   8.162   7.326 -0.2642 -0.3154  0.3195
 5219POPS   GL263148   3.385   8.476   7.226  0.1535 -0.0753 -0.0366
 5219POPS   C1A63149   3.277   8.227   6.845  0.0503  0.1935  0.3239
 5219POPS   D2A63150   3.266   8.404   6.411 -0.1031 -0.2790 -0.0283
 5219POPS   C3A63151   3.124   8.224   6.048  0.3359 -0.0666 -0.2865
 5219POPS   C4A63152   2.962   8.068   5.708 -0.1399 -0.1238 -0.0451
 5219POPS   C1B63153   3.694   8.601   6.890 -0.2367 -0.0009 -0.3866
 5219POPS   C2B63154   3.826   8.745   6.442  0.1210 -0.2123 -0.1115
 5219POPS   C3B63155   3.874   8.824   5.989  0.0615  0.2806  0.0451
 5219POPS   C4B63156   3.718   8.783   5.563 -0.3014  0.1705 -0.2085
 5220POPS   CNO63157   8.895  12.874   8.430  0.1775 -0.1112  0.1432
 5220POPS   PO463158   8.788  12.768   8.083  0.3323 -0.2802  0.2014
 5220POPS   GL163159   9.217  12.897   7.818  0.1732 -0.1737  0.0852
 5220POPS   GL263160   9.414  13.108   7.803  0.0508 -0.1363 -0.0623
 5220POPS   C1A63161   9.512  12.619   7.621 -0.1696 -0.0486 -0.1763
 5220POPS   D2A63162   9.558  12.712   7.211  0.0667 -0.0424  0.4246
 5220POPS   C3A63163   9.947  12.623   6.947  0.2980  0.1725 -0.0211
 5220POPS   C4A63164  10.284  12.454   6.671  0.3484  0.1493 -0.0395
 5220POPS   C1B63165   9.507  13.229   7.323 -0.0171  0.0877  0.0893
 5220POPS   C2B63166   9.563  13.239   6.880 -0.1104  0.0153 -0.0526
 5220POPS   C3B63167   9.530  13.309   6.435  0.1291 -0.0727  0.2825
 5220POPS   C4B63168   9.511  13.434   5.984  0.0543  0.0405  0.1695
 5221POPS   CNO63169  29.370  11.511   8.086  0.1331  0.0007 -0.2639
 5221POPS   PO463170  29.624  11.340   7.867  0.0936 -0.1070 -0.2174
 5221POPS   GL163171  29.637  11.328   7.450  0.0433 -0.2058 -0.1664
 5221POPS   GL263172  29.802  11.104   7.436 -0.1023  0.1269  0.0484
 5221POPS   C1A63173  29.306  11.268   7.124 -0.1065  0.0841  0.2772
 5221POPS   D2A63174  29.010  11.309   6.760  0.0227 -0.1632  0.0763
 5221POPS   C3A63175  29.182  11.027   6.387  0.1810 -0.0810  0.0776
 5221POPS   C4A63176  28.970  10.944   5.940 -0.3146 -0.1858 -0.0178
 5221POPS   C1B63177  29.816  11.064   6.969  0.1055 -0.0290  0.1030
 5221POPS   C2B63178  29.761  11.071   6.507 -0.1056  0.0885  0.1226
 5221POPS   C3B63179  29.551  11.114   6.091  0.1463  0.1409  0.1162
 5221POPS   C4B63180  29.452  11.156   5.684 -0.2991  0.2330  0.1127
 5222POPS   CNO63181  28.576  12.501   7.554  0.1352  0.0568 -0.0843
 5222POPS   PO463182  28.718  12.218   7.789 -0.0203  0.3975 -0.0178
 5222POPS   GL163183  28.923  12.041   7.526 -0.0925 -0.2589  0.2650
 5222POPS   GL263184  28.983  12.290   7.314  0.1838  0.3348 -0.1054
 5222POPS   C1A63185  29.020  11.779   7.115  0.0933  0.2712  0.1195
 5222POPS   D2A63186  28.918  11.806   6.599  0.0954  0.1233  0.0941
 5222POPS   C3A63187  29.291  11.961   6.465 -0.2434 -0.1327  0.1754
 5222POPS   C4A63188  29.683  12.108   6.258  0.2202  0.1773  0.1380
 5222POPS   C1B63189  29.185  12.196   6.893 -0.0556  0.1993  0.3035
 5222POPS   C2B63190  29.340  12.413   6.552  0.2286 -0.0128  0.0440
 5222POPS   C3B63191  29.282  12.431   6.031 -0.1395  0.1479  0.0859
 5222POPS   C4B63192  29.659  12.474   5.753  0.2658  0.0460 -0.0361
 5223POPS   CNO63193  25.009  15.545   8.671 -0.0117 -0.2192  0.0603
 5223POPS   PO463194  24.867  15.257   8.496  0.2581 -0.2241 -0.1066
 5223POPS   GL163195  24.737  15.507   8.233 -0.1185  0.0091 -0.0130
 5223POPS   GL263196  24.485  15.397   8.115  0.1023  0.0787 -0.0472
 5223POPS   C1A63197  24.850  15.948   8.073  0.0039  0.4531  0.1142
 5223POPS   D2A63198  24.696  16.382   8.022  0.1801  0.2520  0.0933
 5223POPS   C3A63199  24.958  16.600   7.708 -0.1329 -0.0983  0.1679
 5223POPS   C4A63200  25.333  16.697   7.404  0.0578 -0.0580  0.2566
 5223POPS   C1B63201  24.656  15.368   7.653  0.0180 -0.4546  0.1221
 5223POPS   C2B63202  24.476  15.568   7.280  0.0772 -0.0274  0.0857
 5223POPS   C3B63203  24.661  15.920   7.153 -0.0775 -0.4855 -0.0334
 5223POPS   C4B63204  25.089  15.821   7.190  0.3534 -0.1630  0.2145
 5224POPS   CNO63205  16.280   3.824   7.661 -0.0659 -0.0838 -0.0597
 5224POPS   PO463206  16.608   3.618   7.520  0.0258 -0.0471 -0.2296
 5224POPS   GL163207  16.633   3.706   7.125 -0.0896 -0.0349 -0.1810
 5224POPS   GL263208  16.525   3.934   6.923 -0.1674  0.4109 -0.0159
 5224POPS   C1A63209  16.822   3.459   6.810  0.0565  0.0769  0.0780
 5224POPS   D2A63210  17.081   3.277   6.491 -0.1685  0.2341  0.0474
 5224POPS   C3A63211  16.911   3.426   6.072 -0.0344 -0.0437  0.1093
 5224POPS   C4A63212  16.471   3.354   5.909 -0.2479  0.1854 -0.2227
 5224POPS   C1B63213  16.357   3.978   6.490 -0.2756 -0.1604  0.1082
 5224POPS   C2B63214  16.317   3.963   6.038 -0.0123  0.1993 -0.4329
 5224POPS   C3B63215  16.558   4.054   5.661  0.1432 -0.0326  0.1529
 5224POPS   C4B63216  16.786   4.300   5.391 -0.1094  0.0724 -0.1418
 5225POPS   CNO63217  29.115   6.681   7.658  0.0751 -0.1284 -0.1441
 5225POPS   PO463218  29.148   6.332   7.522  0.1066 -0.0663 -0.1535
 5225POPS   GL163219  29.490   6.498   7.409  0.3350 -0.0451 -0.5114
 5225POPS   GL263220  29.449   6.508   7.106 -0.1863 -0.0611 -0.0523
 5225POPS   C1A63221  29.917   6.464   7.253 -0.0427  0.3265  0.0424
 5225POPS   D2A63222  30.296   6.294   7.376  0.0192 -0.3313 -0.1557
 5225POPS   C3A63223  30.558   6.168   7.002 -0.1449  0.1143 -0.2800
 5225POPS   C4A63224  30.510   5.917   6.627 -0.1982  0.2354  0.1092
 5225POPS   C1B63225  29.255   6.374   6.691  0.2177  0.0515 -0.0151
 5225POPS   C2B63226  29.398   6.554   6.282 -0.2466 -0.4902 -0.3250
 5225POPS   C3B63227  29.690   6.506   5.937  0.4347  0.1827  0.2642
 5225POPS   C4B63228  30.047   6.324   5.695 -0.1003  0.0167 -0.3344
 5226POPS   CNO63229  18.043  16.530   7.804 -0.1709 -0.0818  0.2744
 5226POPS   PO463230  18.367  16.412   7.625 -0.2375  0.1472  0.0664
 5226POPS   GL163231  18.731  16.637   7.449  0.0896 -0.0813 -0.0825
 5226POPS   GL263232  18.901  16.432   7.309 -0.1025 -0.1151 -0.2206
 5226POPS   C1A63233  18.917  16.848   7.044 -0.1210 -0.0852  0.0560
 5226POPS   D2A63234  19.024  17.281   6.798 -0.0407 -0.0517  0.0834
 5226POPS   C3A63235  19.087  17.111   6.407  0.2014  0.0664  0.0736
 5226POPS   C4A63236  18.958  17.211   5.943 -0.1313 -0.0734  0.0488
 5226POPS   C1B63237  18.544  16.490   7.035 -0.1206 -0.2037 -0.2988
 5226POPS   C2B63238  18.297  16.708   6.670 -0.4090  0.4260 -0.2545
 5226POPS   C3B63239  18.128  16.602   6.273 -0.3917  0.0352  0.0622
 5226POPS   C4B63240  17.948  16.560   5.872  0.2590  0.2349  0.3661
 5227POPS   CNO63241  22.361  15.498   7.965 -0.1613 -0.1861 -0.2254
 5227POPS   PO463242  22.703  15.397   7.747  0.1898 -0.2033 -0.1204
 5227POPS   GL163243  22.749  15.667   7.481 -0.0820 -0.1593 -0.0984
 5227POPS   GL263244  22.691  15.523   7.188  0.0849 -0.2408 -0.0009
 5227POPS   C1A63245  23.120  15.798   7.267 -0.3067  0.0263 -0.0728
 5227POPS   D2A63246  23.563  15.842   7.140  0.0006 -0.1114 -0.2506
 5227POPS   C3A63247  23.905  15.864   6.809 -0.0656 -0.0281  0.0729
 5227POPS   C4A63248  24.164  15.869   6.455  0.1474  0.0141 -0.0094
 5227POPS   C1B63249  22.932  15.261   6.893  0.3929 -0.0124  0.1447
 5227POPS   C2B63250  23.234  15.047   6.638  0.0060  0.0674  0.2034
 5227POPS   C3B63251  23.151  14.766   6.272  0.0963 -0.0546 -0.1322
 5227POPS   C4B63252  23.239  14.640   5.867 -0.0208 -0.0555 -0.1500
 5228POPS   CNO63253  17.888  26.916   7.837  0.3791 -0.1481 -0.0758
 5228POPS   PO463254  17.700  27.239   7.716  0.1045 -0.1757 -0.4485
 5228POPS   GL163255  17.755  27.071   7.320 -0.3045 -0.1075  0.0429
 5228POPS   GL263256  17.893  26.836   7.372 -0.0248  0.0531  0.1054
 5228POPS   C1A63257  17.667  26.872   6.903  0.1598  0.2915  0.1823
 5228POPS   D2A63258  17.471  26.486   6.662  0.1542  0.1326  0.2233
 5228POPS   C3A63259  17.403  26.492   6.200 -0.0706 -0.0207  0.2076
 5228POPS   C4A63260  17.403  26.497   5.704 -0.1781  0.1382 -0.0833
 5228POPS   C1B63261  18.184  27.024   7.075  0.0608 -0.1600 -0.3019
 5228POPS   C2B63262  18.516  27.064   6.788  0.3353 -0.0876  0.1562
 5228POPS   C3B63263  18.906  27.087   6.532 -0.1781  0.0195  0.3020
 5228POPS   C4B63264  19.209  27.436   6.551  0.1061  0.2882 -0.4538
 5229POPS   CNO63265  20.092  30.938   7.789  0.0060  0.3747  0.0116
 5229POPS   PO463266  20.050  30.595   7.627  0.0899  0.0594 -0.0737
 5229POPS   GL163267  20.083  30.348   7.415  0.1790  0.2153  0.1024
 5229POPS   GL263268  20.301  30.195   7.439 -0.1608 -0.0188  0.2816
 5229POPS   C1A63269  20.181  30.286   6.980 -0.0030  0.1513  0.0407
 5229POPS   D2A63270  20.124  30.310   6.489  0.1719  0.1198  0.0162
 5229POPS   C3A63271  20.005  29.937   6.239 -0.0611  0.0780  0.2382
 5229POPS   C4A63272  20.187  29.865   5.849  0.0795  0.1128  0.0140
 5229POPS   C1B63273  20.639  30.298   7.131  0.1477  0.1192  0.0613
 5229POPS   C2B63274  20.620  30.129   6.728 -0.1421  0.1629 -0.1188
 5229POPS   C3B63275  20.645  30.019   6.249  0.0129  0.1672  0.0336
 5229POPS   C4B63276  20.751  29.801   5.845  0.4013  0.1248  0.2181
 5230POPS   CNO63277   7.998  14.367   8.210  0.2747  0.3698 -0.1778
 5230POPS   PO463278   8.179  14.476   7.922 -0.1336  0.1743  0.2913
 5230POPS   GL163279   8.083  14.170   7.569 -0.1643 -0.2570  0.0118
 5230POPS   GL263280   7.832  14.116   7.490 -0.0844  0.0212 -0.1064
 5230POPS   C1A63281   8.101  14.042   7.082  0.2967 -0.1155 -0.1283
 5230POPS   D2A63282   8.013  13.836   6.691 -0.0360  0.1212  0.4327
 5230POPS   C3A63283   7.955  13.955   6.265 -0.1247  0.0337 -0.0150
 5230POPS   C4A63284   7.622  14.075   5.940  0.0763  0.1388  0.3162
 5230POPS   C1B63285   7.422  14.396   7.442 -0.1177  0.0873  0.0080
 5230POPS   C2B63286   7.006  14.407   7.295 -0.0713 -0.0738  0.0407
 5230POPS   C3B63287   6.830  14.571   6.885  0.1210 -0.3244  0.1060
 5230POPS   C4B63288   6.789  14.537   6.466 -0.0741 -0.0686  0.2385
 5231POPS   CNO63289   7.934  24.594   7.709  0.1768  0.0492  0.0484
 5231POPS   PO463290   7.930  24.420   7.359  0.2128  0.1464 -0.3340
 5231POPS   GL163291   7.883  24.531   6.973 -0.2211  0.0905 -0.1866
 5231POPS   GL263292   8.101  24.784   6.864  0.3174  0.4004 -0.0787
 5231POPS   C1A63293   7.646  24.624   6.575  0.1393  0.1151  0.1274
 5231POPS   D2A63294   7.277  24.633   6.362 -0.0665 -0.1046 -0.1514
 5231POPS   C3A63295   6.907  24.861   6.337 -0.0588 -0.3084  0.0157
 5231POPS   C4A63296   6.722  24.754   5.996  0.0059  0.2145 -0.1919
 5231POPS   C1B63297   8.247  25.033   6.451 -0.0987 -0.1116 -0.0662
 5231POPS   C2B63298   8.303  25.156   5.985  0.1213  0.1080 -0.0419
 5231POPS   C3B63299   8.172  25.471   5.621  0.0800 -0.0005 -0.1510
 5231POPS   C4B63300   7.837  25.684   5.364 -0.1021 -0.0214 -0.0572
 5232POPS   CNO63301  30.960   7.572   8.185  0.0353 -0.1067  0.1740
 5232POPS   PO463302  30.777   7.718   7.853  0.0342 -0.0829 -0.0530
 5232POPS   GL163303  30.822   7.586   7.452 -0.1924  0.2903 -0.2084
 5232POPS   GL263304  30.684   7.311   7.419 -0.0170 -0.2323 -0.1933
 5232POPS   C1A63305  30.954   7.716   7.059  0.3364 -0.0364 -0.4755
 5232POPS   D2A63306  31.038   7.784   6.611  0.2084 -0.0123  0.0398
 5232POPS   C3A63307  31.048   7.547   6.222 -0.4504  0.0457 -0.1559
 5232POPS   C4A63308  31.267   7.509   5.822 -0.2525 -0.1091  0.1357
 5232POPS   C1B63309  30.632   7.276   7.035 -0.0160 -0.0171 -0.1789
 5232POPS   C2B63310  30.641   7.485   6.617 -0.1947  0.0496 -0.2758
 5232POPS   C3B63311  30.511   7.430   6.189  0.1173  0.0704  0.0518
 5232POPS   C4B63312  30.348   7.262   5.777  0.0048  0.2473 -0.2492
 5233POPS   CNO63313   3.099   3.912   8.257 -0.2689  0.0168  0.1462
 5233POPS   PO463314   2.949   4.236   8.056  0.1502 -0.0082  0.1890
 5233POPS   GL163315   2.864   4.203   7.688  0.2171  0.2719 -0.2429
 5233POPS   GL263316   2.875   3.919   7.571  0.0126  0.0279 -0.1233
 5233POPS   C1A63317   2.448   4.219   7.499  0.0234 -0.3587  0.0643
 5233POPS   D2A63318   2.045   4.273   7.290 -0.0888 -0.0950  0.2004
 5233POPS   C3A63319   1.951   4.325   6.857 -0.0423  0.1475  0.0562
 5233POPS   C4A63320   1.797   4.430   6.403  0.0954 -0.0601  0.0947
 5233POPS   C1B63321   2.710   3.953   7.146  0.0404 -0.2114 -0.1914
 5233POPS   C2B63322   2.834   4.192   6.755  0.2188 -0.0500 -0.3720
 5233POPS   C3B63323   2.623   4.492   6.457  0.4186  0.2479  0.1148
 5233POPS   C4B63324   2.367   4.818   6.306  0.0288  0.0152 -0.2007
 5234POPS   CNO63325   1.763  26.779   8.186  0.3021 -0.0432  0.1130
 5234POPS   PO463326   1.675  26.651   7.856  0.2540 -0.0087 -0.0197
 5234POPS   GL163327   1.579  26.608   7.486  0.0703 -0.2506  0.3209
 5234POPS   GL263328   1.558  26.881   7.380  0.3381  0.2088 -0.0320
 5234POPS   C1A63329   1.405  26.410   7.148  0.2952  0.4230  0.0811
 5234POPS   D2A63330   1.504  26.068   6.834  0.1801 -0.1693 -0.4288
 5234POPS   C3A63331   1.738  26.098   6.497  0.2348 -0.0663 -0.0197
 5234POPS   C4A63332   2.240  26.093   6.585  0.2455 -0.0335  0.1050
 5234POPS   C1B63333   1.604  26.819   6.914 -0.2821  0.1654  0.1084
 5234POPS   C2B63334   1.521  26.720   6.484 -0.2581 -0.1138  0.0789
 5234POPS   C3B63335   1.502  26.407   6.140 -0.0087 -0.0732 -0.1156
 5234POPS   C4B63336   1.425  26.399   5.682  0.0550  0.1108 -0.0552
 5235POPS   CNO63337  17.728  16.586   8.257  0.1702  0.0417 -0.0223
 5235POPS   PO463338  17.824  16.245   8.149 -0.1631 -0.0227 -0.3685
 5235POPS   GL163339  17.597  16.368   7.877 -0.2122  0.0671  0.1264
 5235POPS   GL263340  17.522  16.156   7.725  0.2916 -0.2629 -0.0979
 5235POPS   C1A63341  17.568  16.527   7.427  0.1250  0.1222  0.0616
 5235POPS   D2A63342  17.342  16.417   6.984 -0.1961  0.0306  0.0770
 5235POPS   C3A63343  16.914  16.338   6.908 -0.0336 -0.0073 -0.2678
 5235POPS   C4A63344  16.443  16.345   6.888  0.3648  0.2115 -0.0809
 5235POPS   C1B63345  17.479  16.061   7.300 -0.3592 -0.0595 -0.1739
 5235POPS   C2B63346  17.542  16.011   6.859  0.1593  0.3351  0.5837
 5235POPS   C3B63347  17.590  15.985   6.408  0.0831  0.0483  0.3126
 5235POPS   C4B63348  17.918  16.079   6.060 -0.1530 -0.2716  0.1292
 5236POPS   CNO63349  22.373  19.386   7.513 -0.2716  0.1076  0.0135
 5236POPS   PO463350  22.198  19.111   7.364  0.1412  0.1395  0.0494
 5236POPS   GL163351  22.257  19.307   6.968  0.0225  0.1948 -0.2984
 5236POPS   GL263352  22.553  19.312   6.909 -0.0806  0.1704 -0.1307
 5236POPS   C1A63353  22.264  18.956   6.615  0.1683 -0.0115 -0.2616
 5236POPS   D2A63354  22.325  18.785   6.207 -0.1990 -0.2808  0.0435
 5236POPS   C3A63355  22.397  18.361   6.111  0.0347  0.0460  0.2029
 5236POPS   C4A63356  22.686  18.152   5.822  0.0723  0.2427 -0.1663
 5236POPS   C1B63357  22.688  19.187   6.455 -0.0903  0.2599  0.0524
 5236POPS   C2B63358  22.673  19.091   5.968  0.0895  0.0019 -0.1796
 5236POPS   C3B63359  22.424  19.090   5.592 -0.1033 -0.0115  0.1055
 5236POPS   C4B63360  22.317  18.966   5.142  0.0044 -0.1623  0.0505
 5237POPS   CNO63361  30.509  30.369   8.323  0.1949  0.3192  0.2781
 5237POPS   PO463362  30.661  30.197   7.982  0.1542  0.1913  0.0408
 5237POPS   GL163363  30.818  30.053   7.645 -0.1564 -0.1925 -0.2612
 5237POPS   GL263364  31.043  30.199   7.584 -0.0924 -0.0263  0.1339
 5237POPS   C1A63365  31.030  29.627   7.491 -0.1499  0.0067 -0.5140
 5237POPS   D2A63366  30.979  29.224   7.342 -0.0423 -0.0299 -0.1157
 5237POPS   C3A63367  30.828  29.075   6.898 -0.1525  0.2435  0.0080
 5237POPS   C4A63368  30.730  28.994   6.444 -0.1434  0.0595  0.0244
 5237POPS   C1B63369  31.021  30.023   7.214  0.1714  0.4703  0.1316
 5237POPS   C2B63370  31.005  29.991   6.761 -0.1249  0.0838 -0.1512
 5237POPS   C3B63371  30.678  29.853   6.398 -0.1269  0.0911 -0.0546
 5237POPS   C4B63372  30.453  29.836   6.022  0.0798  0.1694 -0.1783
 5238POPS   CNO63373   2.525  17.248   8.020  0.3760  0.0728 -0.1753
 5238POPS   PO463374   2.298  17.277   7.721  0.2048  0.1554 -0.3434
 5238POPS   GL163375   2.282  17.260   7.263  0.0279  0.0413 -0.1596
 5238POPS   GL263376   2.453  17.346   7.043  0.1350  0.1557  0.0543
 5238POPS   C1A63377   2.034  17.251   6.820  0.0599 -0.0932  0.0658
 5238POPS   D2A63378   1.787  17.016   6.508 -0.2367  0.0622  0.0484
 5238POPS   C3A63379   1.860  16.752   6.150  0.5432  0.1428  0.1024
 5238POPS   C4A63380   2.303  16.843   5.942  0.1851 -0.1546  0.2367
 5238POPS   C1B63381   2.519  17.617   6.721 -0.0223 -0.0725 -0.0482
 5238POPS   C2B63382   2.730  17.746   6.306 -0.3996  0.0213  0.2404
 5238POPS   C3B63383   3.065  17.772   6.002 -0.0476 -0.2956  0.1427
 5238POPS   C4B63384   3.305  17.657   5.659 -0.1067  0.0032 -0.0186
 5239POPS   CNO63385   9.986   3.239   8.135  0.1030 -0.0966  0.0345
 5239POPS   PO463386   9.852   3.545   7.899 -0.0787 -0.0808 -0.3038
 5239POPS   GL163387   9.980   3.371   7.522 -0.0172  0.1767  0.2321
 5239POPS   GL263388  10.081   3.620   7.348 -0.3826 -0.0245  0.0976
 5239POPS   C1A63389   9.879   3.156   7.109  0.1314 -0.2021  0.1342
 5239POPS   D2A63390   9.774   3.170   6.680 -0.0453 -0.0769 -0.0739
 5239POPS   C3A63391   9.803   3.106   6.188  0.3786  0.2239 -0.1344
 5239POPS   C4A63392  10.090   3.276   5.816  0.1774 -0.1686 -0.2294
 5239POPS   C1B63393   9.760   3.603   7.081 -0.1433 -0.1032  0.1103
 5239POPS   C2B63394   9.763   3.622   6.656 -0.1452 -0.1806  0.2985
 5239POPS   C3B63395   9.778   3.718   6.216  0.1864  0.0811  0.0097
 5239POPS   C4B63396   9.745   3.716   5.748  0.0124  0.0373 -0.0443
 5240POPS   CNO63397   5.042   9.702   8.087 -0.1184  0.0834 -0.1723
 5240POPS   PO463398   5.004   9.353   7.905  0.2067 -0.2724  0.2262
 5240POPS   GL163399   5.212   9.189   7.752  0.3223 -0.1662 -0.1541
 5240POPS   GL263400   5.502   9.345   7.723 -0.0808  0.0979 -0.0726
 5240POPS   C1A63401   5.107   9.160   7.324 -0.2093  0.0574  0.3151
 5240POPS   D2A63402   4.951   9.151   6.915 -0.3066 -0.2915  0.1817
 5240POPS   C3A63403   4.859   8.795   6.673  0.1045 -0.0421 -0.2788
 5240POPS   C4A63404   4.690   8.623   6.271  0.0374  0.0031 -0.0636
 5240POPS   C1B63405   5.622   9.255   7.279 -0.2512  0.3068 -0.1691
 5240POPS   C2B63406   5.603   8.928   6.954 -0.0433  0.2383 -0.0200
 5240POPS   C3B63407   5.429   8.524   6.715 -0.0228 -0.0793 -0.0679
 5240POPS   C4B63408   5.242   8.150   6.478  0.2633  0.0745  0.1201
 5241POPS   CNO63409  29.814  29.395   8.123 -0.0718  0.1772 -0.0005
 5241POPS   PO463410  29.709  29.082   7.972 -0.2070  0.0025 -0.0453
 5241POPS   GL163411  29.727  29.082   7.592  0.0254  0.4956 -0.1013
 5241POPS   GL263412  29.448  28.934   7.425 -0.2114  0.3323  0.0849
 5241POPS   C1A63413  29.987  29.015   7.227 -0.0597  0.2307  0.0150
 5241POPS   D2A63414  30.190  29.089   6.828  0.0473  0.1541 -0.0430
 5241POPS   C3A63415  30.478  29.425   6.707 -0.1049  0.0355 -0.0901
 5241POPS   C4A63416  30.771  29.596   7.031  0.0833 -0.1956 -0.1089
 5241POPS   C1B63417  29.592  28.802   6.990  0.0246 -0.2137 -0.0436
 5241POPS   C2B63418  29.819  28.825   6.641  0.0500 -0.1599  0.1620
 5241POPS   C3B63419  30.008  28.839   6.260 -0.3337 -0.0533 -0.1005
 5241POPS   C4B63420  29.900  29.173   5.916  0.0794  0.2084 -0.1543
 5242POPS   CNO63421  19.522  29.114   8.345  0.2547  0.1400  0.2162
 5242POPS   PO463422  19.399  29.247   8.015  0.1365 -0.0538  0.0851
 5242POPS   GL163423  19.558  29.080   7.693  0.0296  0.0556  0.1502
 5242POPS   GL263424  19.699  29.297   7.566 -0.1042 -0.2264 -0.0796
 5242POPS   C1A63425  19.422  29.073   7.235  0.0651  0.0358 -0.0027
 5242POPS   D2A63426  19.185  28.969   6.884  0.0326  0.1737  0.0973
 5242POPS   C3A63427  19.229  28.899   6.394 -0.0223  0.3256  0.2915
 5242POPS   C4A63428  19.158  28.628   6.005 -0.0383 -0.1972  0.3311
 5242POPS   C1B63429  19.503  29.625   7.328  0.0856  0.0174 -0.1431
 5242POPS   C2B63430  19.372  29.478   6.940  0.2503  0.2898  0.4457
 5242POPS   C3B63431  19.230  29.389   6.507 -0.1075  0.1065 -0.0607
 5242POPS   C4B63432  19.158  29.560   6.107 -0.1672 -0.4350 -0.1052
 5243POPS   CNO63433   0.064   6.678   7.984 -0.0308  0.2422 -0.0539
 5243POPS   PO463434   0.033   6.365   7.768  0.1442 -0.1304  0.0119
 5243POPS   GL163435   0.173   6.476   7.373  0.0738  0.2987 -0.1964
 5243POPS   GL263436   0.017   6.737   7.433 -0.1217  0.1665  0.1345
 5243POPS   C1A63437  -0.123   6.185   7.124 -0.0270  0.3408 -0.0191
 5243POPS   D2A63438  -0.213   5.931   6.799 -0.2055  0.0278 -0.1718
 5243POPS   C3A63439  -0.323   5.556   6.623  0.0469  0.0019  0.1843
 5243POPS   C4A63440  -0.577   5.561   6.231  0.0218  0.2621  0.0550
 5243POPS   C1B63441  -0.247   6.702   7.036  0.0249 -0.3013  0.1369
 5243POPS   C2B63442  -0.388   6.699   6.590 -0.4045 -0.2356 -0.4251
 5243POPS   C3B63443  -0.708   6.671   6.257  0.1718 -0.0534 -0.2293
 5243POPS   C4B63444  -0.733   6.676   5.779  0.1288  0.0258 -0.0179
 5244POPS   CNO63445   9.229   9.664   8.049  0.1707  0.0663  0.0248
 5244POPS   PO463446   9.454   9.915   7.895  0.1182 -0.2120  0.0291
 5244POPS   GL163447   9.508  10.021   7.470 -0.0699 -0.0369  0.3040
 5244POPS   GL263448   9.576   9.744   7.446  0.3558  0.0807 -0.2349
 5244POPS   C1A63449   9.608  10.080   7.027 -0.0568 -0.0291  0.2609
 5244POPS   D2A63450   9.940  10.290   6.825 -0.3444  0.1695  0.2235
 5244POPS   C3A63451   9.763  10.674   6.563 -0.1073 -0.0750  0.2609
 5244POPS   C4A63452   9.731  10.915   6.097  0.1511 -0.2493 -0.1124
 5244POPS   C1B63453   9.457   9.531   7.014 -0.1702  0.0176  0.2798
 5244POPS   C2B63454   9.482   9.254   6.580  0.2416 -0.2089  0.1577
 5244POPS   C3B63455   9.340   8.953   6.236  0.1378 -0.1403 -0.3934
 5244POPS   C4B63456   9.362   8.652   5.911 -0.0619 -0.1051  0.0345
 5245POPS   CNO63457  19.210   5.179   7.848 -0.1111 -0.1039 -0.0268
 5245POPS   PO463458  19.002   5.164   7.558 -0.0737  0.1932  0.3486
 5245POPS   GL163459  18.965   5.320   7.214 -0.0899 -0.3368 -0.0713
 5245POPS   GL263460  19.061   5.021   7.073  0.3218  0.0169 -0.1675
 5245POPS   C1A63461  18.648   5.343   6.874  0.0636 -0.0492 -0.3988
 5245POPS   D2A63462  18.754   5.492   6.440 -0.2361  0.2715 -0.1747
 5245POPS   C3A63463  18.939   5.204   6.134  0.0803 -0.1706 -0.1764
 5245POPS   C4A63464  19.376   5.213   6.162  0.1569  0.1152 -0.0319
 5245POPS   C1B63465  19.143   4.819   6.687 -0.0963  0.0494 -0.2431
 5245POPS   C2B63466  19.189   4.704   6.272 -0.3238 -0.0203  0.1471
 5245POPS   C3B63467  19.296   4.717   5.817  0.1297 -0.0215 -0.0869
 5245POPS   C4B63468  19.356   4.528   5.438  0.1676 -0.2259  0.1457
 5246SAP2    C163469  23.726  13.349   8.376  0.2259  0.0189  0.1168
 5246SAP2    C263470  23.953  13.382   8.531  0.3602 -0.1598 -0.0378
 5246SAP2    C363471  23.784  13.095   8.494  0.2185 -0.0724 -0.0739
 5246SAP2    C463472  23.821  13.275   8.467 -0.0007 -0.0007  0.6972
 5246SAP2   PO463473  23.758  13.520   8.095 -0.0109  0.2593 -0.2244
 5246SAP2    P463474  23.968  12.986   8.679 -0.2732 -0.1748  0.2310
 5246SAP2    P563475  23.899  13.556   8.790  0.1208  0.0050 -0.1756
 5246SAP2   GL163476  23.854  13.292   7.883 -0.6332 -0.0018  0.2585
 5246SAP2   GL263477  24.024  13.179   7.718 -0.4046 -0.0919  0.3556
 5246SAP2   D1A63478  24.219  13.605   7.946  0.0557  0.0178 -0.2054
 5246SAP2   D2A63479  24.656  13.554   7.725 -0.0684 -0.3047 -0.0271
 5246SAP2   D3A63480  24.268  13.509   7.436 -0.0398 -0.2046 -0.0654
 5246SAP2   D4A63481  24.043  13.683   7.100  0.2259 -0.1908  0.2432
 5246SAP2   C5A63482  24.499  13.531   6.963  0.1827 -0.0673  0.0791
 5246SAP2   C1B63483  24.458  13.023   7.542 -0.1385 -0.0348  0.1427
 5246SAP2   C2B63484  24.644  12.784   7.167 -0.0634  0.2994  0.1518
 5246SAP2   C3B63485  24.671  12.729   6.727  0.2564 -0.0670 -0.1240
 5246SAP2   C4B63486  24.714  12.781   6.299  0.0399 -0.0862  0.1363
 5247SAP2    C163487   8.683  20.065   8.006 -0.0012 -0.0860  0.0265
 5247SAP2    C263488   8.534  20.171   8.214 -0.2808 -0.0582 -0.1829
 5247SAP2    C363489   8.647  19.855   8.198 -0.3308 -0.0846 -0.0286
 5247SAP2    C463490   8.621  20.031   8.139 -0.0007 -0.0007  0.6972
 5247SAP2   PO463491   8.846  20.347   8.005 -0.0417  0.2257  0.2010
 5247SAP2    P463492   8.626  19.741   8.508 -0.1203  0.0143 -0.3262
 5247SAP2    P563493   8.252  19.987   8.345  0.1302  0.1008  0.1392
 5247SAP2   GL163494   9.026  20.284   7.679  0.1328 -0.1196  0.0280
 5247SAP2   GL263495   8.814  20.397   7.558  0.1993 -0.4388 -0.0819
 5247SAP2   D1A63496   8.997  20.077   7.228  0.2833 -0.1151 -0.1530
 5247SAP2   D2A63497   9.330  20.186   6.913 -0.0344 -0.0602 -0.3351
 5247SAP2   D3A63498   9.192  20.472   6.541  0.0756 -0.2260 -0.1213
 5247SAP2   D4A63499   9.579  20.414   6.254 -0.1942 -0.0320 -0.1432
 5247SAP2   C5A63500   9.172  20.627   6.085 -0.0988  0.0226  0.0496
 5247SAP2   C1B63501   9.080  20.529   7.259  0.2169 -0.0668 -0.0122
 5247SAP2   C2B63502   9.253  20.804   6.923 -0.0467  0.2241 -0.1251
 5247SAP2   C3B63503   9.313  21.025   6.587 -0.0012  0.0660 -0.0964
 5247SAP2   C4B63504   9.370  21.184   6.161 -0.0062  0.1587 -0.4050
 5248SAP2    C163505   8.818  20.732   8.220  0.3098  0.1338  0.0615
 5248SAP2    C263506   8.921  20.851   8.449  0.0120  0.0451  0.2483
 5248SAP2    C363507   8.777  20.548   8.436  0.4059 -0.1381 -0.1470
 5248SAP2    C463508   8.839  20.711   8.368 -0.0007 -0.0007  0.6972
 5248SAP2   PO463509   9.086  20.798   8.022 -0.1858  0.1994  0.1496
 5248SAP2    P463510   8.814  20.529   8.732  0.0367  0.1770  0.0634
 5248SAP2    P563511   8.851  21.017   8.636  0.0455  0.2289 -0.0265
 5248SAP2   GL163512   9.058  20.981   7.778  0.3909 -0.1361  0.0041
 5248SAP2   GL263513   8.866  21.106   7.633 -0.2422  0.0712 -0.2140
 5248SAP2   D1A63514   9.350  21.188   7.459 -0.0670 -0.0075 -0.4359
 5248SAP2   D2A63515   9.752  21.184   7.700  0.0253 -0.0240 -0.3373
 5248SAP2   D3A63516   9.978  21.377   7.329 -0.0260 -0.3119 -0.1482
 5248SAP2   D4A63517  10.166  20.999   7.347 -0.4080 -0.0997  0.0620
 5248SAP2   C5A63518   9.719  20.858   7.338  0.1279  0.2465 -0.4934
 5248SAP2   C1B63519   8.935  21.331   7.241  0.1022 -0.1335 -0.0227
 5248SAP2   C2B63520   8.914  21.287   6.793 -0.1322  0.1909 -0.0955
 5248SAP2   C3B63521   8.808  21.128   6.359  0.2362 -0.0643  0.2920
 5248SAP2   C4B63522   8.838  21.259   5.944 -0.1507 -0.0187 -0.1650
 5249SAP2    C163523  29.614  28.408   8.460 -0.1049  0.2191  0.2670
 5249SAP2    C263524  29.596  28.160   8.582  0.2429  0.0960  0.0811
 5249SAP2    C363525  29.338  28.331   8.452 -0.0358 -0.0598  0.4118
 5249SAP2    C463526  29.516  28.300   8.498 -0.0007 -0.0007  0.6972
 5249SAP2   PO463527  29.890  28.440   8.300 -0.2063 -0.1750  0.2696
 5249SAP2    P463528  29.131  28.217   8.526  0.0677  0.0556  0.0185
 5249SAP2    P563529  29.432  28.170   8.919 -0.0032  0.4186  0.0490
 5249SAP2   GL163530  30.049  28.202   8.100  0.3728  0.0530  0.1712
 5249SAP2   GL263531  29.994  27.919   8.313  0.3041 -0.1663  0.0075
 5249SAP2   D1A63532  29.840  28.121   7.675 -0.0804  0.0937 -0.1707
 5249SAP2   D2A63533  30.238  28.155   7.508  0.0347  0.3140 -0.0362
 5249SAP2   D3A63534  30.644  28.310   7.596  0.0738 -0.0023 -0.0356
 5249SAP2   D4A63535  30.360  28.477   7.957 -0.0364 -0.2920  0.3333
 5249SAP2   C5A63536  30.238  28.614   7.511 -0.0137  0.1403  0.0930
 5249SAP2   C1B63537  30.015  27.719   7.840  0.1031 -0.2905  0.0623
 5249SAP2   C2B63538  30.157  27.377   7.497  0.0097  0.3293 -0.3188
 5249SAP2   C3B63539  30.215  27.165   7.104  0.4622 -0.2872  0.3931
 5249SAP2   C4B63540  30.559  27.184   6.870  0.2964  0.4392 -0.2265
 5250SAP2    C163541   4.357  12.885   8.501  0.2520 -0.3358  0.0718
 5250SAP2    C263542   4.604  12.778   8.564  0.0651 -0.6473  0.3093
 5250SAP2    C363543   4.385  12.903   8.785  0.1611 -0.0042  0.0639
 5250SAP2    C463544   4.448  12.856   8.617 -0.0007 -0.0007  0.6972
 5250SAP2   PO463545   4.274  12.766   8.253  0.1327 -0.2922  0.1687
 5250SAP2    P463546   4.480  12.881   9.058  0.1893 -0.3260 -0.0131
 5250SAP2    P563547   4.856  12.854   8.659  0.0297 -0.0727  0.0585
 5250SAP2   GL163548   4.271  12.974   8.003  0.0745 -0.2540 -0.0815
 5250SAP2   GL263549   4.019  13.137   7.971 -0.1984 -0.0849  0.2110
 5250SAP2   D1A63550   3.947  12.712   7.788  0.2681  0.0245  0.3114
 5250SAP2   D2A63551   3.528  12.775   7.698  0.2717 -0.0293  0.1937
 5250SAP2   D3A63552   3.500  12.967   7.996 -0.2400 -0.0425 -0.0465
 5250SAP2   D4A63553   3.549  13.523   7.876 -0.1586 -0.1467 -0.0198
 5250SAP2   C5A63554   3.277  13.731   8.154  0.2509 -0.2739  0.0692
 5250SAP2   C1B63555   3.991  13.539   7.727  0.0420 -0.2256 -0.2410
 5250SAP2   C2B63556   3.758  13.646   7.413  0.0663 -0.2428 -0.1210
 5250SAP2   C3B63557   3.590  13.481   7.051 -0.2838  0.4540 -0.2147
 5250SAP2   C4B63558   3.534  13.019   6.982 -0.0076 -0.1056  0.0398
 5251SAP2    C163559   4.527   8.512   8.612  0.0918 -0.0639 -0.0211
 5251SAP2    C263560   4.337   8.654   8.756  0.2039  0.2827 -0.2030
 5251SAP2    C363561   4.508   8.387   8.869 -0.2063  0.1179  0.0503
 5251SAP2    C463562   4.457   8.518   8.746 -0.0007 -0.0007  0.6972
 5251SAP2   PO463563   4.686   8.724   8.438  0.1285 -0.3254 -0.1859
 5251SAP2    P463564   4.390   8.373   9.150 -0.4034 -0.0900 -0.0953
 5251SAP2    P563565   4.052   8.469   8.826  0.0459  0.0811  0.0510
 5251SAP2   GL163566   4.935   8.626   8.165  0.1480 -0.1921 -0.0080
 5251SAP2   GL263567   5.137   8.766   8.198  0.0213  0.1773  0.1846
 5251SAP2   D1A63568   4.973   8.169   8.144  0.2410 -0.1622  0.1689
 5251SAP2   D2A63569   5.349   7.869   8.185 -0.0813 -0.2593  0.0491
 5251SAP2   D3A63570   5.589   7.822   7.748  0.0287 -0.0058 -0.0846
 5251SAP2   D4A63571   6.034   7.791   7.595 -0.4995  0.2338 -0.1736
 5251SAP2   C5A63572   6.305   7.531   7.301  0.0022 -0.1646 -0.1540
 5251SAP2   C1B63573   5.319   8.407   7.949  0.1008 -0.4197 -0.2204
 5251SAP2   C2B63574   5.300   8.246   7.520  0.2662  0.0505 -0.0099
 5251SAP2   C3B63575   5.353   8.216   7.072  0.2640  0.0716  0.4232
 5251SAP2   C4B63576   5.647   8.009   6.734  0.1662  0.1853  0.1106
 5252SAP2    C163577  30.613  20.470   8.608  0.2401  0.0433  0.2731
 5252SAP2    C263578  30.604  20.640   8.827 -0.2140  0.4742 -0.0593
 5252SAP2    C363579  30.336  20.526   8.658  0.1010 -0.2646 -0.0993
 5252SAP2    C463580  30.518  20.545   8.698 -0.0007 -0.0007  0.6972
 5252SAP2   PO463581  30.898  20.319   8.692  0.1225  0.0999 -0.0354
 5252SAP2    P463582  30.143  20.635   8.855  0.0002  0.0042  0.2336
 5252SAP2    P563583  30.489  20.795   9.032 -0.0621 -0.0870 -0.2081
 5252SAP2   GL163584  31.194  20.277   8.420  0.0770 -0.1934  0.1916
 5252SAP2   GL263585  31.049  20.506   8.261  0.1305  0.2035  0.2166
 5252SAP2   D1A63586  31.515  20.064   8.156 -0.0987  0.1352 -0.0454
 5252SAP2   D2A63587  31.246  20.166   7.821  0.2011  0.0870 -0.0294
 5252SAP2   D3A63588  31.547  20.094   7.483  0.0715  0.0658  0.0173
 5252SAP2   D4A63589  31.754  20.180   7.068 -0.0411 -0.0714  0.1062
 5252SAP2   C5A63590  32.065  20.488   6.901 -0.0017  0.0077  0.1698
 5252SAP2   C1B63591  30.869  20.447   7.807  0.0491  0.1409  0.0752
 5252SAP2   C2B63592  31.009  20.366   7.392 -0.4531  0.2546 -0.0321
 5252SAP2   C3B63593  31.221  20.185   7.012 -0.0813  0.2321  0.0441
 5252SAP2   C4B63594  31.485  19.986   6.680 -0.0156 -0.0775 -0.1390
 5253SAP2    C163595  23.758  15.552   9.681 -0.2983 -0.0009 -0.1405
 5253SAP2    C263596  23.927  15.360   9.787 -0.0174  0.1475 -0.3068
 5253SAP2    C363597  23.593  15.336   9.768 -0.0553 -0.0097  0.3318
 5253SAP2    C463598  23.759  15.416   9.746 -0.0007 -0.0007  0.6972
 5253SAP2   PO463599  23.896  15.688   9.392 -0.0645 -0.7027  0.0463
 5253SAP2    P463600  23.547  15.026   9.769  0.1870  0.0881 -0.1101
 5253SAP2    P563601  23.853  15.272  10.094  0.0647  0.0551 -0.0946
 5253SAP2   GL163602  24.069  15.872   9.398 -0.2038 -0.2339 -0.1107
 5253SAP2   GL263603  23.957  16.102   9.208  0.2550 -0.2002 -0.0275
 5253SAP2   D1A63604  24.444  15.994   9.109  0.0800 -0.3333  0.2089
 5253SAP2   D2A63605  24.660  16.392   9.249  0.2383  0.0083 -0.0098
 5253SAP2   D3A63606  24.169  16.533   9.298 -0.1887 -0.4544 -0.3612
 5253SAP2   D4A63607  24.407  16.962   9.352 -0.0130  0.0944 -0.0827
 5253SAP2   C5A63608  24.109  17.355   9.332 -0.0163  0.0251  0.1374
 5253SAP2   C1B63609  24.125  16.284   8.794 -0.0807 -0.2664 -0.0869
 5253SAP2   C2B63610  24.577  16.328   8.740 -0.3089  0.1495 -0.0555
 5253SAP2   C3B63611  24.871  16.241   8.459  0.0275 -0.1030  0.1242
 5253SAP2   C4B63612  25.171  16.464   8.117 -0.0493  0.1822  0.0911
 5254SAP2    C163613  24.522  27.749   8.159  0.0161 -0.1520 -0.0210
 5254SAP2    C263614  24.508  27.586   8.382 -0.0455 -0.3315 -0.1542
 5254SAP2    C363615  24.255  27.769   8.259  0.0875  0.0579  0.1342
 5254SAP2    C463616  24.428  27.701   8.267 -0.0007 -0.0007  0.6972
 5254SAP2   PO463617  24.766  27.594   7.971 -0.0651  0.0620  0.0615
 5254SAP2    P463618  24.045  27.765   8.463  0.4346 -0.2314 -0.2097
 5254SAP2    P563619  24.324  27.664   8.683 -0.1248  0.0616  0.2263
 5254SAP2   GL163620  24.526  27.615   7.749 -0.1390 -0.0036 -0.1376
 5254SAP2   GL263621  24.394  27.905   7.723 -0.0907 -0.3465 -0.0038
 5254SAP2   D1A63622  24.877  27.934   7.581  0.0373 -0.0846  0.1618
 5254SAP2   D2A63623  24.760  27.542   7.366  0.2320  0.3448 -0.0270
 5254SAP2   D3A63624  25.219  27.545   7.463 -0.2865  0.0012 -0.0297
 5254SAP2   D4A63625  25.263  27.925   7.278  0.0351  0.2725  0.1464
 5254SAP2   C5A63626  24.890  27.847   6.968 -0.0855  0.0454 -0.4044
 5254SAP2   C1B63627  24.416  27.968   7.216 -0.0157  0.0060  0.1378
 5254SAP2   C2B63628  24.395  27.910   6.749  0.3057 -0.0905 -0.0394
 5254SAP2   C3B63629  24.598  27.977   6.349  0.0198 -0.1250 -0.0849
 5254SAP2   C4B63630  24.925  27.993   6.011  0.2614  0.2321  0.1264
 5255SAP2    C163631  23.261  13.564   7.919  0.0131  0.1685  0.0354
 5255SAP2    C263632  23.350  13.413   8.134  0.1750  0.1802 -0.0223
 5255SAP2    C363633  23.084  13.618   8.138 -0.0852 -0.1500  0.0398
 5255SAP2    C463634  23.232  13.532   8.064 -0.0007 -0.0007  0.6972
 5255SAP2   PO463635  23.310  13.370   7.626  0.1072  0.3277 -0.0221
 5255SAP2    P463636  22.978  13.644   8.441  0.1285  0.0356  0.0192
 5255SAP2    P563637  23.270  13.232   8.448 -0.2358 -0.2676 -0.0673
 5255SAP2   GL163638  23.216  13.313   7.300 -0.2265 -0.2890 -0.3027
 5255SAP2   GL263639  22.912  13.269   7.305 -0.1832  0.3034 -0.2209
 5255SAP2   D1A63640  23.698  13.221   7.346  0.1267  0.4209 -0.0840
 5255SAP2   D2A63641  23.711  13.306   6.892  0.1271  0.2481 -0.1325
 5255SAP2   D3A63642  23.763  12.841   6.969 -0.0631 -0.5380 -0.2324
 5255SAP2   D4A63643  23.613  12.551   7.256  0.0944 -0.0991 -0.1183
 5255SAP2   C5A63644  23.221  12.783   7.210 -0.0213  0.0210 -0.0593
 5255SAP2   C1B63645  22.691  13.328   6.906 -0.2539  0.0133 -0.3442
 5255SAP2   C2B63646  22.675  13.184   6.442 -0.0671  0.3081  0.0801
 5255SAP2   C3B63647  22.859  12.794   6.231  0.0566  0.0865  0.1274
 5255SAP2   C4B63648  23.311  12.783   6.099 -0.2640  0.0956 -0.1232
 5256SAP2    C163649  30.165  15.121   8.270 -0.1568 -0.2249 -0.0694
 5256SAP2    C263650  30.427  15.048   8.326  0.0966  0.6069 -0.0431
 5256SAP2    C363651  30.184  15.091   8.554  0.0284  0.1944 -0.0307
 5256SAP2    C463652  30.259  15.087   8.383 -0.0007 -0.0007  0.6972
 5256SAP2   PO463653  30.014  15.050   7.965  0.0815 -0.0269  0.0611
 5256SAP2    P463654  30.261  14.998   8.834 -0.1713  0.3949  0.1098
 5256SAP2    P563655  30.655  15.043   8.538  0.2320 -0.1531  0.3689
 5256SAP2   GL163656  30.003  15.214   7.688 -0.1978  0.0638  0.3330
 5256SAP2   GL263657  29.737  15.051   7.602 -0.0993 -0.0001 -0.0010
 5256SAP2   D1A63658  30.177  14.774   7.548  0.2054  0.1389  0.0158
 5256SAP2   D2A63659  29.981  14.325   7.611  0.0912 -0.1095 -0.0520
 5256SAP2   D3A63660  29.876  14.207   7.192  0.1972 -0.3011  0.0514
 5256SAP2   D4A63661  30.269  14.223   6.970 -0.1667  0.0296  0.0644
 5256SAP2   C5A63662  30.363  14.426   6.504  0.0923 -0.1668  0.0932
 5256SAP2   C1B63663  29.902  15.170   7.224 -0.4174  0.1356 -0.1433
 5256SAP2   C2B63664  29.991  15.072   6.785  0.0007  0.1031 -0.1591
 5256SAP2   C3B63665  30.179  14.951   6.450  0.1939 -0.1602 -0.0231
 5256SAP2   C4B63666  30.064  14.905   6.061 -0.1271 -0.2361 -0.1509
 5257SAP2    C163667  21.498   5.330   8.055 -0.0013  0.2625 -0.2748
 5257SAP2    C263668  21.459   5.565   8.195 -0.2007  0.0448  0.0497
 5257SAP2    C363669  21.704   5.342   8.253 -0.0231  0.1562 -0.2448
 5257SAP2    C463670  21.554   5.413   8.168 -0.0007 -0.0007  0.6972
 5257SAP2   PO463671  21.435   5.434   7.713 -0.0266 -0.2378 -0.0438
 5257SAP2    P463672  21.805   5.543   8.486 -0.2819 -0.1182  0.2759
 5257SAP2    P563673  21.314   5.659   8.463 -0.2213  0.3223  0.0781
 5257SAP2   GL163674  21.320   5.262   7.407 -0.0279 -0.0312  0.1306
 5257SAP2   GL263675  21.590   5.191   7.314 -0.1776 -0.1404 -0.1357
 5257SAP2   D1A63676  21.398   5.688   7.227  0.0106 -0.1229 -0.1781
 5257SAP2   D2A63677  21.425   5.964   6.843 -0.0145 -0.0183  0.0722
 5257SAP2   D3A63678  21.792   6.017   6.613  0.1392  0.2896  0.1753
 5257SAP2   D4A63679  21.884   5.916   7.024 -0.0002 -0.1403  0.2493
 5257SAP2   C5A63680  21.735   6.372   7.095 -0.0604  0.1605 -0.0162
 5257SAP2   C1B63681  21.364   5.103   6.969  0.1417 -0.2000 -0.1734
 5257SAP2   C2B63682  21.122   4.909   6.629 -0.1793  0.2699  0.1975
 5257SAP2   C3B63683  21.430   4.696   6.310 -0.0040  0.2298  0.1073
 5257SAP2   C4B63684  21.657   4.546   5.954 -0.1499  0.1863  0.0334
 5258SAP2    C163685  12.142  11.002   8.150  0.0773  0.1519 -0.1539
 5258SAP2    C263686  12.307  10.780   8.147 -0.1565 -0.0301  0.0529
 5258SAP2    C363687  11.996  10.789   8.273 -0.1246  0.4369  0.1157
 5258SAP2    C463688  12.149  10.857   8.190 -0.0007 -0.0007  0.6972
 5258SAP2   PO463689  12.155  11.128   7.875 -0.0609  0.0086  0.0588
 5258SAP2    P463690  11.987  10.525   8.395  0.0883  0.0425  0.1649
 5258SAP2    P563691  12.517  10.587   8.275  0.3669 -0.4156  0.0786
 5258SAP2   GL163692  11.875  11.255   7.697 -0.1327 -0.2499 -0.2256
 5258SAP2   GL263693  12.052  11.455   7.477  0.1118 -0.0566 -0.3372
 5258SAP2   D1A63694  11.615  11.141   7.262 -0.1401 -0.2474 -0.2365
 5258SAP2   D2A63695  11.245  11.150   7.014 -0.0485  0.2590  0.1770
 5258SAP2   D3A63696  11.457  10.909   6.685  0.1183 -0.0375  0.1054
 5258SAP2   D4A63697  11.535  10.971   6.237 -0.1831  0.0540  0.4368
 5258SAP2   C5A63698  12.029  10.918   6.088 -0.1204 -0.0875  0.1738
 5258SAP2   C1B63699  11.751  11.611   7.187 -0.2009  0.2810  0.1616
 5258SAP2   C2B63700  11.438  11.559   6.827  0.3825 -0.0259 -0.4046
 5258SAP2   C3B63701  11.229  11.869   6.536 -0.0768  0.2949  0.1843
 5258SAP2   C4B63702  10.851  11.691   6.257 -0.0527  0.0731 -0.0302
 5259SAP2    C163703  18.097  12.215   8.264  0.2871 -0.0697  0.0070
 5259SAP2    C263704  17.884  12.310   8.415  0.0854 -0.1642 -0.2113
 5259SAP2    C363705  18.197  12.262   8.528 -0.0817 -0.3243  0.2009
 5259SAP2    C463706  18.059  12.262   8.402 -0.0007 -0.0007  0.6972
 5259SAP2   PO463707  18.023  12.351   7.983 -0.0039  0.2123  0.0752
 5259SAP2    P463708  18.203  12.334   8.828 -0.1068 -0.0371  0.0864
 5259SAP2    P563709  17.785  12.329   8.697  0.0734 -0.1854  0.2232
 5259SAP2   GL163710  18.271  12.293   7.843 -0.0587  0.0660  0.0545
 5259SAP2   GL263711  18.218  12.067   7.607 -0.1627 -0.0290 -0.1970
 5259SAP2   D1A63712  18.079  12.517   7.472 -0.2825  0.0250  0.1251
 5259SAP2   D2A63713  17.685  12.300   7.526  0.2074 -0.1276  0.2410
 5259SAP2   D3A63714  17.502  12.641   7.820 -0.0947 -0.0922  0.0254
 5259SAP2   D4A63715  17.146  12.349   7.794 -0.1399  0.1066  0.2002
 5259SAP2   C5A63716  17.218  12.263   7.330  0.3626 -0.0651  0.0239
 5259SAP2   C1B63717  18.227  12.101   7.165  0.1765  0.0606 -0.0106
 5259SAP2   C2B63718  17.979  12.036   6.702  0.3309  0.2653 -0.1215
 5259SAP2   C3B63719  17.888  12.120   6.276  0.0010  0.3313  0.1594
 5259SAP2   C4B63720  17.992  12.123   5.796 -0.1459  0.0047  0.1106
 5260SAP2    C163721  21.829  18.457   8.022  0.1023  0.1195 -0.2951
 5260SAP2    C263722  21.711  18.580   8.240 -0.0287 -0.2411 -0.1538
 5260SAP2    C363723  22.014  18.654   8.116  0.0746 -0.0707  0.1881
 5260SAP2    C463724  21.851  18.564   8.126 -0.0007 -0.0007  0.6972
 5260SAP2   PO463725  21.628  18.409   7.786 -0.0040  0.0147  0.0888
 5260SAP2    P463726  22.015  18.930   8.330 -0.1342 -0.2444  0.0831
 5260SAP2    P563727  21.805  18.613   8.515  0.0411 -0.2431 -0.0598
 5260SAP2   GL163728  21.698  18.158   7.557  0.1677 -0.1556 -0.1369
 5260SAP2   GL263729  21.967  18.141   7.506 -0.0572 -0.0106  0.0449
 5260SAP2   D1A63730  21.530  17.949   7.187 -0.1824  0.0884 -0.0101
 5260SAP2   D2A63731  21.720  18.367   7.033  0.0875  0.0162 -0.1328
 5260SAP2   D3A63732  22.002  18.627   6.745 -0.2138  0.5407  0.0711
 5260SAP2   D4A63733  22.276  18.310   6.573  0.0596  0.0146 -0.3259
 5260SAP2   C5A63734  22.731  18.169   6.525 -0.1561  0.1765 -0.0189
 5260SAP2   C1B63735  22.206  18.455   7.331  0.2553  0.5379  0.4790
 5260SAP2   C2B63736  22.449  18.566   6.979 -0.3342 -0.1648  0.1015
 5260SAP2   C3B63737  22.765  18.684   6.677 -0.0969  0.0266 -0.0993
 5260SAP2   C4B63738  23.197  18.521   6.609  0.2934  0.1611 -0.0525
 5261SAP2    C163739  23.394  15.534   9.382  0.1690  0.0547  0.1690
 5261SAP2    C263740  23.144  15.652   9.373  0.1110 -0.0705  0.1006
 5261SAP2    C363741  23.390  15.734   9.586 -0.0527 -0.0719  0.2925
 5261SAP2    C463742  23.309  15.640   9.447 -0.0007 -0.0007  0.6972
 5261SAP2   PO463743  23.487  15.492   9.065  0.0202  0.0469 -0.2522
 5261SAP2    P463744  23.151  15.993   9.667  0.0885  0.1382  0.0588
 5261SAP2    P563745  22.875  15.616   9.408 -0.0073  0.0311  0.3652
 5261SAP2   GL163746  23.485  15.666   8.808 -0.0783  0.1923  0.1076
 5261SAP2   GL263747  23.754  15.831   8.838  0.3063  0.0942 -0.1438
 5261SAP2   D1A63748  23.325  16.128   8.817  0.1871  0.1415 -0.0455
 5261SAP2   D2A63749  23.668  16.350   8.895 -0.0970  0.3887  0.0443
 5261SAP2   D3A63750  23.332  16.620   9.085 -0.0009  0.0604 -0.2264
 5261SAP2   D4A63751  23.690  16.806   9.210 -0.1932  0.2215 -0.1336
 5261SAP2   C5A63752  23.453  17.206   9.150  0.0854  0.2699 -0.0009
 5261SAP2   C1B63753  23.848  16.080   8.427  0.1412  0.1734  0.1011
 5261SAP2   C2B63754  23.773  16.491   8.348  0.3107  0.1694  0.1464
 5261SAP2   C3B63755  23.908  16.698   7.934  0.1156 -0.0407  0.1895
 5261SAP2   C4B63756  23.931  17.118   7.782  0.0991 -0.0812  0.0571
 5262SAP2    C163757  10.149   8.046   8.404  0.2347 -0.3748  0.0893
 5262SAP2    C263758  10.034   7.876   8.591  0.0229 -0.0110  0.3011
 5262SAP2    C363759  10.004   8.211   8.588 -0.1516 -0.0121 -0.5053
 5262SAP2    C463760  10.062   8.044   8.528 -0.0007 -0.0007  0.6972
 5262SAP2   PO463761  10.119   7.839   8.105  0.0477 -0.1812 -0.2780
 5262SAP2    P463762   9.893   8.330   8.820 -0.1556  0.3195  0.0937
 5262SAP2    P563763  10.268   7.937   8.803 -0.3315  0.0702  0.0721
 5262SAP2   GL163764  10.278   7.976   7.855 -0.2800 -0.2091 -0.4385
 5262SAP2   GL263765  10.416   8.068   7.678  0.3737 -0.0391  0.0178
 5262SAP2   D1A63766  10.399   7.533   7.794 -0.1717  0.0448  0.1452
 5262SAP2   D2A63767  10.187   7.441   7.350  0.4003  0.1724 -0.0116
 5262SAP2   D3A63768  10.083   7.037   7.447  0.0555  0.1246 -0.2430
 5262SAP2   D4A63769  10.353   6.846   7.195 -0.1796  0.3779 -0.1927
 5262SAP2   C5A63770  10.467   7.327   7.014 -0.1785 -0.0403  0.1689
 5262SAP2   C1B63771  10.510   7.804   7.355 -0.0296  0.1560 -0.2337
 5262SAP2   C2B63772  10.682   7.761   6.922 -0.1263 -0.0136  0.1303
 5262SAP2   C3B63773  10.697   7.694   6.470  0.0874 -0.1138  0.0429
 5262SAP2   C4B63774  10.756   7.564   6.057 -0.0829 -0.1963  0.0768
 5263SAP2    C163775  10.721   7.169   8.505 -0.1524  0.0617 -0.1498
 5263SAP2    C263776  10.515   7.210   8.686  0.0580  0.1222  0.0808
 5263SAP2    C363777  10.841   7.189   8.764  0.1416  0.0166 -0.2792
 5263SAP2    C463778  10.692   7.189   8.652 -0.0007 -0.0007  0.6972
 5263SAP2   PO463779  10.723   7.353   8.247  0.1103  0.1857  0.3126
 5263SAP2    P463780  10.759   7.181   9.071  0.0374  0.1703 -0.1343
 5263SAP2    P563781  10.326   7.091   8.892 -0.2562 -0.2038  0.1453
 5263SAP2   GL163782  10.967   7.107   8.074 -0.0742 -0.2303 -0.0629
 5263SAP2   GL263783  11.128   7.207   7.916 -0.2225  0.0039 -0.0394
 5263SAP2   D1A63784  10.610   7.028   7.784  0.0068 -0.1522 -0.1465
 5263SAP2   D2A63785  10.172   6.819   7.921 -0.0640 -0.1260  0.1075
 5263SAP2   D3A63786  10.108   6.515   7.607 -0.2068  0.1472 -0.0550
 5263SAP2   D4A63787  10.539   6.595   7.570 -0.0006  0.0934 -0.1655
 5263SAP2   C5A63788  10.401   6.360   7.194  0.2595 -0.1747  0.0299
 5263SAP2   C1B63789  11.341   7.617   7.769 -0.1225  0.2149 -0.0266
 5263SAP2   C2B63790  11.536   7.906   7.465 -0.1758 -0.0427 -0.1344
 5263SAP2   C3B63791  11.587   8.168   7.062 -0.0766 -0.0797 -0.1482
 5263SAP2   C4B63792  11.436   8.303   6.679  0.0765 -0.2481  0.0825
 5264SAP2    C163793  25.087  18.733   9.059 -0.2001 -0.0789  0.0109
 5264SAP2    C263794  25.363  18.762   9.054 -0.1909 -0.1824 -0.4146
 5264SAP2    C363795  25.186  18.640   9.312  0.1350  0.0780 -0.0564
 5264SAP2    C463796  25.212  18.711   9.141 -0.0007 -0.0007  0.6972
 5264SAP2   PO463797  24.993  18.661   8.743  0.1358 -0.0728  0.0178
 5264SAP2    P463798  25.474  18.534   9.438  0.1803  0.0486  0.0136
 5264SAP2    P563799  25.573  18.955   9.203  0.1713 -0.0155  0.1395
 5264SAP2   GL163800  24.989  18.323   8.738  0.1431 -0.1822  0.1144
 5264SAP2   GL263801  25.166  18.205   8.534  0.1388  0.0554  0.0476
 5264SAP2   D1A63802  24.652  18.023   8.806 -0.1543  0.1784 -0.2536
 5264SAP2   D2A63803  24.489  17.652   8.609 -0.4567 -0.0389  0.2545
 5264SAP2   D3A63804  24.512  17.532   9.067 -0.1213 -0.0009 -0.0557
 5264SAP2   D4A63805  24.215  17.919   9.183 -0.3686 -0.0087 -0.1425
 5264SAP2   C5A63806  24.034  18.005   8.808 -0.2226 -0.0316 -0.2682
 5264SAP2   C1B63807  24.996  17.797   8.478 -0.0769 -0.1947 -0.1050
 5264SAP2   C2B63808  24.850  17.533   8.128  0.0832  0.2121  0.3032
 5264SAP2   C3B63809  24.535  17.349   7.862  0.0126 -0.0188  0.0556
 5264SAP2   C4B63810  24.448  16.887   8.016 -0.2142 -0.0328  0.1012
 5265SAP2    C163811  23.240  18.564   8.932  0.2964  0.0614  0.1221
 5265SAP2    C263812  23.130  18.795   9.038  0.1180 -0.0565  0.2005
 5265SAP2    C363813  23.071  18.484   9.150  0.0562 -0.1712 -0.1419
 5265SAP2    C463814  23.147  18.614   9.040 -0.0007 -0.0007  0.6972
 5265SAP2   PO463815  23.610  18.690   8.986 -0.0606 -0.0185  0.0143
 5265SAP2    P463816  22.884  18.550   9.389  0.0210  0.0502  0.2192
 5265SAP2    P563817  22.951  18.984   9.192 -0.1567 -0.1634 -0.1840
 5265SAP2   GL163818  23.692  18.392   8.784 -0.1665 -0.0957  0.0081
 5265SAP2   GL263819  23.588  18.535   8.581 -0.2339 -0.2588  0.0319
 5265SAP2   D1A63820  23.485  18.022   8.857  0.0153 -0.1835  0.0293
 5265SAP2   D2A63821  23.694  17.636   9.042  0.0958  0.0506 -0.0497
 5265SAP2   D3A63822  23.282  17.549   8.825 -0.0262 -0.0916 -0.0905
 5265SAP2   D4A63823  22.875  17.744   8.731  0.1572  0.3079  0.2625
 5265SAP2   C5A63824  22.763  17.904   8.326 -0.1134 -0.0886 -0.1309
 5265SAP2   C1B63825  23.629  18.109   8.352  0.2281 -0.0953 -0.1245
 5265SAP2   C2B63826  23.773  17.896   7.984  0.2062 -0.2665 -0.0379
 5265SAP2   C3B63827  24.137  17.807   7.690 -0.0104 -0.2369  0.3774
 5265SAP2   C4B63828  24.186  17.399   7.453  0.1264  0.2943  0.0823
 5266SAP2    C163829  13.748  12.689   8.007 -0.2489  0.0060 -0.1697
 5266SAP2    C263830  13.675  12.550   8.235  0.1150  0.0261 -0.0348
 5266SAP2    C363831  13.910  12.790   8.221  0.0799  0.0436 -0.4283
 5266SAP2    C463832  13.777  12.676   8.155 -0.0007 -0.0007  0.6972
 5266SAP2   PO463833  13.446  12.737   7.916 -0.1104 -0.0879  0.0556
 5266SAP2    P463834  13.963  12.742   8.538 -0.5348 -0.1846  0.2114
 5266SAP2    P563835  13.751  12.321   8.354 -0.0586 -0.1457  0.0282
 5266SAP2   GL163836  13.499  12.732   7.624  0.2962 -0.0768 -0.0120
 5266SAP2   GL263837  13.362  12.509   7.501  0.2168  0.4615 -0.1282
 5266SAP2   D1A63838  13.493  12.833   7.148 -0.0653  0.0014 -0.0408
 5266SAP2   D2A63839  13.268  13.042   6.794 -0.1938  0.2235 -0.1688
 5266SAP2   D3A63840  13.189  12.990   6.380 -0.0547 -0.2889 -0.3365
 5266SAP2   D4A63841  13.312  12.581   6.094 -0.0291  0.1238  0.2994
 5266SAP2   C5A63842  13.156  12.570   5.686 -0.0070  0.2014 -0.0502
 5266SAP2   C1B63843  13.357  12.230   7.123  0.0836  0.3629  0.2564
 5266SAP2   C2B63844  13.627  11.940   6.850 -0.0496 -0.2465 -0.2684
 5266SAP2   C3B63845  13.701  11.598   6.547 -0.1898 -0.2475  0.1531
 5266SAP2   C4B63846  13.535  11.362   6.190 -0.1714 -0.2092 -0.0469
 5267SAP2    C163847  22.324  28.172   8.070 -0.2194  0.2089  0.0995
 5267SAP2    C263848  22.452  28.072   8.294  0.0333  0.3288  0.0132
 5267SAP2    C363849  22.214  28.309   8.296 -0.1832  0.1158  0.1741
 5267SAP2    C463850  22.330  28.184   8.220 -0.0007 -0.0007  0.6972
 5267SAP2   PO463851  22.208  27.933   7.832 -0.0496 -0.1412  0.0359
 5267SAP2    P463852  22.149  28.317   8.596 -0.0663 -0.2804  0.1521
 5267SAP2    P563853  22.670  28.229   8.546  0.0991  0.1096  0.2301
 5267SAP2   GL163854  22.326  28.227   7.639  0.0989 -0.0620 -0.3720
 5267SAP2   GL263855  22.594  28.328   7.590  0.1757  0.3356 -0.0568
 5267SAP2   D1A63856  22.258  27.880   7.309 -0.1678  0.1733 -0.0842
 5267SAP2   D2A63857  22.575  27.468   7.230 -0.0327 -0.1337 -0.1992
 5267SAP2   D3A63858  22.145  27.392   7.429 -0.1154 -0.2106  0.0478
 5267SAP2   D4A63859  22.083  27.522   6.963  0.1286 -0.3499  0.1421
 5267SAP2   C5A63860  22.349  27.150   6.823 -0.1886 -0.1248 -0.2693
 5267SAP2   C1B63861  22.556  28.455   7.131 -0.3194 -0.0942  0.1456
 5267SAP2   C2B63862  22.474  28.431   6.633 -0.0411 -0.2313 -0.1366
 5267SAP2   C3B63863  22.401  28.365   6.195 -0.1233  0.0283 -0.3390
 5267SAP2   C4B63864  22.114  28.323   5.790 -0.0132  0.2711  0.0488
 5268SAP2    C163865  19.889  10.852   8.440 -0.0106  0.0268  0.0596
 5268SAP2    C263866  19.935  10.592   8.522 -0.1237 -0.0145 -0.0049
 5268SAP2    C363867  20.016  10.868   8.696  0.0646 -0.0904  0.0303
 5268SAP2    C463868  19.947  10.771   8.553 -0.0007 -0.0007  0.6972
 5268SAP2   PO463869  19.609  10.845   8.280  0.1594  0.0268  0.0146
 5268SAP2    P463870  20.067  10.788   8.998 -0.0736  0.3953 -0.1144
 5268SAP2    P563871  20.237  10.448   8.636  0.0854  0.0100  0.0643
 5268SAP2   GL163872  19.765  10.955   7.911  0.0195  0.2006  0.1232
 5268SAP2   GL263873  19.561  10.756   7.830  0.0403  0.2862 -0.3474
 5268SAP2   D1A63874  20.074  10.796   7.597 -0.1198  0.0660  0.1606
 5268SAP2   D2A63875  20.383  10.406   7.621  0.4032 -0.0629 -0.4366
 5268SAP2   D3A63876  20.225  10.015   7.471  0.1725  0.2253 -0.2723
 5268SAP2   D4A63877  20.595  10.167   7.256  0.3616 -0.0367  0.0368
 5268SAP2   C5A63878  20.741  10.023   6.841 -0.2392 -0.0695  0.0957
 5268SAP2   C1B63879  19.550  10.473   7.442 -0.2334 -0.2315 -0.0086
 5268SAP2   C2B63880  19.309  10.525   7.038  0.0793  0.0909 -0.0965
 5268SAP2   C3B63881  19.249  10.696   6.584 -0.1310 -0.0277  0.0390
 5268SAP2   C4B63882  19.418  10.824   6.201 -0.0475 -0.2671  0.1351
 5269SAP2    C163883   8.397   1.114   9.139  0.0655 -0.0466  0.0353
 5269SAP2    C263884   8.162   1.120   8.992 -0.0242  0.0825  0.1802
 5269SAP2    C363885   8.190   1.205   9.316  0.2429  0.1688  0.1370
 5269SAP2    C463886   8.250   1.146   9.149 -0.0007 -0.0007  0.6972
 5269SAP2   PO463887   8.590   1.270   8.924 -0.0684  0.1110  0.0612
 5269SAP2    P463888   7.888   1.275   9.366 -0.1337  0.2538 -0.0434
 5269SAP2    P563889   7.855   1.075   8.973 -0.0652  0.0456 -0.3224
 5269SAP2   GL163890   8.394   1.395   8.676  0.2351 -0.0167 -0.2756
 5269SAP2   GL263891   8.242   1.334   8.468  0.0911 -0.2094 -0.0694
 5269SAP2   D1A63892   8.740   1.368   8.343 -0.0589  0.1097  0.0045
 5269SAP2   D2A63893   9.092   1.643   8.152 -0.1559 -0.1432  0.1214
 5269SAP2   D3A63894   9.244   1.500   7.763  0.0369  0.3474 -0.1183
 5269SAP2   D4A63895   9.518   1.834   7.618  0.0539  0.1064 -0.0723
 5269SAP2   C5A63896   9.167   2.153   7.538  0.1575  0.0533 -0.0160
 5269SAP2   C1B63897   8.239   1.651   8.105  0.1221  0.2828  0.3621
 5269SAP2   C2B63898   8.329   1.948   7.765  0.0489 -0.3539  0.0961
 5269SAP2   C3B63899   8.224   2.362   7.630 -0.0162  0.3147  0.2275
 5269SAP2   C4B63900   8.472   2.705   7.695 -0.0546 -0.1599  0.3594
 5270SAP2    C163901  10.452  12.757   9.589 -0.0432  0.1454 -0.0175
 5270SAP2    C263902  10.585  12.518   9.635  0.1105  0.2059 -0.1383
 5270SAP2    C363903  10.309  12.621   9.797  0.0343 -0.0588 -0.0952
 5270SAP2    C463904  10.449  12.632   9.674 -0.0007 -0.0007  0.6972
 5270SAP2   PO463905  10.425  12.761   9.235 -0.0554  0.0534 -0.0768
 5270SAP2    P463906  10.122  12.436   9.960 -0.2546  0.0227  0.0259
 5270SAP2    P563907  10.695  12.364   9.807 -0.1200 -0.0690  0.3824
 5270SAP2   GL163908  10.537  12.591   9.007  0.0560 -0.2118  0.0537
 5270SAP2   GL263909  10.694  12.424   8.877  0.1279  0.2095  0.0892
 5270SAP2   D1A63910  10.299  12.678   8.591 -0.2502 -0.1057 -0.2120
 5270SAP2   D2A63911  10.115  12.323   8.342 -0.0814 -0.0024 -0.0020
 5270SAP2   D3A63912  10.459  12.097   8.559 -0.1488 -0.0640 -0.0609
 5270SAP2   D4A63913  10.689  11.944   8.199 -0.0256  0.2154 -0.1754
 5270SAP2   C5A63914  10.869  11.631   8.500 -0.0126  0.2048  0.0036
 5270SAP2   C1B63915  10.963  12.141   8.594 -0.1445 -0.0534  0.1991
 5270SAP2   C2B63916  11.221  11.905   8.281  0.1217  0.1275  0.3341
 5270SAP2   C3B63917  11.358  11.789   7.894 -0.1045 -0.0427  0.0151
 5270SAP2   C4B63918  11.384  11.523   7.482 -0.2284 -0.0881 -0.0077
 5271SAP2    C163919   7.200  15.933   8.204 -0.1288 -0.1934 -0.1746
 5271SAP2    C263920   7.059  15.932   8.442  0.1443  0.2441  0.0007
 5271SAP2    C363921   7.363  15.797   8.396  0.0534  0.0808 -0.1286
 5271SAP2    C463922   7.208  15.887   8.348 -0.0007 -0.0007  0.6972
 5271SAP2   PO463923   7.204  16.238   8.122  0.2291  0.2131  0.3346
 5271SAP2    P463924   7.371  15.727   8.771 -0.5465 -0.0341 -0.2022
 5271SAP2    P563925   6.866  15.642   8.552 -0.0690  0.3174 -0.0037
 5271SAP2   GL163926   6.973  16.482   8.028  0.0141 -0.1710 -0.1550
 5271SAP2   GL263927   7.094  16.349   7.745 -0.2642 -0.1010 -0.0933
 5271SAP2   D1A63928   7.341  16.729   7.943 -0.1354  0.1971 -0.1602
 5271SAP2   D2A63929   7.373  17.012   7.574 -0.2864  0.1665 -0.0604
 5271SAP2   D3A63930   6.998  16.798   7.466  0.2627 -0.0834  0.1511
 5271SAP2   D4A63931   6.926  17.314   7.525  0.2669  0.0132  0.0761
 5271SAP2   C5A63932   6.711  17.754   7.412  0.1665  0.1550 -0.0372
 5271SAP2   C1B63933   6.937  16.327   7.344 -0.0283  0.0096 -0.1258
 5271SAP2   C2B63934   7.098  16.234   6.921  0.0071 -0.0897 -0.3050
 5271SAP2   C3B63935   6.975  16.463   6.509  0.0820 -0.3271 -0.1324
 5271SAP2   C4B63936   6.999  16.967   6.548  0.0539  0.1631  0.2562
 5272SAP2    C163937  20.053  25.860   8.796  0.0505 -0.1086  0.0925
 5272SAP2    C263938  20.222  25.956   8.993  0.0543 -0.1084  0.0891
 5272SAP2    C363939  19.889  26.002   8.983  0.0766  0.0442  0.0017
 5272SAP2    C463940  20.055  25.939   8.924 -0.0007 -0.0007  0.6972
 5272SAP2   PO463941  20.118  25.541   8.742  0.0602  0.0394 -0.0601
 5272SAP2    P463942  19.877  26.135   9.245 -0.0608 -0.3867 -0.0874
 5272SAP2    P563943  20.355  26.131   9.126  0.0944  0.3308  0.1120
 5272SAP2   GL163944  20.327  25.470   8.493  0.1619 -0.0649  0.1115
 5272SAP2   GL263945  20.142  25.407   8.272  0.0563 -0.3270  0.1284
 5272SAP2   D1A63946  20.723  25.237   8.505  0.1784 -0.2902  0.0591
 5272SAP2   D2A63947  20.450  24.981   8.278 -0.2527 -0.1392 -0.2695
 5272SAP2   D3A63948  20.649  24.645   8.150  0.0230 -0.0724  0.1062
 5272SAP2   D4A63949  20.181  24.542   8.239  0.3241  0.1186 -0.2339
 5272SAP2   C5A63950  20.057  24.826   7.933 -0.0708  0.0857  0.1743
 5272SAP2   C1B63951  20.400  25.260   7.904 -0.0435 -0.0190 -0.1606
 5272SAP2   C2B63952  20.477  25.289   7.449  0.2155 -0.0477 -0.1308
 5272SAP2   C3B63953  20.328  25.291   6.979 -0.2092  0.2110  0.0118
 5272SAP2   C4B63954  20.383  25.316   6.500  0.0229  0.0982 -0.1902
 5273SAP2    C163955  14.153   9.042   8.056  0.0850 -0.0307  0.2810
 5273SAP2    C263956  13.993   9.258   8.125  0.1584 -0.0230  0.4314
 5273SAP2    C363957  14.161   9.064   8.341 -0.1050 -0.3869  0.3202
 5273SAP2    C463958  14.103   9.122   8.174 -0.0007 -0.0007  0.6972
 5273SAP2   PO463959  14.344   9.180   7.763 -0.1055 -0.0551 -0.0639
 5273SAP2    P463960  14.188   9.160   8.630 -0.0781 -0.4031  0.0840
 5273SAP2    P563961  13.824   9.392   8.350  0.1274  0.0184 -0.1578
 5273SAP2   GL163962  14.523   8.845   7.650 -0.0048 -0.1800  0.0634
 5273SAP2   GL263963  14.455   8.861   7.334  0.0572 -0.0654 -0.0271
 5273SAP2   D1A63964  14.794   9.128   7.934  0.3444  0.3400  0.0249
 5273SAP2   D2A63965  15.207   8.939   7.946 -0.1803  0.1761 -0.2093
 5273SAP2   D3A63966  15.338   9.069   7.489  0.1010  0.0262 -0.1522
 5273SAP2   D4A63967  14.887   9.097   7.438  0.1656 -0.1252  0.0551
 5273SAP2   C5A63968  14.968   8.766   7.134  0.3147  0.0835  0.2379
 5273SAP2   C1B63969  14.341   8.974   6.895  0.1632 -0.1876 -0.2036
 5273SAP2   C2B63970  14.021   9.037   6.638 -0.0233  0.2081 -0.0391
 5273SAP2   C3B63971  13.581   9.026   6.476  0.2282 -0.0574 -0.0608
 5273SAP2   C4B63972  13.265   8.797   6.181 -0.2399 -0.2972 -0.2070
 5274SAP2    C163973  10.405   5.805   8.478  0.1030 -0.1016 -0.2642
 5274SAP2    C263974  10.579   5.809   8.693 -0.0055  0.3852 -0.1720
 5274SAP2    C363975  10.401   5.542   8.592  0.0861  0.1308  0.3049
 5274SAP2    C463976  10.462   5.719   8.588 -0.0007 -0.0007  0.6972
 5274SAP2   PO463977  10.518   6.005   8.238  0.3020 -0.0905 -0.3676
 5274SAP2    P463978  10.441   5.363   8.814  0.1809 -0.1558  0.1131
 5274SAP2    P563979  10.464   5.871   9.013 -0.0609  0.2102 -0.0685
 5274SAP2   GL163980  10.549   5.829   7.976  0.0900 -0.2890  0.4041
 5274SAP2   GL263981  10.771   5.679   7.895  0.1515 -0.1069  0.0941
 5274SAP2   D1A63982  10.380   6.076   7.604 -0.3480 -0.3386 -0.3479
 5274SAP2   D2A63983  10.762   6.088   7.465 -0.0398  0.0211  0.0829
 5274SAP2   D3A63984  10.541   5.740   7.214  0.2005 -0.0573  0.1861
 5274SAP2   D4A63985  10.747   5.947   6.867  0.0551 -0.0902  0.1667
 5274SAP2   C5A63986  11.062   6.143   6.586 -0.2287  0.2091  0.1617
 5274SAP2   C1B63987  11.121   5.833   7.635  0.1538 -0.2837  0.2477
 5274SAP2   C2B63988  11.492   5.934   7.446 -0.0031 -0.2228  0.1151
 5274SAP2   C3B63989  11.797   6.029   7.063 -0.0060  0.1168 -0.2398
 5274SAP2   C4B63990  12.048   5.989   6.709  0.3033  0.1242  0.1254
 5275SAP2    C163991  26.155  21.426   8.975 -0.0265  0.0870  0.0708
 5275SAP2    C263992  25.956  21.480   9.160  0.0588  0.0988  0.1596
 5275SAP2    C363993  26.243  21.652   9.127  0.1431 -0.0389  0.1631
 5275SAP2    C463994  26.118  21.519   9.087 -0.0007 -0.0007  0.6972
 5275SAP2   PO463995  25.925  21.341   8.711 -0.0392 -0.1539 -0.1736
 5275SAP2    P463996  26.264  21.898   9.284  0.0310  0.2642 -0.1014
 5275SAP2    P563997  25.831  21.653   9.372 -0.0490  0.0856 -0.0279
 5275SAP2   GL163998  26.151  21.407   8.474  0.1936  0.2237  0.3122
 5275SAP2   GL263999  26.026  21.433   8.239 -0.1844  0.4104  0.1105
 5275SAP2   D1A64000  26.321  21.844   8.279 -0.2024 -0.2257  0.0995
 5275SAP2   D2A64001  25.914  21.873   8.082  0.0693  0.1254  0.1532
 5275SAP2   D3A64002  25.572  21.610   7.906 -0.4446 -0.1982  0.0148
 5275SAP2   D4A64003  25.496  21.197   7.790 -0.0704 -0.0965 -0.2696
 5275SAP2   C5A64004  25.718  21.334   7.409  0.1219  0.2352  0.1772
 5275SAP2   C1B64005  26.067  21.492   7.782  0.0272  0.0946 -0.1860
 5275SAP2   C2B64006  26.154  21.572   7.332  0.1417 -0.2989  0.1646
 5275SAP2   C3B64007  26.365  21.370   7.013 -0.3013  0.0756 -0.0699
 5275SAP2   C4B64008  26.249  21.307   6.586 -0.0922  0.2720  0.0726
 5276SAP2    C164009  14.505  30.371   8.473 -0.0921  0.2931 -0.1443
 5276SAP2    C264010  14.513  30.581   8.653  0.1947  0.0199  0.1753
 5276SAP2    C364011  14.781  30.441   8.507 -0.0256  0.1588 -0.3863
 5276SAP2    C464012  14.600  30.464   8.545 -0.0007 -0.0007  0.6972
 5276SAP2   PO464013  14.316  30.476   8.259 -0.4825  0.2230  0.2697
 5276SAP2    P464014  14.975  30.599   8.547 -0.2694 -0.3368  0.0689
 5276SAP2    P564015  14.620  30.524   8.923 -0.0408  0.0189  0.2421
 5276SAP2   GL164016  14.323  30.231   7.891 -0.0991 -0.2298 -0.0546
 5276SAP2   GL264017  14.545  30.286   7.737  0.1676  0.0973 -0.1435
 5276SAP2   D1A64018  14.321  29.770   7.747  0.2697  0.1954  0.1236
 5276SAP2   D2A64019  14.158  30.045   7.480 -0.2155  0.0213 -0.0807
 5276SAP2   D3A64020  14.058  29.914   6.981  0.0194  0.2000  0.1455
 5276SAP2   D4A64021  14.190  29.567   6.738  0.0109 -0.2600 -0.3380
 5276SAP2   C5A64022  14.116  29.131   6.557 -0.1279  0.1326 -0.0019
 5276SAP2   C1B64023  14.549  30.345   7.288 -0.3542 -0.1110  0.5097
 5276SAP2   C2B64024  14.408  30.210   6.832 -0.1150  0.2300 -0.1231
 5276SAP2   C3B64025  14.386  29.972   6.465  0.2781 -0.1296 -0.0067
 5276SAP2   C4B64026  14.523  29.983   6.000  0.1840  0.3482 -0.2268
 5277SAP2    C164027   5.431   3.972   8.022 -0.1524  0.0756  0.1135
 5277SAP2    C264028   5.404   4.179   8.204 -0.2333 -0.0264  0.2195
 5277SAP2    C364029   5.461   3.858   8.284  0.0311 -0.0242  0.0508
 5277SAP2    C464030   5.432   4.003   8.170 -0.0007 -0.0007  0.6972
 5277SAP2   PO464031   5.588   4.139   7.762  0.0252 -0.4905  0.2353
 5277SAP2    P464032   5.594   3.917   8.579 -0.0609 -0.0759  0.1533
 5277SAP2    P564033   5.125   4.153   8.433 -0.1145 -0.4406 -0.1287
 5277SAP2   GL164034   5.598   4.109   7.412 -0.3365  0.1503  0.2398
 5277SAP2   GL264035   5.470   4.330   7.327  0.1440 -0.2145  0.1771
 5277SAP2   D1A64036   5.519   3.716   7.157  0.1253 -0.1372 -0.0220
 5277SAP2   D2A64037   4.981   3.778   7.186  0.2354  0.2107 -0.0268
 5277SAP2   D3A64038   4.796   3.536   6.824  0.2066 -0.3340 -0.3302
 5277SAP2   D4A64039   5.161   3.753   6.639  0.1110 -0.0333 -0.1045
 5277SAP2   C5A64040   5.290   3.735   6.140  0.2283  0.1532 -0.2535
 5277SAP2   C1B64041   5.438   4.160   6.877 -0.1446 -0.1576 -0.1381
 5277SAP2   C2B64042   5.414   4.108   6.417  0.0150 -0.0695 -0.0070
 5277SAP2   C3B64043   5.656   4.104   5.974  0.0775  0.0380 -0.0413
 5277SAP2   C4B64044   5.690   3.636   5.881  0.2223  0.1627 -0.2915
 5278SAP2    C164045  11.804  16.029   7.970  0.0882 -0.1014  0.0084
 5278SAP2    C264046  11.823  15.956   8.237 -0.0859  0.0576  0.0666
 5278SAP2    C364047  11.537  16.029   8.075  0.0394  0.1741 -0.1066
 5278SAP2    C464048  11.721  16.005   8.094 -0.0007 -0.0007  0.6972
 5278SAP2   PO464049  12.034  15.850   7.811 -0.3437 -0.0115 -0.3956
 5278SAP2    P464050  11.305  16.072   8.317 -0.0915  0.2732  0.2647
 5278SAP2    P564051  11.764  16.153   8.444 -0.0030  0.1345 -0.1061
 5278SAP2   GL164052  11.911  15.759   7.491  0.2603  0.1724 -0.0800
 5278SAP2   GL264053  11.994  15.969   7.336  0.0022 -0.0257 -0.0459
 5278SAP2   D1A64054  12.216  15.494   7.316 -0.0417  0.1797  0.0114
 5278SAP2   D2A64055  11.741  15.282   7.321  0.2799  0.0324  0.2692
 5278SAP2   D3A64056  11.441  15.171   6.993 -0.0518  0.0545  0.0235
 5278SAP2   D4A64057  11.466  15.317   6.625 -0.3134 -0.1366 -0.1750
 5278SAP2   C5A64058  11.922  15.435   6.451 -0.1503 -0.4590  0.0810
 5278SAP2   C1B64059  11.685  16.133   6.978 -0.0337 -0.0413 -0.1502
 5278SAP2   C2B64060  11.707  16.066   6.573  0.1593  0.1003 -0.3227
 5278SAP2   C3B64061  11.740  15.779   6.189  0.1927 -0.3419 -0.0451
 5278SAP2   C4B64062  11.899  15.471   5.822 -0.0302  0.3617  0.3469
 5279SAP2    C164063  17.589  26.410   7.905  0.1653  0.2131 -0.1742
 5279SAP2    C264064  17.585  26.659   8.025 -0.1888  0.0516  0.1725
 5279SAP2    C364065  17.604  26.367   8.188  0.1057 -0.1585 -0.2223
 5279SAP2    C464066  17.593  26.479   8.039 -0.0007 -0.0007  0.6972
 5279SAP2   PO464067  17.774  26.429   7.644  0.0987  0.0035 -0.0723
 5279SAP2    P464068  17.667  26.427   8.451  0.2407 -0.2142  0.2369
 5279SAP2    P564069  17.441  26.793   8.311  0.1467  0.1259 -0.0783
 5279SAP2   GL164070  17.626  26.255   7.457  0.1479 -0.0956  0.0449
 5279SAP2   GL264071  17.489  26.502   7.245  0.0292  0.4520 -0.3109
 5279SAP2   D1A64072  17.880  26.013   7.191 -0.0235  0.0904  0.2356
 5279SAP2   D2A64073  18.002  26.456   6.988 -0.2052 -0.3232 -0.2597
 5279SAP2   D3A64074  18.018  26.629   6.576 -0.0537  0.2068 -0.1492
 5279SAP2   D4A64075  18.304  26.302   6.533  0.1888  0.2229  0.0504
 5279SAP2   C5A64076  18.257  25.948   6.136 -0.2319  0.1538  0.1076
 5279SAP2   C1B64077  17.209  26.742   6.962  0.1854 -0.0841 -0.0469
 5279SAP2   C2B64078  16.825  26.680   6.667  0.1397 -0.0776 -0.0522
 5279SAP2   C3B64079  16.561  26.637   6.259  0.0136 -0.0634  0.0630
 5279SAP2   C4B64080  16.377  26.533   5.816  0.2287  0.1078  0.0489
 5280SAP2    C164081  12.782  29.052   8.862 -0.1820 -0.1335  0.1661
 5280SAP2    C264082  12.626  29.253   8.971 -0.0074  0.2036 -0.1798
 5280SAP2    C364083  12.961  29.259   8.948  0.0159 -0.2157 -0.0387
 5280SAP2    C464084  12.789  29.188   8.927 -0.0007 -0.0007  0.6972
 5280SAP2   PO464085  12.614  28.942   8.594 -0.1522 -0.0690  0.0071
 5280SAP2    P464086  13.062  29.484   9.089  0.0574  0.0976  0.0312
 5280SAP2    P564087  12.548  29.273   9.211  0.1053  0.0877 -0.0058
 5280SAP2   GL164088  12.637  29.140   8.256  0.0509  0.0951 -0.2610
 5280SAP2   GL264089  12.762  28.958   8.144 -0.2253 -0.0306 -0.2074
 5280SAP2   D1A64090  12.345  29.506   8.119 -0.4245 -0.0166  0.1506
 5280SAP2   D2A64091  11.964  29.283   8.071  0.1516  0.0144 -0.0877
 5280SAP2   D3A64092  11.995  29.102   7.674 -0.0074  0.0728 -0.0551
 5280SAP2   D4A64093  11.758  29.405   7.432 -0.0693 -0.0146  0.0669
 5280SAP2   C5A64094  11.762  29.717   7.080 -0.1572 -0.1093  0.0589
 5280SAP2   C1B64095  12.587  29.166   7.787 -0.0220  0.1310  0.1528
 5280SAP2   C2B64096  12.423  29.355   7.391 -0.1070  0.1467 -0.1735
 5280SAP2   C3B64097  12.187  29.427   7.011  0.0773 -0.1521  0.0015
 5280SAP2   C4B64098  11.996  29.646   6.602 -0.0406 -0.2433  0.0220
 5281SAP2    C164099   1.237   5.021   8.672  0.0921 -0.2533 -0.1204
 5281SAP2    C264100   1.334   5.016   8.931 -0.2282 -0.0046  0.0115
 5281SAP2    C364101   1.277   4.745   8.741 -0.1446 -0.2005  0.2592
 5281SAP2    C464102   1.283   4.927   8.781 -0.0007 -0.0007  0.6972
 5281SAP2   PO464103   1.380   5.252   8.463  0.0203  0.3309 -0.1090
 5281SAP2    P464104   1.223   4.535   8.898  0.0481  0.1033 -0.2175
 5281SAP2    P564105   1.230   4.911   9.200  0.2152 -0.0778  0.0228
 5281SAP2   GL164106   1.476   5.057   8.292 -0.4989  0.0789 -0.1923
 5281SAP2   GL264107   1.243   4.855   8.250 -0.1756  0.0279 -0.0538
 5281SAP2   D1A64108   1.530   5.210   7.875 -0.4038  0.0580  0.1560
 5281SAP2   D2A64109   1.820   4.923   7.657 -0.1840  0.0580 -0.3476
 5281SAP2   D3A64110   2.148   5.055   7.319 -0.1177 -0.0324 -0.1169
 5281SAP2   D4A64111   2.436   4.766   7.474 -0.0435 -0.1523  0.0084
 5281SAP2   C5A64112   2.732   4.885   7.759 -0.0168  0.0512  0.0977
 5281SAP2   C1B64113   1.334   4.809   7.787 -0.1396 -0.1696 -0.2113
 5281SAP2   C2B64114   1.062   5.072   7.548  0.3187  0.0218  0.2335
 5281SAP2   C3B64115   0.973   5.005   7.101 -0.0863  0.1860  0.1578
 5281SAP2   C4B64116   0.693   4.826   6.777 -0.0974  0.1259 -0.1150
 5282SAP2    C164117  25.033   7.812   8.864  0.2331 -0.1032  0.2346
 5282SAP2    C264118  24.897   7.826   9.105  0.1282 -0.2838  0.1878
 5282SAP2    C364119  24.789   7.665   8.830  0.1184  0.1462 -0.0700
 5282SAP2    C464120  24.906   7.768   8.933 -0.0007 -0.0007  0.6972
 5282SAP2   PO464121  25.343   7.704   8.890 -0.0727 -0.2167  0.2935
 5282SAP2    P464122  24.545   7.458   8.942  0.0355 -0.1805  0.1617
 5282SAP2    P564123  24.736   7.785   9.276  0.0970  0.1253 -0.0217
 5282SAP2   GL164124  25.328   7.681   8.554 -0.0664  0.0202 -0.0405
 5282SAP2   GL264125  25.111   7.691   8.409 -0.0992 -0.1739  0.0003
 5282SAP2   D1A64126  25.344   7.237   8.346  0.2220 -0.2356 -0.0332
 5282SAP2   D2A64127  25.410   7.471   7.911  0.0314  0.0083 -0.0821
 5282SAP2   D3A64128  25.599   7.799   8.175  0.0692  0.0561 -0.0508
 5282SAP2   D4A64129  25.730   8.205   8.115  0.0228 -0.0971  0.0669
 5282SAP2   C5A64130  25.456   8.225   7.741  0.1546  0.2415  0.1284
 5282SAP2   C1B64131  25.121   8.009   8.080 -0.0377 -0.1773 -0.1704
 5282SAP2   C2B64132  25.250   8.498   8.110 -0.0463  0.0201  0.1470
 5282SAP2   C3B64133  25.381   8.742   7.719 -0.0415 -0.0082  0.2849
 5282SAP2   C4B64134  25.378   8.568   7.320  0.1496  0.0101  0.0482
 5283SAP2    C164135   9.723   2.100   8.760 -0.1014  0.0947  0.2283
 5283SAP2    C264136   9.770   2.233   8.998  0.0631  0.0722  0.2092
 5283SAP2    C364137  10.006   2.095   8.803 -0.0828 -0.0232  0.0985
 5283SAP2    C464138   9.833   2.143   8.854 -0.0007 -0.0007  0.6972
 5283SAP2   PO464139   9.497   2.374   8.606  0.1521  0.1769 -0.1770
 5283SAP2    P464140  10.194   2.227   9.039  0.1409  0.4453  0.0925
 5283SAP2    P564141   9.697   2.117   9.306  0.1582  0.0843 -0.1794
 5283SAP2   GL164142   9.377   2.200   8.368 -0.1397  0.0855  0.0369
 5283SAP2   GL264143   9.411   1.883   8.430 -0.0456 -0.0126 -0.0541
 5283SAP2   D1A64144   9.095   2.556   8.383 -0.2270 -0.1588 -0.1574
 5283SAP2   D2A64145   9.073   2.208   8.055 -0.2452 -0.0330  0.0708
 5283SAP2   D3A64146   8.738   2.259   7.738 -0.1518 -0.2127 -0.2097
 5283SAP2   D4A64147   8.772   2.250   7.285 -0.0025 -0.0612 -0.0017
 5283SAP2   C5A64148   8.727   1.947   6.945  0.0566 -0.2981 -0.3502
 5283SAP2   C1B64149   9.608   1.681   8.097 -0.2825 -0.3015  0.1123
 5283SAP2   C2B64150   9.930   1.542   7.827 -0.3535  0.2154  0.2211
 5283SAP2   C3B64151  10.361   1.394   7.891  0.1188  0.0373 -0.1381
 5283SAP2   C4B64152  10.804   1.465   7.626  0.1185 -0.1491 -0.0489
 5284SAP2    C164153  16.466   7.818   8.245  0.0052 -0.0589 -0.0540
 5284SAP2    C264154  16.375   7.733   8.493 -0.1838 -0.0158 -0.1072
 5284SAP2    C364155  16.585   7.990   8.441 -0.3930  0.1792 -0.0092
 5284SAP2    C464156  16.475   7.847   8.393 -0.0007 -0.0007  0.6972
 5284SAP2   PO464157  16.180   7.804   8.019  0.0419  0.0186  0.2023
 5284SAP2    P464158  16.673   8.063   8.726  0.0325 -0.1267  0.2248
 5284SAP2    P564159  16.446   7.575   8.786  0.0921  0.0286  0.4636
 5284SAP2   GL164160  16.265   7.689   7.746 -0.2147  0.1586 -0.1522
 5284SAP2   GL264161  16.307   7.970   7.586 -0.0438  0.0735 -0.2332
 5284SAP2   D1A64162  15.850   7.567   7.532 -0.0018 -0.0732  0.3460
 5284SAP2   D2A64163  15.885   8.019   7.372 -0.1280  0.1643  0.0911
 5284SAP2   D3A64164  15.937   8.209   7.792 -0.0822 -0.0438  0.4385
 5284SAP2   D4A64165  15.507   7.932   7.659 -0.0717 -0.0262 -0.1413
 5284SAP2   C5A64166  15.449   7.718   7.234  0.3069 -0.1017  0.2693
 5284SAP2   C1B64167  16.385   8.042   7.151 -0.0361 -0.1787  0.0443
 5284SAP2   C2B64168  16.383   8.105   6.736  0.2925 -0.2151 -0.0480
 5284SAP2   C3B64169  16.085   7.903   6.485 -0.0216  0.2980 -0.1737
 5284SAP2   C4B64170  15.613   8.039   6.344  0.0367  0.2685  0.0818
 5285SAP2    C164171   1.877  12.166   8.799  0.0305  0.0835 -0.0161
 5285SAP2    C264172   1.637  12.169   8.937  0.0914  0.0037  0.0929
 5285SAP2    C364173   1.919  12.017   9.041  0.1893  0.0971 -0.0340
 5285SAP2    C464174   1.811  12.117   8.926 -0.0007 -0.0007  0.6972
 5285SAP2   PO464175   1.978  12.483   8.687 -0.1073  0.0368  0.0140
 5285SAP2    P464176   1.777  11.966   9.309 -0.1342 -0.0484  0.0139
 5285SAP2    P564177   1.458  12.235   9.209  0.0031  0.2921  0.0196
 5285SAP2   GL164178   1.886  12.614   8.351  0.0128  0.0018 -0.1579
 5285SAP2   GL264179   1.767  12.547   8.111  0.0913 -0.1505 -0.0394
 5285SAP2   D1A64180   2.265  12.876   8.424  0.0647  0.0056  0.1455
 5285SAP2   D2A64181   2.353  13.079   7.948 -0.3128  0.0491 -0.1477
 5285SAP2   D3A64182   2.621  12.756   7.892  0.1296 -0.0768 -0.1687
 5285SAP2   D4A64183   2.317  12.481   8.034 -0.3541 -0.1480  0.1581
 5285SAP2   C5A64184   2.086  12.771   7.770 -0.0947  0.1477 -0.2108
 5285SAP2   C1B64185   1.916  12.276   7.849 -0.0666 -0.1171 -0.0066
 5285SAP2   C2B64186   2.112  12.284   7.474  0.1008  0.1582 -0.0988
 5285SAP2   C3B64187   2.337  12.264   7.077 -0.0774  0.4075 -0.0015
 5285SAP2   C4B64188   2.670  11.937   7.123 -0.1864  0.0715  0.0864
 5286SAP2    C164189  25.313  19.252   8.315 -0.1738  0.0550  0.4361
 5286SAP2    C264190  25.223  19.505   8.383  0.2902  0.4083 -0.1573
 5286SAP2    C364191  25.516  19.371   8.479  0.1533  0.1841 -0.0417
 5286SAP2    C464192  25.351  19.376   8.392 -0.0007 -0.0007  0.6972
 5286SAP2   PO464193  25.251  19.228   7.982  0.1842  0.1374  0.1325
 5286SAP2    P464194  25.574  19.605   8.675 -0.0135 -0.2693 -0.4934
 5286SAP2    P564195  25.098  19.517   8.679  0.0100  0.2371  0.0873
 5286SAP2   GL164196  25.059  19.361   7.723  0.1461  0.4388  0.1142
 5286SAP2   GL264197  25.228  19.203   7.560  0.2434  0.0923  0.3621
 5286SAP2   D1A64198  24.859  19.410   7.296  0.2186  0.1833 -0.0422
 5286SAP2   D2A64199  25.277  19.445   7.024  0.1383  0.2581  0.2848
 5286SAP2   D3A64200  25.561  19.162   6.860 -0.0485  0.0468 -0.0361
 5286SAP2   D4A64201  25.508  18.915   6.459 -0.3133 -0.4557  0.0745
 5286SAP2   C5A64202  25.805  18.703   6.289  0.0611  0.2312 -0.0698
 5286SAP2   C1B64203  25.148  18.988   7.116  0.1034  0.2716  0.0536
 5286SAP2   C2B64204  25.079  18.709   6.762 -0.2758  0.3356 -0.0104
 5286SAP2   C3B64205  25.131  18.629   6.309 -0.1205 -0.1261 -0.0840
 5286SAP2   C4B64206  25.406  18.853   5.947  0.1766  0.0584  0.0340
 5287SAP2    C164207  10.084  16.463   7.878 -0.1506 -0.0763  0.0317
 5287SAP2    C264208  10.187  16.663   8.039  0.0259  0.0277 -0.2054
 5287SAP2    C364209  10.212  16.334   8.099  0.1437  0.0635 -0.0520
 5287SAP2    C464210  10.161  16.486   8.005 -0.0007 -0.0007  0.6972
 5287SAP2   PO464211  10.134  16.546   7.555  0.0767  0.1003 -0.0778
 5287SAP2    P464212  10.426  16.372   8.359  0.0323  0.0877 -0.0157
 5287SAP2    P564213  10.191  16.772   8.288  0.1380  0.0288 -0.2492
 5287SAP2   GL164214  10.052  16.722   7.348  0.2716 -0.3970 -0.2767
 5287SAP2   GL264215  10.223  16.770   7.142  0.1249 -0.3621 -0.0732
 5287SAP2   D1A64216   9.720  16.767   7.078  0.0851 -0.0780  0.1634
 5287SAP2   D2A64217   9.764  16.375   6.820  0.3306  0.2534 -0.1424
 5287SAP2   D3A64218  10.213  16.346   6.717  0.1965 -0.1248  0.3390
 5287SAP2   D4A64219  10.177  16.130   6.287  0.1599  0.1778 -0.2200
 5287SAP2   C5A64220   9.888  16.450   6.324  0.0695 -0.0389  0.1232
 5287SAP2   C1B64221  10.089  16.828   6.671  0.0066  0.2833 -0.2722
 5287SAP2   C2B64222   9.925  16.954   6.315  0.3435  0.2151 -0.1517
 5287SAP2   C3B64223   9.611  17.059   6.011 -0.3158 -0.0049 -0.2777
 5287SAP2   C4B64224   9.609  17.457   5.800  0.1359  0.2030 -0.0471
 5288SAP2    C164225   0.267  17.949   8.399 -0.0660 -0.0755  0.1240
 5288SAP2    C264226   0.139  17.726   8.501 -0.3232  0.0372  0.0580
 5288SAP2    C364227   0.412  17.871   8.633 -0.1395 -0.3253  0.0887
 5288SAP2    C464228   0.273  17.849   8.511 -0.0007 -0.0007  0.6972
 5288SAP2   PO464229   0.041  18.131   8.269  0.0667 -0.1325 -0.0433
 5288SAP2    P464230   0.485  17.796   8.902 -0.1279  0.1306  0.0172
 5288SAP2    P564231   0.233  17.452   8.603  0.0964  0.0462  0.0079
 5288SAP2   GL164232  -0.070  18.163   7.968 -0.0174  0.4082  0.2501
 5288SAP2   GL264233   0.121  17.947   7.797  0.0246  0.0078 -0.0871
 5288SAP2   D1A64234  -0.102  18.516   7.678 -0.0287 -0.1518 -0.1655
 5288SAP2   D2A64235   0.268  18.862   7.767  0.0248  0.0263 -0.1981
 5288SAP2   D3A64236   0.063  18.995   7.403 -0.2370 -0.0410  0.1523
 5288SAP2   D4A64237  -0.384  18.937   7.360 -0.2683 -0.1359  0.1926
 5288SAP2   C5A64238  -0.299  19.391   7.597 -0.1492 -0.2144 -0.0147
 5288SAP2   C1B64239   0.162  18.141   7.406  0.2667  0.1394  0.2508
 5288SAP2   C2B64240  -0.029  18.137   6.965 -0.4993 -0.0767 -0.3846
 5288SAP2   C3B64241  -0.396  18.313   6.695  0.4852  0.0936 -0.1420
 5288SAP2   C4B64242  -0.654  18.375   6.322 -0.0600 -0.0072  0.3726
 5289SAP2    C164243   6.767  26.197   8.210 -0.3241 -0.3472  0.2122
 5289SAP2    C264244   6.624  26.423   8.283 -0.0223 -0.0135 -0.1762
 5289SAP2    C364245   6.721  26.178   8.492 -0.1831  0.3127  0.2964
 5289SAP2    C464246   6.704  26.266   8.328 -0.0007 -0.0007  0.6972
 5289SAP2   PO464247   6.937  26.320   8.003 -0.0848 -0.3173  0.1979
 5289SAP2    P464248   6.596  26.238   8.753  0.2013  0.1890 -0.0802
 5289SAP2    P564249   6.455  26.594   8.445  0.1874 -0.0366  0.3877
 5289SAP2   GL164250   6.719  26.419   7.704 -0.1985  0.1646 -0.0340
 5289SAP2   GL264251   6.772  26.666   7.718  0.0543 -0.0709 -0.1833
 5289SAP2   D1A64252   6.862  26.312   7.252 -0.1533  0.0180  0.0618
 5289SAP2   D2A64253   6.647  26.064   6.943 -0.0583  0.0906 -0.2514
 5289SAP2   D3A64254   6.610  26.071   6.451 -0.2138 -0.1627 -0.1751
 5289SAP2   D4A64255   6.992  25.869   6.390  0.3855 -0.1544 -0.2657
 5289SAP2   C5A64256   7.140  26.132   6.037 -0.2548  0.1297 -0.0075
 5289SAP2   C1B64257   6.927  26.878   7.340 -0.1723 -0.0344 -0.3190
 5289SAP2   C2B64258   7.203  26.803   6.959 -0.0969  0.1801 -0.0003
 5289SAP2   C3B64259   7.183  27.034   6.565 -0.1723  0.1027  0.2167
 5289SAP2   C4B64260   7.226  27.307   6.210 -0.0525  0.0177 -0.3267
 5290POPC   NC364261  14.213  16.570   3.535 -0.2240 -0.2428 -0.0461
 5290POPC   PO464262  14.139  16.956   3.476 -0.1696 -0.0970  0.1598
 5290POPC   GL164263  14.085  16.858   3.901  0.2962  0.0379 -0.0383
 5290POPC   GL264264  13.878  17.075   3.865 -0.3016  0.0639 -0.1158
 5290POPC   C1A64265  14.226  16.981   4.337 -0.0792  0.3581 -0.0397
 5290POPC   D2A64266  14.469  17.355   4.470 -0.1797  0.0046  0.0308
 5290POPC   C3A64267  14.391  17.539   4.864  0.4320 -0.1034  0.1785
 5290POPC   C4A64268  14.404  17.753   5.285 -0.2879  0.0295 -0.0182
 5290POPC   C1B64269  13.737  17.226   4.258  0.2603 -0.0806  0.0928
 5290POPC   C2B64270  13.382  17.179   4.637  0.2102  0.0701  0.1441
 5290POPC   C3B64271  13.002  17.353   4.865  0.0429 -0.0615 -0.0621
 5290POPC   C4B64272  13.072  17.322   5.301  0.0242 -0.1957 -0.0355
 5291POPC   NC364273   1.741  18.876   3.009 -0.0558 -0.0673 -0.0598
 5291POPC   PO464274   1.591  18.987   3.330  0.1419 -0.1190  0.0028
 5291POPC   GL164275   1.802  19.001   3.607  0.0762 -0.0943  0.1318
 5291POPC   GL264276   1.914  19.245   3.821  0.1830  0.2088 -0.3675
 5291POPC   C1A64277   1.815  18.776   4.003 -0.1981  0.2874  0.0985
 5291POPC   D2A64278   1.897  18.661   4.460 -0.0578  0.0494  0.1181
 5291POPC   C3A64279   1.523  18.811   4.651 -0.0108 -0.1042 -0.0322
 5291POPC   C4A64280   1.140  18.807   4.968 -0.0529 -0.0133 -0.1824
 5291POPC   C1B64281   2.246  19.052   4.126 -0.0099  0.2784  0.0042
 5291POPC   C2B64282   2.403  18.846   4.542  0.0654 -0.0228 -0.0751
 5291POPC   C3B64283   2.652  18.730   4.851  0.2141 -0.0762 -0.0121
 5291POPC   C4B64284   2.923  18.863   5.193  0.0291  0.0558 -0.0562
 5292POPC   NC364285  28.195  28.296   3.179 -0.0246 -0.1169  0.3242
 5292POPC   PO464286  28.286  28.017   3.434 -0.1985 -0.3396 -0.0257
 5292POPC   GL164287  28.097  28.213   3.731 -0.0896 -0.1636  0.4580
 5292POPC   GL264288  28.132  28.045   3.968  0.0336 -0.3351  0.0882
 5292POPC   C1A64289  28.148  28.662   3.831  0.1657  0.0882 -0.2173
 5292POPC   D2A64290  28.045  29.100   3.925  0.0563 -0.0438  0.1283
 5292POPC   C3A64291  28.060  29.126   4.397  0.0697 -0.2257 -0.1274
 5292POPC   C4A64292  27.732  29.010   4.668 -0.1484 -0.1093 -0.0942
 5292POPC   C1B64293  28.327  27.977   4.368 -0.1365 -0.1781 -0.0916
 5292POPC   C2B64294  28.641  28.295   4.634  0.0124  0.0182  0.0479
 5292POPC   C3B64295  28.636  28.487   5.048 -0.0825  0.3286 -0.3228
 5292POPC   C4B64296  28.965  28.535   5.397 -0.0494 -0.0833  0.3526
 5293POPC   NC364297  14.012  17.587   3.618 -0.0111 -0.0400  0.0186
 5293POPC   PO464298  14.317  17.859   3.644  0.0013 -0.2990  0.2439
 5293POPC   GL164299  14.535  17.952   3.983  0.0370 -0.1173  0.1338
 5293POPC   GL264300  14.589  17.740   4.143 -0.0065  0.1659 -0.1308
 5293POPC   C1A64301  14.401  18.188   4.381 -0.1080 -0.1902 -0.0934
 5293POPC   D2A64302  14.598  18.380   4.702 -0.0736 -0.0486 -0.3004
 5293POPC   C3A64303  14.675  18.308   5.152  0.2342  0.1654 -0.2280
 5293POPC   C4A64304  14.402  18.247   5.529  0.3021 -0.0546 -0.0446
 5293POPC   C1B64305  14.826  17.939   4.462  0.1089 -0.2739 -0.0640
 5293POPC   C2B64306  14.728  17.886   4.955  0.1152  0.0141 -0.1846
 5293POPC   C3B64307  14.858  17.958   5.421 -0.0187  0.0541  0.1916
 5293POPC   C4B64308  14.942  18.402   5.568 -0.0645  0.0145 -0.1546
 5294POPC   NC364309  19.242  26.058   4.105  0.0479 -0.4492  0.0896
 5294POPC   PO464310  19.205  25.661   4.062 -0.2742 -0.0057 -0.0504
 5294POPC   GL164311  19.337  25.756   4.415 -0.1307  0.0233 -0.2945
 5294POPC   GL264312  19.592  25.781   4.499 -0.1623 -0.1687 -0.0141
 5294POPC   C1A64313  19.251  25.719   4.859  0.1159 -0.0833  0.0126
 5294POPC   D2A64314  18.988  25.894   5.149 -0.0140  0.0343  0.0200
 5294POPC   C3A64315  18.616  26.068   4.947 -0.0712 -0.0325  0.0333
 5294POPC   C4A64316  18.228  26.285   5.056 -0.0565 -0.1028 -0.3252
 5294POPC   C1B64317  19.713  25.754   4.892 -0.1434  0.2303  0.3272
 5294POPC   C2B64318  19.567  25.651   5.272  0.1270  0.1180  0.0915
 5294POPC   C3B64319  19.775  25.488   5.718  0.0805  0.1176  0.0550
 5294POPC   C4B64320  19.917  25.444   6.130  0.2053 -0.0334 -0.2186
 5295POPC   NC364321   5.173   7.193   3.838 -0.2190 -0.2879  0.0823
 5295POPC   PO464322   5.486   7.191   4.057 -0.1418 -0.1367 -0.2712
 5295POPC   GL164323   5.539   7.259   4.382 -0.2404 -0.1266  0.0875
 5295POPC   GL264324   5.615   7.519   4.440  0.0959  0.0898  0.0502
 5295POPC   C1A64325   5.658   6.968   4.731 -0.1621 -0.0188  0.0113
 5295POPC   D2A64326   5.472   6.736   5.050  0.2707 -0.1312 -0.1728
 5295POPC   C3A64327   5.764   6.691   5.441 -0.5086 -0.5862  0.0383
 5295POPC   C4A64328   5.889   6.520   5.873 -0.1318 -0.3648  0.2278
 5295POPC   C1B64329   5.611   7.614   4.862  0.0065 -0.0350  0.0674
 5295POPC   C2B64330   5.631   7.634   5.289  0.1493  0.1890  0.0063
 5295POPC   C3B64331   5.780   7.567   5.719 -0.0019 -0.3426  0.2552
 5295POPC   C4B64332   5.697   7.803   6.116  0.2621  0.3737 -0.2723
 5296POPC   NC364333   8.282  12.481   3.717 -0.3028  0.1899 -0.0596
 5296POPC   PO464334   8.016  12.274   3.563 -0.0652 -0.1549  0.1844
 5296POPC   GL164335   8.034  12.202   3.975  0.1692  0.0839  0.4452
 5296POPC   GL264336   8.298  11.960   3.886 -0.2769  0.1231 -0.2604
 5296POPC   C1A64337   7.760  12.138   4.315  0.1518 -0.0251  0.0401
 5296POPC   D2A64338   7.451  12.043   4.657 -0.1567  0.2725 -0.1712
 5296POPC   C3A64339   7.220  11.925   5.092 -0.0425  0.1292  0.0518
 5296POPC   C4A64340   7.054  11.853   5.522 -0.0786 -0.0322  0.0481
 5296POPC   C1B64341   8.211  11.884   4.353 -0.0534  0.0019 -0.0462
 5296POPC   C2B64342   8.336  11.818   4.793 -0.3312 -0.1876 -0.1303
 5296POPC   C3B64343   8.195  11.878   5.209  0.4399  0.2790  0.0705
 5296POPC   C4B64344   8.081  11.963   5.610 -0.1013 -0.0195 -0.1409
 5297POPC   NC364345  13.356  26.387   3.490  0.0994 -0.4818  0.2190
 5297POPC   PO464346  13.275  26.710   3.681  0.0261 -0.0661  0.1011
 5297POPC   GL164347  13.083  26.686   4.055  0.1337 -0.0925 -0.1027
 5297POPC   GL264348  12.806  26.562   4.144  0.0770  0.0907 -0.2370
 5297POPC   C1A64349  13.089  26.907   4.426  0.2085  0.0635 -0.1392
 5297POPC   D2A64350  13.122  27.139   4.850  0.0472 -0.1028 -0.0333
 5297POPC   C3A64351  13.242  26.961   5.310  0.0919  0.0862 -0.0166
 5297POPC   C4A64352  13.493  26.950   5.725 -0.2276 -0.0413 -0.0430
 5297POPC   C1B64353  12.895  26.445   4.592 -0.2330  0.2260 -0.3112
 5297POPC   C2B64354  13.040  26.594   4.982 -0.0753 -0.1062  0.1752
 5297POPC   C3B64355  13.127  26.443   5.419 -0.3914 -0.0782  0.1912
 5297POPC   C4B64356  13.031  26.070   5.717 -0.2377 -0.3381  0.1537
 5298POPC   NC364357  20.224  12.509   3.245  0.3023  0.0958  0.2316
 5298POPC   PO464358  20.445  12.357   3.574 -0.2043 -0.0582 -0.1794
 5298POPC   GL164359  20.343  12.239   3.979  0.0852  0.0483  0.1063
 5298POPC   GL264360  20.058  12.093   4.128 -0.0807  0.0686  0.1693
 5298POPC   C1A64361  20.408  12.451   4.377 -0.0952 -0.2074  0.0008
 5298POPC   D2A64362  20.192  12.557   4.728  0.1324  0.3480  0.0651
 5298POPC   C3A64363  20.502  12.458   5.031  0.1085 -0.1179  0.1202
 5298POPC   C4A64364  20.773  12.441   5.387  0.0903 -0.0192 -0.0240
 5298POPC   C1B64365  20.100  12.076   4.601 -0.1467  0.3701  0.5289
 5298POPC   C2B64366  20.062  12.082   5.096 -0.0558  0.1890 -0.0272
 5298POPC   C3B64367  20.106  11.906   5.476  0.3122 -0.1575  0.3486
 5298POPC   C4B64368  19.823  11.750   5.812 -0.3291  0.1353  0.3239
 5299POPC   NC364369   2.949  28.570   3.993 -0.0624  0.0147  0.0135
 5299POPC   PO464370   3.042  28.941   3.837  0.0317 -0.0676  0.0602
 5299POPC   GL164371   3.142  29.011   4.203  0.2327  0.0862 -0.2191
 5299POPC   GL264372   3.355  29.169   4.106 -0.2566 -0.2876 -0.2320
 5299POPC   C1A64373   2.939  28.920   4.570  0.0863 -0.3383  0.1197
 5299POPC   D2A64374   2.856  28.631   4.913 -0.1162 -0.3382 -0.0868
 5299POPC   C3A64375   2.663  28.861   5.271  0.1206  0.2905  0.0064
 5299POPC   C4A64376   2.277  29.121   5.287  0.0985 -0.3133 -0.1916
 5299POPC   C1B64377   3.380  29.201   4.572 -0.1177  0.0425 -0.1196
 5299POPC   C2B64378   3.276  29.384   4.955  0.4174 -0.0340 -0.4477
 5299POPC   C3B64379   3.201  29.722   5.280 -0.0079 -0.0820 -0.0712
 5299POPC   C4B64380   3.419  29.674   5.726  0.0010 -0.1214 -0.2890
 5300POPC   NC364381   7.206  22.302   3.914 -0.2578  0.2078  0.2218
 5300POPC   PO464382   7.106  22.043   3.633  0.0450  0.3227 -0.1216
 5300POPC   GL164383   6.806  21.854   3.886  0.4135 -0.1912  0.2172
 5300POPC   GL264384   6.760  22.125   4.028 -0.2311  0.1106 -0.0041
 5300POPC   C1A64385   6.725  21.563   4.277  0.1959 -0.2808 -0.0543
 5300POPC   D2A64386   6.755  21.202   4.536  0.3143 -0.0763  0.2663
 5300POPC   C3A64387   6.807  21.109   5.013 -0.1912  0.1531  0.1673
 5300POPC   C4A64388   6.995  21.038   5.413  0.1056 -0.2136 -0.2737
 5300POPC   C1B64389   6.462  22.161   4.416 -0.2760 -0.0150  0.1542
 5300POPC   C2B64390   6.277  22.058   4.816 -0.2249 -0.0950 -0.0305
 5300POPC   C3B64391   6.206  22.214   5.258  0.0922  0.0183  0.1484
 5300POPC   C4B64392   6.332  22.215   5.736  0.2226  0.0782 -0.0629
 5301POPC   NC364393   8.933  12.484   4.000 -0.2149  0.1862 -0.0654
 5301POPC   PO464394   8.717  12.219   3.951  0.0015  0.1668  0.0934
 5301POPC   GL164395   8.500  12.246   4.275  0.1475  0.1089 -0.2315
 5301POPC   GL264396   8.624  12.103   4.518 -0.0964  0.1205 -0.0653
 5301POPC   C1A64397   8.199  12.315   4.629 -0.1948 -0.1094 -0.1023
 5301POPC   D2A64398   7.889  12.122   4.888 -0.1129  0.1012 -0.2214
 5301POPC   C3A64399   7.681  12.191   5.242  0.3416  0.1497  0.0840
 5301POPC   C4A64400   7.586  12.057   5.686 -0.0799  0.1419 -0.3698
 5301POPC   C1B64401   8.738  12.350   4.912 -0.3067 -0.0993 -0.2174
 5301POPC   C2B64402   8.653  12.611   5.271 -0.3276  0.0062 -0.3028
 5301POPC   C3B64403   8.474  12.448   5.631  0.1767 -0.0658  0.1176
 5301POPC   C4B64404   8.433  12.416   6.086  0.1423  0.1025  0.0482
 5302POPC   NC364405   6.862  13.475   2.624  0.0142 -0.0021  0.0182
 5302POPC   PO464406   6.654  13.304   2.906  0.1039 -0.1749 -0.0785
 5302POPC   GL164407   6.722  13.066   3.168  0.0085 -0.0427 -0.0178
 5302POPC   GL264408   6.921  13.057   3.329 -0.1792 -0.1465 -0.0387
 5302POPC   C1A64409   6.387  12.909   3.469  0.0687  0.0579  0.0528
 5302POPC   D2A64410   6.122  12.627   3.701  0.0701 -0.0564 -0.3443
 5302POPC   C3A64411   6.018  12.278   3.455 -0.1472 -0.1083  0.2581
 5302POPC   C4A64412   5.850  12.043   3.060  0.0199  0.1561 -0.1263
 5302POPC   C1B64413   6.915  12.650   3.493 -0.0811 -0.0605  0.3795
 5302POPC   C2B64414   6.557  12.533   3.732 -0.0290  0.1137  0.2747
 5302POPC   C3B64415   6.234  12.187   3.927 -0.2973  0.2729 -0.1052
 5302POPC   C4B64416   6.046  11.804   4.013  0.1651 -0.2835 -0.0252
 5303POPC   NC364417  13.011   9.999   3.240 -0.0829 -0.1746 -0.1928
 5303POPC   PO464418  13.051  10.401   3.266 -0.0204 -0.3045 -0.2533
 5303POPC   GL164419  12.888  10.336   3.703 -0.4218 -0.1102 -0.3259
 5303POPC   GL264420  12.739  10.590   3.648  0.1878  0.1374  0.0717
 5303POPC   C1A64421  13.024  10.203   4.135 -0.4954 -0.1943 -0.2917
 5303POPC   D2A64422  13.193  10.139   4.549  0.0564  0.0564 -0.0993
 5303POPC   C3A64423  13.362  10.203   4.955 -0.0540  0.1374  0.1447
 5303POPC   C4A64424  13.428  10.508   5.323  0.6336  0.0802  0.1861
 5303POPC   C1B64425  12.929  10.721   3.978  0.0559 -0.0231  0.0095
 5303POPC   C2B64426  13.145  10.726   4.389 -0.0060  0.2558 -0.2994
 5303POPC   C3B64427  13.251  10.659   4.833 -0.0440  0.0798  0.1806
 5303POPC   C4B64428  13.330  10.994   5.198  0.1589  0.1759 -0.0868
 5304POPC   NC364429   6.028   9.558   3.891  0.1450 -0.1268 -0.1536
 5304POPC   PO464430   6.354   9.402   3.940  0.1278 -0.0380  0.1271
 5304POPC   GL164431   6.216   9.362   4.344 -0.1316 -0.1184 -0.0677
 5304POPC   GL264432   6.465   9.202   4.504 -0.1812 -0.0343 -0.4295
 5304POPC   C1A64433   5.925   9.617   4.552  0.0823  0.4768 -0.1667
 5304POPC   D2A64434   5.609   9.942   4.731  0.0017 -0.2546 -0.1985
 5304POPC   C3A64435   5.122   9.860   4.815  0.1765 -0.1147 -0.0155
 5304POPC   C4A64436   4.728   9.709   4.575 -0.1492 -0.0288  0.2713
 5304POPC   C1B64437   6.252   9.429   4.879 -0.3285  0.3696 -0.0467
 5304POPC   C2B64438   5.929   9.527   5.166 -0.0364 -0.1806  0.2144
 5304POPC   C3B64439   5.757   9.778   5.518 -0.2654  0.2148  0.2663
 5304POPC   C4B64440   5.557   9.976   5.900  0.2770 -0.0819 -0.0692
 5305POPC   NC364441   3.014   3.766   3.615  0.0300 -0.1931  0.0181
 5305POPC   PO464442   3.261   3.471   3.700  0.1937 -0.0210 -0.0188
 5305POPC   GL164443   3.205   3.484   4.060  0.3861 -0.0450 -0.3175
 5305POPC   GL264444   3.037   3.711   4.174  0.0889  0.4133 -0.1703
 5305POPC   C1A64445   3.337   3.371   4.491  0.1348 -0.0954  0.0864
 5305POPC   D2A64446   3.796   3.320   4.639  0.0449  0.0277  0.1313
 5305POPC   C3A64447   3.816   3.073   5.040  0.1188  0.5302 -0.1940
 5305POPC   C4A64448   3.800   2.838   5.500  0.1626 -0.0807  0.1603
 5305POPC   C1B64449   2.997   3.734   4.659 -0.0826 -0.0478 -0.1675
 5305POPC   C2B64450   3.040   3.795   5.138 -0.2382  0.2756  0.3210
 5305POPC   C3B64451   3.242   3.637   5.530 -0.3219  0.2826  0.1362
 5305POPC   C4B64452   3.512   3.492   5.916  0.0590 -0.4695 -0.0257
 5306POPC   NC364453  31.112  30.958   4.062  0.0512 -0.3466  0.0476
 5306POPC   PO464454  31.396  31.025   3.779 -0.1368  0.3183  0.5070
 5306POPC   GL164455  31.468  31.238   4.138  0.2876  0.1261  0.1253
 5306POPC   GL264456  31.640  31.475   4.113  0.2177 -0.0009 -0.0068
 5306POPC   C1A64457  31.216  31.164   4.535 -0.0992  0.2457 -0.1355
 5306POPC   D2A64458  31.228  31.153   4.989 -0.1661  0.0431  0.0479
 5306POPC   C3A64459  30.978  30.890   5.328 -0.2893 -0.3284  0.0346
 5306POPC   C4A64460  30.635  30.666   5.576  0.1249 -0.2491 -0.0814
 5306POPC   C1B64461  31.588  31.541   4.562  0.3180  0.0364 -0.1603
 5306POPC   C2B64462  31.408  31.631   4.988 -0.2965 -0.0850 -0.1378
 5306POPC   C3B64463  31.403  31.687   5.431  0.0297 -0.2268 -0.3232
 5306POPC   C4B64464  31.711  31.588   5.722  0.0243 -0.2163 -0.6317
 5307POPC   NC364465   9.141  25.854   3.431 -0.0128 -0.2099 -0.0848
 5307POPC   PO464466   9.513  25.828   3.494 -0.0334  0.2315 -0.0294
 5307POPC   GL164467   9.331  25.771   3.864  0.3537  0.0705 -0.2402
 5307POPC   GL264468   9.599  25.715   4.004 -0.0263  0.2147  0.0460
 5307POPC   C1A64469   9.121  25.945   4.205  0.1532  0.1347 -0.4666
 5307POPC   D2A64470   8.870  26.171   4.546  0.1203  0.2067 -0.0127
 5307POPC   C3A64471   8.765  25.958   4.904  0.0321  0.1958 -0.0462
 5307POPC   C4A64472   8.809  26.122   5.315 -0.1890 -0.1914 -0.2459
 5307POPC   C1B64473   9.496  25.728   4.438 -0.1887  0.0022 -0.1762
 5307POPC   C2B64474   9.317  25.938   4.857 -0.0578  0.1437  0.1468
 5307POPC   C3B64475   9.280  25.932   5.327 -0.1571 -0.2914 -0.0952
 5307POPC   C4B64476   9.054  26.059   5.762  0.1787 -0.0226  0.0219
 5308POPC   NC364477  30.968  17.241   3.370 -0.0927  0.1750  0.3042
 5308POPC   PO464478  31.222  17.028   3.542  0.1124 -0.0336 -0.0914
 5308POPC   GL164479  31.093  16.961   3.904  0.0309  0.3897 -0.0279
 5308POPC   GL264480  31.256  16.973   4.086 -0.2534 -0.1974 -0.2106
 5308POPC   C1A64481  30.869  17.249   4.238 -0.0342  0.2656  0.1023
 5308POPC   D2A64482  30.835  17.562   4.536  0.2186  0.1241 -0.1802
 5308POPC   C3A64483  30.528  17.732   4.810 -0.2601 -0.3047  0.2617
 5308POPC   C4A64484  30.586  17.896   5.235 -0.0850  0.1859  0.1401
 5308POPC   C1B64485  31.488  16.978   4.471 -0.1828  0.3740  0.2319
 5308POPC   C2B64486  31.530  16.878   4.922  0.1259 -0.2619 -0.1395
 5308POPC   C3B64487  31.622  16.694   5.332 -0.4852  0.0512 -0.0167
 5308POPC   C4B64488  31.510  16.399   5.671 -0.1476  0.0394 -0.0893
 5309POPC   NC364489  21.210   0.782   3.428  0.0414 -0.4572  0.3447
 5309POPC   PO464490  21.583   0.846   3.364  0.0317 -0.0541 -0.1368
 5309POPC   GL164491  21.628   0.807   3.701  0.4508 -0.1603  0.0963
 5309POPC   GL264492  21.413   0.649   3.847 -0.0462 -0.0672  0.1731
 5309POPC   C1A64493  21.732   0.703   4.168 -0.0169  0.0569 -0.0696
 5309POPC   D2A64494  21.751   0.381   4.501 -0.0945 -0.0340  0.3547
 5309POPC   C3A64495  21.850   0.275   4.916  0.1139  0.0083  0.3092
 5309POPC   C4A64496  21.801   0.187   5.382  0.0010  0.0546  0.1450
 5309POPC   C1B64497  21.279   0.464   4.244 -0.1062 -0.0988 -0.2749
 5309POPC   C2B64498  21.246   0.042   4.345 -0.0757 -0.1472 -0.1730
 5309POPC   C3B64499  21.552  -0.154   4.612 -0.1625  0.0121 -0.0162
 5309POPC   C4B64500  21.656  -0.186   5.003  0.1522  0.1062 -0.2245
 5310POPC   NC364501  23.875  27.036   3.895  0.0717 -0.0866  0.4629
 5310POPC   PO464502  24.232  27.192   3.779 -0.1412  0.4003 -0.3119
 5310POPC   GL164503  24.277  27.251   4.160  0.1063  0.0951 -0.1552
 5310POPC   GL264504  24.269  26.973   4.298  0.0604  0.1273  0.2456
 5310POPC   C1A64505  24.547  27.261   4.545 -0.0225  0.1482 -0.0422
 5310POPC   D2A64506  24.814  27.051   4.909 -0.0920 -0.1337 -0.1169
 5310POPC   C3A64507  25.092  26.968   5.191 -0.1482 -0.0533 -0.1539
 5310POPC   C4A64508  25.352  26.870   5.592  0.0693  0.1697  0.1931
 5310POPC   C1B64509  24.221  26.614   4.571  0.1851  0.1828 -0.2826
 5310POPC   C2B64510  24.001  26.518   4.984 -0.1042  0.1950  0.3190
 5310POPC   C3B64511  23.931  26.528   5.410  0.0465  0.2727  0.0005
 5310POPC   C4B64512  23.706  26.242   5.650  0.1212  0.1343 -0.1360
 5311POPC   NC364513  13.306  22.909   4.122 -0.2676 -0.0336 -0.1222
 5311POPC   PO464514  13.419  23.257   4.035 -0.0836 -0.0462  0.1334
 5311POPC   GL164515  13.751  23.227   4.289 -0.0623 -0.1608 -0.0946
 5311POPC   GL264516  13.707  22.948   4.405  0.1475  0.2580  0.2602
 5311POPC   C1A64517  14.091  23.086   4.616  0.0302  0.1184  0.2580
 5311POPC   D2A64518  14.270  23.051   5.050  0.1366  0.3185  0.2081
 5311POPC   C3A64519  14.296  23.326   5.420  0.2729  0.1256  0.0965
 5311POPC   C4A64520  14.106  23.111   5.809  0.3645  0.4049 -0.0602
 5311POPC   C1B64521  13.795  22.798   4.814 -0.0006 -0.2848 -0.0586
 5311POPC   C2B64522  13.939  22.697   5.257 -0.0970  0.1715 -0.1824
 5311POPC   C3B64523  14.336  22.784   5.521  0.1695 -0.2600  0.1328
 5311POPC   C4B64524  14.598  22.437   5.681  0.2769  0.4096 -0.0835
 5312POPC   NC364525  16.600  13.138   3.937 -0.0926 -0.3408  0.1166
 5312POPC   PO464526  16.313  13.374   3.955 -0.1386 -0.5076 -0.0228
 5312POPC   GL164527  16.119  13.427   4.343 -0.0643  0.0585  0.0403
 5312POPC   GL264528  16.284  13.246   4.504 -0.0047  0.1246 -0.2562
 5312POPC   C1A64529  15.958  13.626   4.682  0.0213 -0.0720 -0.0353
 5312POPC   D2A64530  15.865  13.709   5.088 -0.4847 -0.1533 -0.1674
 5312POPC   C3A64531  16.071  13.608   5.474  0.0480  0.0978  0.1053
 5312POPC   C4A64532  16.122  13.386   5.906 -0.2670  0.0909  0.2057
 5312POPC   C1B64533  16.241  13.266   4.943  0.0695  0.0431  0.1725
 5312POPC   C2B64534  16.235  13.172   5.383 -0.0323  0.0531  0.1581
 5312POPC   C3B64535  15.880  12.981   5.604 -0.1114 -0.1309 -0.0589
 5312POPC   C4B64536  15.612  12.665   5.834 -0.0464 -0.2367 -0.0185
 5313POPC   NC364537   5.416  28.404   3.165 -0.3689 -0.2763 -0.0600
 5313POPC   PO464538   5.721  28.259   3.366  0.1641  0.1469 -0.0233
 5313POPC   GL164539   5.629  28.295   3.863 -0.2457  0.0201 -0.2253
 5313POPC   GL264540   5.762  28.545   3.963  0.0580  0.0261  0.2625
 5313POPC   C1A64541   5.243  28.365   4.113 -0.0727 -0.0972 -0.1201
 5313POPC   D2A64542   5.104  28.343   4.493 -0.2787 -0.1184 -0.0373
 5313POPC   C3A64543   4.806  28.542   4.759 -0.0520  0.1593  0.1932
 5313POPC   C4A64544   4.655  28.508   5.136 -0.1448 -0.0832 -0.0201
 5313POPC   C1B64545   5.605  28.651   4.357 -0.1506  0.1830 -0.1370
 5313POPC   C2B64546   5.490  28.750   4.798 -0.1282 -0.3110 -0.2059
 5313POPC   C3B64547   5.480  29.012   5.180 -0.1520 -0.1524 -0.0715
 5313POPC   C4B64548   5.706  29.411   5.419 -0.2995  0.1607 -0.1997
 5314POPC   NC364549  10.609   5.029   3.377 -0.1717 -0.0125  0.1915
 5314POPC   PO464550  10.604   4.760   3.619 -0.0850  0.3973 -0.1494
 5314POPC   GL164551  10.736   4.859   3.921 -0.0616 -0.2754  0.1478
 5314POPC   GL264552  10.547   4.739   4.178 -0.3194 -0.0407  0.0261
 5314POPC   C1A64553  10.766   5.210   4.205 -0.1239  0.0238  0.6816
 5314POPC   D2A64554  10.753   5.502   4.532  0.3150  0.0100  0.0795
 5314POPC   C3A64555  10.823   5.329   4.917  0.0548  0.5573 -0.0580
 5314POPC   C4A64556  11.066   5.257   5.302  0.0153  0.1824 -0.1252
 5314POPC   C1B64557  10.284   4.465   4.460  0.3283 -0.1614  0.1292
 5314POPC   C2B64558   9.969   4.359   4.723  0.0923  0.0422 -0.0157
 5314POPC   C3B64559   9.693   4.562   5.046  0.0400  0.0724  0.2349
 5314POPC   C4B64560   9.434   4.680   5.404  0.0131 -0.0382  0.1855
 5315POPC   NC364561  13.803  28.978   2.970  0.1961 -0.4986 -0.3006
 5315POPC   PO464562  14.067  29.028   3.244 -0.0720 -0.1669 -0.2402
 5315POPC   GL164563  14.202  29.169   3.573  0.0652  0.1483  0.4565
 5315POPC   GL264564  14.478  29.313   3.635  0.2903 -0.1884  0.0304
 5315POPC   C1A64565  14.307  28.950   3.973 -0.2286  0.1180 -0.0745
 5315POPC   D2A64566  14.530  29.131   4.417 -0.0320  0.3000  0.4981
 5315POPC   C3A64567  14.300  28.915   4.833  0.2540 -0.2236 -0.0703
 5315POPC   C4A64568  14.231  28.770   5.245  0.3068 -0.1624 -0.2619
 5315POPC   C1B64569  14.715  29.325   4.021  0.0052 -0.2418 -0.1544
 5315POPC   C2B64570  14.986  29.390   4.384  0.0292  0.0208 -0.2855
 5315POPC   C3B64571  15.086  29.452   4.867 -0.0210 -0.2042  0.1658
 5315POPC   C4B64572  14.840  29.356   5.275 -0.1210 -0.1918  0.1658
 5316POPC   NC364573   9.890   0.221   4.204 -0.0972 -0.0829 -0.3208
 5316POPC   PO464574   9.778   0.539   4.006  0.1908  0.2190 -0.1391
 5316POPC   GL164575   9.634   0.525   4.453 -0.0227 -0.5209  0.0450
 5316POPC   GL264576   9.491   0.296   4.485  0.1580  0.0341  0.0869
 5316POPC   C1A64577   9.741   0.804   4.819 -0.0362  0.0662 -0.2563
 5316POPC   D2A64578   9.792   1.016   5.244  0.2680  0.1140  0.1709
 5316POPC   C3A64579   9.931   0.947   5.715  0.2608  0.2760 -0.3114
 5316POPC   C4A64580  10.119   0.863   6.127  0.2096  0.1977  0.1389
 5316POPC   C1B64581   9.532  -0.133   4.705  0.1464 -0.0007 -0.2476
 5316POPC   C2B64582   9.513  -0.251   5.139  0.1788  0.1083 -0.0804
 5316POPC   C3B64583   9.206  -0.336   5.478 -0.1124  0.2374  0.0230
 5316POPC   C4B64584   9.235  -0.153   5.941 -0.0678 -0.0118  0.1552
 5317POPC   NC364585  14.757  23.569   3.485 -0.0555 -0.0648  0.1939
 5317POPC   PO464586  14.813  23.711   3.846 -0.0327  0.2060 -0.2526
 5317POPC   GL164587  14.595  23.648   4.147  0.1507 -0.1689 -0.4466
 5317POPC   GL264588  14.760  23.737   4.388 -0.0783  0.2257  0.2370
 5317POPC   C1A64589  14.568  23.290   4.458  0.0993  0.2675 -0.0341
 5317POPC   D2A64590  14.735  23.281   4.894  0.1384  0.0317  0.1257
 5317POPC   C3A64591  14.790  23.215   5.361 -0.1545  0.0995 -0.0686
 5317POPC   C4A64592  14.986  23.094   5.788  0.2978 -0.2637  0.0448
 5317POPC   C1B64593  14.924  23.843   4.807  0.1151 -0.2344  0.1783
 5317POPC   C2B64594  14.687  23.798   5.196  0.3583  0.3140 -0.0306
 5317POPC   C3B64595  14.480  24.161   5.443 -0.0479  0.0985  0.1959
 5317POPC   C4B64596  14.051  24.315   5.463  0.1165  0.0199 -0.0210
 5318POPC   NC364597  17.581  25.019   3.325  0.0817 -0.0666  0.1075
 5318POPC   PO464598  17.508  24.905   3.660 -0.1133 -0.0667 -0.2421
 5318POPC   GL164599  17.501  24.707   4.070 -0.1654  0.1352 -0.0353
 5318POPC   GL264600  17.495  24.411   4.030 -0.0328 -0.1180 -0.0670
 5318POPC   C1A64601  17.361  24.619   4.520 -0.3028  0.3441 -0.0519
 5318POPC   D2A64602  17.034  24.396   4.770 -0.0228 -0.3431  0.0147
 5318POPC   C3A64603  17.177  24.196   5.127 -0.1776 -0.0714 -0.1678
 5318POPC   C4A64604  17.295  23.754   5.168 -0.0117 -0.1835 -0.0001
 5318POPC   C1B64605  17.768  24.171   4.255  0.0109  0.2254 -0.1019
 5318POPC   C2B64606  18.073  24.138   4.587  0.1358  0.1302  0.0266
 5318POPC   C3B64607  18.069  24.218   5.036  0.2677  0.0341 -0.1121
 5318POPC   C4B64608  18.132  23.966   5.423  0.2645  0.3428  0.3715
 5319POPC   NC364609  22.474  19.842   3.479 -0.1942 -0.2075 -0.2517
 5319POPC   PO464610  22.120  19.755   3.296  0.2825 -0.2545  0.1074
 5319POPC   GL164611  22.005  19.596   3.702 -0.2746  0.2381 -0.1885
 5319POPC   GL264612  22.253  19.344   3.799 -0.1101 -0.0310 -0.1249
 5319POPC   C1A64613  21.767  19.183   3.666 -0.1622  0.1294 -0.1532
 5319POPC   D2A64614  21.619  18.772   3.679 -0.2854 -0.1831  0.1139
 5319POPC   C3A64615  21.637  18.432   3.969  0.0657  0.1475 -0.0107
 5319POPC   C4A64616  21.712  18.023   4.155 -0.2474 -0.1815  0.0849
 5319POPC   C1B64617  21.911  19.435   4.144 -0.2702 -0.1853  0.2116
 5319POPC   C2B64618  21.518  19.421   4.363 -0.1004 -0.2282  0.0798
 5319POPC   C3B64619  21.237  19.197   4.667  0.1791  0.3552 -0.3355
 5319POPC   C4B64620  21.095  18.873   4.984 -0.0228 -0.0718  0.2735
 5320POPC   NC364621   2.688  20.396   3.348 -0.1477 -0.3252  0.0659
 5320POPC   PO464622   2.793  20.140   3.607 -0.1115  0.1461  0.1690
 5320POPC   GL164623   2.903  19.852   3.833  0.5637 -0.1423  0.3255
 5320POPC   GL264624   2.808  19.908   4.074 -0.1272  0.1047 -0.0882
 5320POPC   C1A64625   3.327  19.787   4.010  0.1012  0.0448  0.0278
 5320POPC   D2A64626   3.443  19.429   4.299  0.4169 -0.0275 -0.0933
 5320POPC   C3A64627   3.206  19.452   4.666  0.4069 -0.1585  0.1939
 5320POPC   C4A64628   3.117  19.799   5.003  0.0180  0.1487  0.0581
 5320POPC   C1B64629   3.135  19.919   4.426  0.1045  0.2140  0.0476
 5320POPC   C2B64630   3.283  20.190   4.741  0.0006  0.1017  0.0134
 5320POPC   C3B64631   3.552  20.249   5.131  0.2578  0.0931 -0.0434
 5320POPC   C4B64632   3.688  20.149   5.481 -0.5244  0.1264  0.1446
 5321POPC   NC364633   6.386   3.139   3.516  0.1971 -0.2842  0.0103
 5321POPC   PO464634   6.768   3.216   3.495 -0.2956 -0.0916 -0.0015
 5321POPC   GL164635   6.579   3.504   3.638  0.0299 -0.1169  0.2301
 5321POPC   GL264636   6.806   3.711   3.717 -0.0482 -0.0622 -0.2262
 5321POPC   C1A64637   6.327   3.607   4.031 -0.0811 -0.1266 -0.0133
 5321POPC   D2A64638   6.322   3.503   4.495  0.0387  0.0613  0.4108
 5321POPC   C3A64639   6.007   3.683   4.772 -0.0007  0.1090 -0.0459
 5321POPC   C4A64640   5.804   4.070   4.961 -0.3120 -0.2305 -0.2950
 5321POPC   C1B64641   6.677   3.931   4.117  0.0234  0.3175  0.0164
 5321POPC   C2B64642   6.669   4.390   4.184 -0.0384  0.0647  0.1067
 5321POPC   C3B64643   6.733   4.849   4.160 -0.1319 -0.3426 -0.1009
 5321POPC   C4B64644   6.604   5.198   3.912 -0.1627  0.1027 -0.2989
 5322POPC   NC364645  14.645  18.313   3.510 -0.3010  0.0388  0.0315
 5322POPC   PO464646  15.013  18.185   3.449 -0.1294 -0.1677 -0.1799
 5322POPC   GL164647  14.984  18.288   3.879 -0.0710 -0.4120  0.2496
 5322POPC   GL264648  14.976  18.021   3.948 -0.1148 -0.1702 -0.0990
 5322POPC   C1A64649  14.685  18.600   4.051  0.2435  0.3650 -0.2386
 5322POPC   D2A64650  14.385  18.753   4.405  0.0289  0.3839 -0.0269
 5322POPC   C3A64651  14.182  18.755   4.840 -0.1067 -0.0184 -0.1838
 5322POPC   C4A64652  13.782  18.707   5.080  0.1024  0.1464 -0.0584
 5322POPC   C1B64653  15.226  18.256   4.305  0.2166 -0.3710  0.1104
 5322POPC   C2B64654  15.100  18.281   4.736  0.2713  0.0838 -0.1809
 5322POPC   C3B64655  15.223  18.226   5.139 -0.1809 -0.0491 -0.0849
 5322POPC   C4B64656  15.328  18.049   5.552  0.1756 -0.1519 -0.4039
 5323POPC   NC364657  24.902   4.007   4.114 -0.0169 -0.1741 -0.2152
 5323POPC   PO464658  24.791   4.295   3.874  0.0807 -0.2058 -0.0860
 5323POPC   GL164659  24.817   4.717   4.144 -0.0794  0.1172  0.0704
 5323POPC   GL264660  24.721   4.967   4.102  0.0856 -0.2043 -0.0515
 5323POPC   C1A64661  24.751   4.585   4.598  0.3374  0.1314 -0.0983
 5323POPC   D2A64662  24.763   4.422   5.014  0.4220 -0.2178 -0.0910
 5323POPC   C3A64663  24.492   4.433   5.405 -0.2097 -0.2056 -0.0259
 5323POPC   C4A64664  24.241   4.575   5.782 -0.0739  0.2471 -0.2104
 5323POPC   C1B64665  24.463   5.004   4.519  0.2471  0.1203 -0.1088
 5323POPC   C2B64666  24.496   4.857   4.963 -0.0489 -0.1812 -0.2799
 5323POPC   C3B64667  24.408   4.922   5.426  0.0119 -0.0543  0.1959
 5323POPC   C4B64668  24.190   5.168   5.727  0.2497  0.0147  0.2263
 5324POPC   NC364669  22.105  17.256   4.022  0.0625 -0.3593 -0.0175
 5324POPC   PO464670  22.269  16.883   3.978 -0.1694 -0.2261 -0.0793
 5324POPC   GL164671  21.836  16.790   3.946  0.0327 -0.1322 -0.0999
 5324POPC   GL264672  21.768  16.544   3.751 -0.2502  0.1175  0.0779
 5324POPC   C1A64673  21.592  16.635   4.351 -0.1634 -0.0707  0.1625
 5324POPC   D2A64674  21.349  16.517   4.703 -0.0457 -0.0967 -0.2050
 5324POPC   C3A64675  21.368  16.869   5.077 -0.2989 -0.0725 -0.1161
 5324POPC   C4A64676  21.477  17.334   5.083  0.1841  0.1801 -0.0512
 5324POPC   C1B64677  21.325  16.499   3.860 -0.2218  0.0362 -0.1617
 5324POPC   C2B64678  21.060  16.331   4.161 -0.1396 -0.1964  0.0186
 5324POPC   C3B64679  20.915  16.279   4.593 -0.2146  0.0318 -0.0944
 5324POPC   C4B64680  20.791  16.032   4.929  0.0268 -0.0839 -0.3371
 5325POPC   NC364681  31.369  30.209   4.166  0.2391 -0.0145 -0.1124
 5325POPC   PO464682  31.426  30.550   3.918  0.0645  0.1230 -0.1766
 5325POPC   GL164683  31.554  30.604   4.275 -0.2187 -0.4197 -0.1288
 5325POPC   GL264684  31.295  30.668   4.441  0.0522 -0.0928  0.0727
 5325POPC   C1A64685  31.660  30.318   4.597 -0.2401  0.0114  0.0059
 5325POPC   D2A64686  31.798  30.378   5.059 -0.0453  0.3453 -0.0618
 5325POPC   C3A64687  31.519  30.240   5.461 -0.0214  0.1196  0.2087
 5325POPC   C4A64688  31.292  29.906   5.674  0.0211 -0.1797  0.3030
 5325POPC   C1B64689  31.469  30.749   4.847  0.0802  0.1506 -0.0629
 5325POPC   C2B64690  31.425  30.690   5.331  0.1754 -0.1582 -0.0074
 5325POPC   C3B64691  31.209  30.782   5.755  0.0797 -0.1586 -0.1749
 5325POPC   C4B64692  30.834  30.670   6.034  0.1015  0.0120 -0.0215
 5326POPC   NC364693   1.136   9.973   3.420  0.1264  0.1956 -0.2923
 5326POPC   PO464694   0.765  10.069   3.385 -0.1568 -0.0608 -0.0639
 5326POPC   GL164695   0.560  10.264   3.691 -0.2533  0.0756 -0.0864
 5326POPC   GL264696   0.786  10.151   3.848 -0.0502 -0.0812 -0.3325
 5326POPC   C1A64697   0.400  10.538   4.074 -0.3257  0.2167  0.0238
 5326POPC   D2A64698   0.275  10.436   4.510  0.0732 -0.2501  0.0169
 5326POPC   C3A64699   0.048  10.603   4.904 -0.2165  0.1294  0.2354
 5326POPC   C4A64700  -0.035  10.765   5.281  0.2172  0.0314  0.0448
 5326POPC   C1B64701   0.705  10.147   4.298 -0.0720 -0.3018  0.0702
 5326POPC   C2B64702   0.875  10.352   4.663  0.1508  0.2794 -0.0221
 5326POPC   C3B64703   0.939  10.280   5.155 -0.0366 -0.0620  0.2086
 5326POPC   C4B64704   0.786  10.374   5.579 -0.1525  0.0381  0.1374
 5327POPC   NC364705  19.438  27.259   4.160  0.0107 -0.1920  0.0907
 5327POPC   PO464706  19.716  27.486   4.149 -0.1766 -0.1014  0.1209
 5327POPC   GL164707  19.608  27.488   4.528 -0.1252  0.1747 -0.3617
 5327POPC   GL264708  19.427  27.751   4.547  0.1700  0.0013  0.0717
 5327POPC   C1A64709  19.836  27.306   4.883 -0.2043  0.1925  0.0816
 5327POPC   D2A64710  20.016  27.518   5.291  0.3870  0.0158 -0.0461
 5327POPC   C3A64711  19.758  27.589   5.675 -0.4410 -0.0489  0.2568
 5327POPC   C4A64712  19.706  27.824   6.049  0.0001  0.0338 -0.1617
 5327POPC   C1B64713  19.744  27.789   4.868 -0.2084 -0.0980  0.1849
 5327POPC   C2B64714  19.677  27.942   5.277  0.2168  0.0226 -0.1350
 5327POPC   C3B64715  19.642  28.176   5.678  0.1675  0.1666  0.3803
 5327POPC   C4B64716  19.580  28.327   6.119  0.2048 -0.3316 -0.1862
 5328POPC   NC364717  23.261   0.366   3.364 -0.0531 -0.0538 -0.0196
 5328POPC   PO464718  23.654   0.374   3.407 -0.2831  0.0218  0.2391
 5328POPC   GL164719  23.532   0.677   3.673 -0.2411  0.1722  0.0527
 5328POPC   GL264720  23.269   0.732   3.723  0.0645 -0.3196 -0.0010
 5328POPC   C1A64721  23.562   0.707   4.122 -0.0649  0.0614 -0.0514
 5328POPC   D2A64722  23.685   0.758   4.539  0.0615 -0.0144 -0.0558
 5328POPC   C3A64723  23.404   0.604   4.856 -0.1952  0.1048  0.0935
 5328POPC   C4A64724  23.074   0.666   5.185  0.1529 -0.1884  0.2498
 5328POPC   C1B64725  23.043   0.597   4.165  0.0748  0.0449  0.1240
 5328POPC   C2B64726  22.913   0.598   4.590 -0.2360 -0.1301 -0.0596
 5328POPC   C3B64727  22.632   0.382   4.983 -0.4395 -0.1458  0.0383
 5328POPC   C4B64728  22.276   0.335   5.241 -0.3308 -0.1200  0.0866
 5329POPC   NC364729  28.564  27.933   3.870  0.0719  0.2024 -0.0071
 5329POPC   PO464730  28.470  27.528   3.916  0.1170 -0.2043 -0.1734
 5329POPC   GL164731  28.343  27.361   4.255  0.3871 -0.2716 -0.2303
 5329POPC   GL264732  28.283  27.166   4.473 -0.4610 -0.3260  0.1137
 5329POPC   C1A64733  28.074  27.569   4.547  0.2427 -0.3965  0.3650
 5329POPC   D2A64734  27.829  27.346   4.877 -0.0390 -0.1114  0.3217
 5329POPC   C3A64735  27.901  27.412   5.342  0.1917  0.1040 -0.0326
 5329POPC   C4A64736  28.194  27.322   5.748 -0.2705 -0.2022 -0.0798
 5329POPC   C1B64737  28.533  27.240   4.862 -0.1594 -0.1882  0.0156
 5329POPC   C2B64738  28.794  27.049   5.166  0.0303  0.2033  0.0752
 5329POPC   C3B64739  28.728  27.040   5.592 -0.0535  0.0010  0.0804
 5329POPC   C4B64740  28.552  26.719   5.897 -0.0895 -0.0908 -0.1477
 5330POPC   NC364741  21.414   1.431   3.364 -0.1570  0.2844  0.3930
 5330POPC   PO464742  21.358   1.195   3.686 -0.0898  0.3446  0.0468
 5330POPC   GL164743  21.005   1.113   3.791 -0.0672 -0.4966  0.1859
 5330POPC   GL264744  20.949   1.291   3.976 -0.0416  0.2207  0.0602
 5330POPC   C1A64745  21.003   0.842   4.189 -0.1888 -0.0002  0.1075
 5330POPC   D2A64746  21.337   0.824   4.576 -0.1240  0.0516  0.3208
 5330POPC   C3A64747  21.345   0.406   4.817  0.3787  0.2046 -0.0654
 5330POPC   C4A64748  21.200   0.252   5.242  0.1353  0.2968  0.1866
 5330POPC   C1B64749  20.887   1.306   4.440 -0.3773  0.3553  0.2802
 5330POPC   C2B64750  20.924   1.026   4.829 -0.0432 -0.0628  0.0880
 5330POPC   C3B64751  21.196   0.778   5.129 -0.1568 -0.0511 -0.1089
 5330POPC   C4B64752  21.666   0.700   5.108 -0.0861  0.0721  0.1280
 5331POPC   NC364753  29.257  28.967   3.409  0.1153  0.1315  0.0134
 5331POPC   PO464754  28.978  28.653   3.469 -0.0430 -0.1415  0.4513
 5331POPC   GL164755  28.890  28.782   3.800  0.2242 -0.2427 -0.1216
 5331POPC   GL264756  29.141  28.763   3.983 -0.1455  0.0716  0.1252
 5331POPC   C1A64757  28.552  28.877   4.067  0.2860 -0.4039 -0.0586
 5331POPC   D2A64758  28.537  28.846   4.516 -0.0945 -0.0379  0.3980
 5331POPC   C3A64759  28.541  28.971   4.937 -0.1560  0.2462 -0.4175
 5331POPC   C4A64760  28.511  29.343   5.249 -0.0153  0.2126 -0.0937
 5331POPC   C1B64761  28.982  28.623   4.396  0.1939  0.0892 -0.0687
 5331POPC   C2B64762  29.075  28.522   4.786 -0.0180 -0.0010 -0.3493
 5331POPC   C3B64763  29.287  28.296   5.130 -0.1504  0.2590  0.0155
 5331POPC   C4B64764  29.451  27.914   5.336  0.1200  0.1952 -0.1371
 5332POPC   NC364765   1.354   6.234   3.425 -0.0902  0.0484 -0.1500
 5332POPC   PO464766   1.021   6.420   3.484 -0.0178  0.0103  0.2405
 5332POPC   GL164767   0.967   6.302   3.808 -0.3549  0.1734  0.1301
 5332POPC   GL264768   1.185   6.218   3.928  0.1528  0.0998  0.1128
 5332POPC   C1A64769   0.785   6.581   4.124 -0.1469  0.1172  0.0860
 5332POPC   D2A64770   0.824   6.832   4.513  0.1628 -0.0581 -0.4115
 5332POPC   C3A64771   0.992   7.181   4.799 -0.2607 -0.0155  0.0560
 5332POPC   C4A64772   1.018   7.309   5.208 -0.0907  0.0939 -0.0615
 5332POPC   C1B64773   1.199   6.449   4.299  0.1496 -0.1018  0.1143
 5332POPC   C2B64774   1.227   6.584   4.728 -0.0714  0.0033 -0.0355
 5332POPC   C3B64775   1.222   6.799   5.176 -0.1297  0.1846 -0.0647
 5332POPC   C4B64776   1.105   6.783   5.622  0.2897  0.1035 -0.0522
 5333POPC   NC364777  24.643   7.907   3.803 -0.1589 -0.1009 -0.2891
 5333POPC   PO464778  24.780   7.597   3.981 -0.6304  0.2496  0.1904
 5333POPC   GL164779  24.842   7.508   4.365 -0.0718  0.1582  0.4707
 5333POPC   GL264780  25.084   7.345   4.502 -0.1541 -0.3202 -0.2787
 5333POPC   C1A64781  24.721   7.447   4.767  0.2824 -0.0506 -0.1731
 5333POPC   D2A64782  24.791   7.568   5.252 -0.1654  0.1174  0.1723
 5333POPC   C3A64783  24.979   8.002   5.400  0.0629  0.3727  0.1352
 5333POPC   C4A64784  25.084   8.441   5.544 -0.0994  0.0043 -0.0336
 5333POPC   C1B64785  25.192   6.996   4.786 -0.0949 -0.0298  0.0971
 5333POPC   C2B64786  25.095   6.563   4.910  0.2098 -0.0206  0.0491
 5333POPC   C3B64787  24.666   6.375   4.981  0.2062 -0.0474  0.1559
 5333POPC   C4B64788  24.442   6.454   5.373  0.0612 -0.0449  0.2300
 5334POPC   NC364789   9.383   9.878   3.924 -0.2255 -0.5151  0.3264
 5334POPC   PO464790   9.146   9.588   3.806  0.0874 -0.0244 -0.0690
 5334POPC   GL164791   9.120   9.514   4.202  0.0856  0.1640 -0.0966
 5334POPC   GL264792   8.816   9.585   4.295 -0.4560 -0.0596  0.1059
 5334POPC   C1A64793   9.311   9.309   4.602  0.0157 -0.0747 -0.1203
 5334POPC   D2A64794   9.304   9.299   5.063  0.0838  0.4909  0.1469
 5334POPC   C3A64795   9.654   9.261   5.390 -0.0136  0.4122  0.1743
 5334POPC   C4A64796   9.670   8.995   5.747  0.1805  0.2182 -0.0683
 5334POPC   C1B64797   8.760   9.473   4.749 -0.2145 -0.0774  0.2567
 5334POPC   C2B64798   8.736   9.418   5.242  0.2049  0.0424  0.2699
 5334POPC   C3B64799   8.740   9.526   5.729  0.3173  0.1608 -0.0089
 5334POPC   C4B64800   8.702   9.722   6.142 -0.0926 -0.0732 -0.1600
 5335POPC   NC364801  31.095   5.225   3.805 -0.4241 -0.0175  0.0325
 5335POPC   PO464802  31.505   5.254   3.790  0.1177 -0.2937 -0.3292
 5335POPC   GL164803  31.497   5.270   4.099 -0.0045 -0.1521  0.0285
 5335POPC   GL264804  31.768   5.457   4.169  0.3980 -0.3279  0.0697
 5335POPC   C1A64805  31.434   5.407   4.538  0.4237  0.0961  0.1506
 5335POPC   D2A64806  31.185   5.445   4.915 -0.0034 -0.2310 -0.1405
 5335POPC   C3A64807  30.896   5.826   4.965 -0.1198  0.1532 -0.0356
 5335POPC   C4A64808  30.690   6.224   5.014 -0.3555  0.0958  0.1871
 5335POPC   C1B64809  31.942   5.465   4.580 -0.0228 -0.0900 -0.3529
 5335POPC   C2B64810  32.153   5.365   4.968 -0.1427  0.5089  0.0795
 5335POPC   C3B64811  32.394   5.088   5.203  0.1698  0.4009 -0.3548
 5335POPC   C4B64812  32.533   5.027   5.675  0.0175 -0.1437  0.0185
 5336POPC   NC364813  11.632  21.893   3.847  0.0390  0.1534 -0.3077
 5336POPC   PO464814  11.828  22.193   4.002  0.1159  0.1952 -0.2861
 5336POPC   GL164815  12.026  22.230   4.350  0.0157  0.3071 -0.0598
 5336POPC   GL264816  12.086  22.481   4.242  0.0740 -0.1503  0.1807
 5336POPC   C1A64817  12.034  22.258   4.847 -0.0508  0.1046  0.0811
 5336POPC   D2A64818  11.849  22.229   5.264  0.2041  0.0682 -0.1880
 5336POPC   C3A64819  12.085  21.876   5.377  0.2323 -0.0857 -0.0273
 5336POPC   C4A64820  12.311  21.435   5.451  0.0013 -0.1825  0.0437
 5336POPC   C1B64821  12.225  22.641   4.647  0.1072  0.0575 -0.2737
 5336POPC   C2B64822  12.030  22.793   5.015  0.1281 -0.2411  0.4728
 5336POPC   C3B64823  12.090  22.768   5.488 -0.1560 -0.0624  0.2938
 5336POPC   C4B64824  11.855  23.006   5.753  0.1483 -0.0453 -0.2008
 5337POPC   NC364825   5.515  13.979   3.366  0.2039  0.0619  0.1806
 5337POPC   PO464826   5.526  14.224   3.663 -0.0358 -0.1649 -0.1197
 5337POPC   GL164827   5.714  14.196   3.974  0.2894 -0.2492 -0.1765
 5337POPC   GL264828   5.915  14.340   3.987 -0.3083 -0.4413 -0.0316
 5337POPC   C1A64829   5.999  13.850   4.138  0.1441 -0.0758 -0.1052
 5337POPC   D2A64830   5.856  13.563   4.467  0.2277  0.1191 -0.1128
 5337POPC   C3A64831   5.994  13.362   4.857  0.1097 -0.0701  0.0359
 5337POPC   C4A64832   6.243  13.429   5.194 -0.0176 -0.0764  0.1951
 5337POPC   C1B64833   5.767  14.508   4.404 -0.1997 -0.0174 -0.0527
 5337POPC   C2B64834   5.574  14.659   4.818  0.0867  0.1469 -0.0971
 5337POPC   C3B64835   5.392  14.774   5.269 -0.1403  0.1527 -0.1641
 5337POPC   C4B64836   5.147  15.047   5.544 -0.0738  0.0157  0.0696
 5338POPC   NC364837  25.743  31.153   3.163 -0.0483 -0.0662 -0.0138
 5338POPC   PO464838  26.029  30.904   3.239 -0.1396 -0.1629 -0.0399
 5338POPC   GL164839  26.203  30.980   3.554 -0.1176  0.0426 -0.0529
 5338POPC   GL264840  25.972  30.946   3.794  0.0253  0.1256  0.0992
 5338POPC   C1A64841  26.430  30.733   3.876 -0.2020 -0.3028 -0.0237
 5338POPC   D2A64842  26.824  30.635   4.034 -0.4299 -0.1190 -0.1864
 5338POPC   C3A64843  26.871  30.669   4.505 -0.1324  0.1803 -0.2122
 5338POPC   C4A64844  26.980  30.866   4.943  0.3380 -0.0418 -0.0538
 5338POPC   C1B64845  26.114  30.902   4.210 -0.3464 -0.2374 -0.1127
 5338POPC   C2B64846  26.099  30.839   4.657  0.1597 -0.1452 -0.0915
 5338POPC   C3B64847  25.902  31.052   5.002  0.4329 -0.1023  0.1063
 5338POPC   C4B64848  26.011  31.360   5.385  0.4440 -0.1951  0.2422
 5339POPC   NC364849  28.302  24.154   3.944 -0.0469  0.2439 -0.1315
 5339POPC   PO464850  28.613  24.370   3.854 -0.0032 -0.0195 -0.1085
 5339POPC   GL164851  28.737  24.539   4.209  0.1199 -0.0238 -0.0646
 5339POPC   GL264852  28.547  24.487   4.472 -0.2387  0.3323 -0.1936
 5339POPC   C1A64853  29.120  24.442   4.462  0.2273  0.2724 -0.0954
 5339POPC   D2A64854  29.342  24.086   4.652  0.1624 -0.0486  0.0846
 5339POPC   C3A64855  29.700  24.011   4.944 -0.1822 -0.1677 -0.3711
 5339POPC   C4A64856  30.093  23.764   4.914  0.2766 -0.0912  0.1341
 5339POPC   C1B64857  28.728  24.508   4.893  0.2107  0.1174  0.2302
 5339POPC   C2B64858  28.657  24.420   5.327 -0.0230 -0.0696  0.1404
 5339POPC   C3B64859  28.262  24.339   5.565 -0.5621 -0.3806 -0.1073
 5339POPC   C4B64860  27.813  24.541   5.662  0.2123  0.0120 -0.0257
 5340POPC   NC364861  20.187  25.495   3.892 -0.1096 -0.1413 -0.1028
 5340POPC   PO464862  20.553  25.482   3.817 -0.4986 -0.1170 -0.1294
 5340POPC   GL164863  20.652  25.433   4.127  0.1743  0.3308  0.0201
 5340POPC   GL264864  20.738  25.700   4.258 -0.0467  0.2091 -0.0455
 5340POPC   C1A64865  20.416  25.271   4.486  0.0381 -0.0701  0.0756
 5340POPC   D2A64866  20.566  25.005   4.820  0.2256  0.0127 -0.1225
 5340POPC   C3A64867  20.664  25.129   5.292 -0.0255  0.2699  0.1226
 5340POPC   C4A64868  20.652  25.011   5.689 -0.2934 -0.2725  0.0944
 5340POPC   C1B64869  20.608  25.780   4.675 -0.2152 -0.0582  0.2086
 5340POPC   C2B64870  20.472  25.616   5.144  0.0233  0.1504 -0.1632
 5340POPC   C3B64871  20.522  25.545   5.618  0.1290 -0.2904 -0.0677
 5340POPC   C4B64872  20.603  25.421   6.029  0.1266 -0.0270 -0.0581
 5341POPC   NC364873   3.801  10.573   3.939  0.4934 -0.0653  0.1606
 5341POPC   PO464874   3.503  10.390   4.108 -0.2406 -0.1356 -0.0408
 5341POPC   GL164875   3.316  10.559   4.381 -0.2692  0.1804  0.2446
 5341POPC   GL264876   3.153  10.272   4.513  0.0766 -0.4673 -0.0618
 5341POPC   C1A64877   3.307  10.825   4.711 -0.2189  0.1089  0.0746
 5341POPC   D2A64878   3.225  11.217   5.022 -0.0209  0.3220  0.3714
 5341POPC   C3A64879   3.207  11.094   5.468 -0.2364 -0.2072 -0.0514
 5341POPC   C4A64880   3.369  11.357   5.823 -0.3732  0.2758 -0.3229
 5341POPC   C1B64881   3.346  10.307   4.990 -0.3076 -0.0964  0.0203
 5341POPC   C2B64882   3.573  10.255   5.313 -0.0336 -0.4218  0.2155
 5341POPC   C3B64883   3.920  10.458   5.449  0.3885  0.5900 -0.1388
 5341POPC   C4B64884   4.266  10.379   5.745 -0.1362  0.3219  0.2124
 5342POPC   NC364885  19.338  15.538   3.526  0.0448  0.3553 -0.0104
 5342POPC   PO464886  19.140  15.797   3.701 -0.1331  0.0312 -0.2173
 5342POPC   GL164887  19.360  15.636   4.041  0.2197 -0.2453  0.2045
 5342POPC   GL264888  19.051  15.623   4.148  0.1493 -0.2866  0.2413
 5342POPC   C1A64889  19.574  15.614   4.472  0.0346 -0.0918 -0.0699
 5342POPC   D2A64890  19.881  15.638   4.798 -0.0911  0.0151 -0.0239
 5342POPC   C3A64891  20.248  15.268   4.874  0.1862  0.1335  0.1172
 5342POPC   C4A64892  20.269  14.835   5.013  0.3602 -0.0670  0.2582
 5342POPC   C1B64893  19.162  15.364   4.548 -0.2305  0.0630 -0.0436
 5342POPC   C2B64894  19.193  14.976   4.834  0.0756  0.0302 -0.1869
 5342POPC   C3B64895  19.383  14.625   5.013  0.2730 -0.1649 -0.0965
 5342POPC   C4B64896  19.300  14.450   5.424 -0.1850  0.0733  0.1234
 5343POPC   NC364897   8.552  10.206   4.155  0.2236  0.0264 -0.0549
 5343POPC   PO464898   8.876  10.050   3.968 -0.1555  0.2531  0.1055
 5343POPC   GL164899   9.024  10.022   4.254  0.0302  0.0796 -0.2022
 5343POPC   GL264900   9.239  10.230   4.317  0.0689 -0.1905  0.2716
 5343POPC   C1A64901   8.718  10.004   4.621 -0.2536 -0.1145 -0.1032
 5343POPC   D2A64902   8.632  10.031   5.036 -0.0329 -0.1547 -0.1224
 5343POPC   C3A64903   8.839  10.367   5.323 -0.0266 -0.0689  0.0179
 5343POPC   C4A64904   8.798  10.732   5.423  0.1772  0.0730 -0.1783
 5343POPC   C1B64905   9.121  10.291   4.788 -0.1175  0.0378  0.3580
 5343POPC   C2B64906   9.327  10.254   5.199  0.1431  0.3758 -0.0843
 5343POPC   C3B64907   9.601  10.317   5.563 -0.0870 -0.1564  0.2141
 5343POPC   C4B64908   9.902  10.536   5.845  0.4313 -0.1747  0.0075
 5344POPC   NC364909  15.341  12.450   4.062  0.4509  0.0768 -0.1750
 5344POPC   PO464910  15.165  12.384   3.734 -0.1548  0.3767  0.1976
 5344POPC   GL164911  14.849  12.488   3.899  0.1201  0.1239  0.0678
 5344POPC   GL264912  14.875  12.710   4.071  0.3271 -0.0506 -0.2300
 5344POPC   C1A64913  14.853  12.261   4.324  0.4671  0.2509 -0.2498
 5344POPC   D2A64914  14.942  12.417   4.789 -0.1478  0.0967 -0.0201
 5344POPC   C3A64915  14.656  12.310   5.102  0.3015 -0.1539  0.1643
 5344POPC   C4A64916  14.384  11.941   5.239  0.0251 -0.0520  0.0021
 5344POPC   C1B64917  14.698  12.754   4.486 -0.0941 -0.0842  0.0815
 5344POPC   C2B64918  14.579  12.760   4.854  0.0502  0.3187 -0.0015
 5344POPC   C3B64919  14.467  12.819   5.310 -0.0242 -0.1286 -0.1489
 5344POPC   C4B64920  14.164  12.794   5.599 -0.0019 -0.0858 -0.1018
 5345POPC   NC364921  21.895   7.635   3.248 -0.2284 -0.1808  0.1745
 5345POPC   PO464922  22.071   7.506   3.555 -0.0895 -0.1272  0.1421
 5345POPC   GL164923  21.892   7.336   3.920 -0.2568  0.0151  0.4399
 5345POPC   GL264924  21.891   7.578   4.062  0.3525  0.1151  0.0679
 5345POPC   C1A64925  21.724   6.965   4.179 -0.1230 -0.0792 -0.0522
 5345POPC   D2A64926  21.455   6.640   4.404 -0.4843 -0.1792 -0.0640
 5345POPC   C3A64927  21.354   6.658   4.869  0.1975 -0.1704 -0.2628
 5345POPC   C4A64928  21.463   6.852   5.223 -0.0847  0.3243 -0.0785
 5345POPC   C1B64929  21.839   7.362   4.429 -0.4251 -0.0478 -0.0310
 5345POPC   C2B64930  21.596   7.083   4.659 -0.1621 -0.2615  0.1323
 5345POPC   C3B64931  21.863   6.702   4.892  0.0423  0.0481  0.0958
 5345POPC   C4B64932  21.769   6.422   5.223 -0.0594 -0.3185 -0.2324
 5346POPC   NC364933  17.584   8.780   4.179 -0.2517 -0.0342 -0.2990
 5346POPC   PO464934  17.173   8.801   4.186  0.2222 -0.0463  0.1747
 5346POPC   GL164935  17.385   8.496   4.425 -0.0916 -0.2062 -0.0091
 5346POPC   GL264936  17.077   8.427   4.506  0.2041  0.0027 -0.0592
 5346POPC   C1A64937  17.413   8.522   4.912  0.0380  0.0254 -0.1103
 5346POPC   D2A64938  17.749   8.706   5.211  0.0306 -0.0282 -0.0675
 5346POPC   C3A64939  17.858   8.530   5.608  0.1641  0.2067 -0.3268
 5346POPC   C4A64940  17.754   8.191   5.921  0.4020 -0.0979  0.0848
 5346POPC   C1B64941  17.303   8.026   4.684 -0.0629  0.1892  0.0222
 5346POPC   C2B64942  17.372   7.917   5.061 -0.1305  0.0935  0.1565
 5346POPC   C3B64943  17.508   7.743   5.475 -0.0472 -0.1430 -0.1102
 5346POPC   C4B64944  17.558   7.543   5.891 -0.1055  0.0317 -0.1281
 5347POPC   NC364945  22.744   1.196   3.588 -0.0073  0.1518 -0.1479
 5347POPC   PO464946  22.869   0.873   3.405 -0.2118  0.2818  0.1891
 5347POPC   GL164947  22.683   0.714   3.662 -0.0164 -0.3152 -0.0357
 5347POPC   GL264948  22.866   0.424   3.729  0.0671 -0.0337  0.2579
 5347POPC   C1A64949  22.621   0.889   4.100  0.4759 -0.0285  0.0318
 5347POPC   D2A64950  22.731   1.112   4.494  0.3652  0.0824 -0.0653
 5347POPC   C3A64951  22.597   0.891   4.938  0.0624  0.1863 -0.2859
 5347POPC   C4A64952  22.606   0.852   5.422 -0.1498 -0.0587 -0.3182
 5347POPC   C1B64953  22.366   0.339   3.690 -0.1110  0.0365  0.0945
 5347POPC   C2B64954  21.892   0.380   3.720  0.0667 -0.1385  0.0921
 5347POPC   C3B64955  21.565   0.164   3.929 -0.0811 -0.0458 -0.1679
 5347POPC   C4B64956  21.130   0.068   3.865 -0.2330  0.3072  0.0841
 5348POPC   NC364957  21.985  11.765   3.655 -0.0403  0.1873 -0.1065
 5348POPC   PO464958  22.370  11.716   3.615 -0.0864 -0.4269 -0.2611
 5348POPC   GL164959  22.496  11.771   3.944  0.3192  0.0507  0.2006
 5348POPC   GL264960  22.218  11.819   4.139 -0.1065  0.0671  0.0948
 5348POPC   C1A64961  22.615  11.872   4.390 -0.3385 -0.0766  0.2162
 5348POPC   D2A64962  22.660  12.180   4.698 -0.1061  0.1402  0.0343
 5348POPC   C3A64963  23.050  12.375   4.902 -0.0117 -0.0238  0.0369
 5348POPC   C4A64964  23.242  12.688   5.130  0.4055 -0.0916 -0.1172
 5348POPC   C1B64965  22.218  11.517   4.442  0.0283 -0.1870  0.1095
 5348POPC   C2B64966  22.007  11.391   4.867  0.0135  0.0614  0.0909
 5348POPC   C3B64967  22.097  11.358   5.317  0.0231  0.2454  0.0867
 5348POPC   C4B64968  21.963  11.289   5.728  0.4500  0.1893  0.2146
 5349POPC   NC364969  27.332  14.646   3.688  0.3403 -0.1351 -0.1404
 5349POPC   PO464970  27.668  14.834   3.619  0.2277 -0.1852  0.2397
 5349POPC   GL164971  27.818  14.641   3.935  0.5375 -0.0924  0.2626
 5349POPC   GL264972  27.741  14.461   3.988 -0.1040  0.4639  0.2026
 5349POPC   C1A64973  27.860  14.898   4.298 -0.1641 -0.0917 -0.0175
 5349POPC   D2A64974  27.904  15.157   4.683  0.1930  0.0327 -0.2650
 5349POPC   C3A64975  28.235  15.131   4.976 -0.0642  0.1384  0.1228
 5349POPC   C4A64976  28.350  15.047   5.388 -0.0098 -0.2069 -0.1128
 5349POPC   C1B64977  27.483  14.227   4.289 -0.0447  0.0496 -0.3569
 5349POPC   C2B64978  27.329  14.242   4.746 -0.1647  0.2247  0.0205
 5349POPC   C3B64979  27.356  13.901   5.109 -0.0264  0.1232  0.0740
 5349POPC   C4B64980  27.261  13.646   5.484  0.0624 -0.0112  0.2539
 5350POPC   NC364981   3.712  11.406   3.496 -0.2513  0.0186 -0.1075
 5350POPC   PO464982   3.460  11.250   3.702 -0.0453  0.2221  0.1107
 5350POPC   GL164983   3.543  11.462   3.960  0.2004  0.2732 -0.2199
 5350POPC   GL264984   3.336  11.444   4.176  0.2110 -0.1753 -0.3354
 5350POPC   C1A64985   3.830  11.569   4.269 -0.0609 -0.0616  0.1953
 5350POPC   D2A64986   3.719  11.962   4.560 -0.1780 -0.2486  0.0100
 5350POPC   C3A64987   3.485  11.783   4.961  0.0957 -0.3026  0.1730
 5350POPC   C4A64988   3.503  11.487   5.353 -0.1084 -0.0388 -0.1764
 5350POPC   C1B64989   3.439  11.425   4.637  0.1482 -0.0220  0.0582
 5350POPC   C2B64990   3.719  11.183   4.989 -0.0985 -0.1525  0.2459
 5350POPC   C3B64991   3.551  10.814   5.294  0.0400 -0.0005 -0.1858
 5350POPC   C4B64992   3.478  10.660   5.642  0.0804 -0.2484 -0.1483
 5351POPC   NC364993  27.109   4.889   4.062 -0.1778  0.2638  0.0616
 5351POPC   PO464994  27.322   5.018   3.724  0.1812 -0.0426  0.0330
 5351POPC   GL164995  27.656   4.856   3.934  0.0551  0.2456 -0.4205
 5351POPC   GL264996  27.770   4.660   3.776  0.0125  0.2134 -0.0739
 5351POPC   C1A64997  27.968   5.012   4.252 -0.0968  0.0452  0.0954
 5351POPC   D2A64998  28.153   5.027   4.679 -0.0445  0.0720 -0.0637
 5351POPC   C3A64999  28.515   4.856   4.866  0.0029  0.1819  0.1221
 5351POPC   C4A65000  28.767   4.881   5.320 -0.0685  0.1819  0.0420
 5351POPC   C1B65001  28.233   4.765   3.902 -0.0157  0.0491 -0.4748
 5351POPC   C2B65002  28.495   4.926   4.290  0.1750  0.0979  0.0788
 5351POPC   C3B65003  28.669   5.277   4.558  0.0541  0.3008 -0.1620
 5351POPC   C4B65004  28.963   5.575   4.591 -0.0885 -0.1094 -0.1075
 5352POPC   NC365005  29.957  26.932   3.938  0.2131  0.0930  0.3380
 5352POPC   PO465006  30.064  26.574   3.912  0.0847 -0.0987 -0.1124
 5352POPC   GL165007  30.249  26.577   4.299 -0.1478 -0.1432 -0.1297
 5352POPC   GL265008  30.285  26.268   4.314  0.2902 -0.0082  0.2576
 5352POPC   C1A65009  30.323  26.730   4.745  0.2113  0.2056 -0.0710
 5352POPC   D2A65010  30.369  26.731   5.174  0.0287 -0.0329 -0.1130
 5352POPC   C3A65011  30.382  26.587   5.648 -0.1831 -0.0552 -0.1739
 5352POPC   C4A65012  30.382  26.562   6.072 -0.0579 -0.2669 -0.3667
 5352POPC   C1B65013  30.402  26.217   4.734 -0.2416  0.2494  0.0950
 5352POPC   C2B65014  30.420  26.238   5.207  0.0323 -0.0469  0.1659
 5352POPC   C3B65015  30.659  26.184   5.649  0.1199  0.1639 -0.0985
 5352POPC   C4B65016  31.031  25.958   5.915  0.2185 -0.1139  0.3642
 5353POPC   NC365017  20.039  16.231   3.538  0.2139 -0.2919 -0.0183
 5353POPC   PO465018  19.827  16.329   3.871  0.2127  0.1004 -0.1447
 5353POPC   GL165019  20.194  16.390   4.007 -0.0628  0.1477 -0.1125
 5353POPC   GL265020  20.059  16.284   4.321 -0.1039 -0.2001  0.0072
 5353POPC   C1A65021  20.376  16.701   4.308 -0.1672 -0.1701  0.0809
 5353POPC   D2A65022  20.814  16.779   4.425 -0.0946 -0.0428 -0.2026
 5353POPC   C3A65023  20.924  16.962   4.835 -0.0904 -0.0430  0.0805
 5353POPC   C4A65024  20.938  17.195   5.207  0.1097 -0.2853  0.2411
 5353POPC   C1B65025  20.413  16.268   4.568 -0.0360  0.0622  0.0408
 5353POPC   C2B65026  20.573  16.513   4.939 -0.2389  0.0336 -0.0389
 5353POPC   C3B65027  21.025  16.516   5.086 -0.3053 -0.1735  0.2247
 5353POPC   C4B65028  21.445  16.433   5.360  0.3586 -0.1571  0.0972
 5354POPC   NC365029  12.647   2.953   3.846  0.1100 -0.1942 -0.1283
 5354POPC   PO465030  12.988   2.932   3.667  0.0343 -0.1384 -0.0803
 5354POPC   GL165031  13.019   2.919   4.061 -0.4249  0.3181 -0.3851
 5354POPC   GL265032  12.946   3.120   4.244  0.3355  0.3773  0.1638
 5354POPC   C1A65033  13.109   2.760   4.490  0.1846  0.0190 -0.1009
 5354POPC   D2A65034  13.257   2.507   4.875  0.0230 -0.2127  0.1501
 5354POPC   C3A65035  13.288   2.444   5.357  0.2474  0.0286 -0.0593
 5354POPC   C4A65036  13.565   2.496   5.754  0.4635 -0.0445  0.2780
 5354POPC   C1B65037  12.921   3.265   4.659 -0.0717  0.1166  0.1510
 5354POPC   C2B65038  13.202   3.332   5.012  0.0899 -0.4635  0.2330
 5354POPC   C3B65039  13.628   3.378   5.153 -0.3111  0.0540 -0.1288
 5354POPC   C4B65040  13.901   3.269   5.524 -0.1339  0.1947  0.0864
 5355POPC   NC365041  30.904   0.458   3.456  0.0298 -0.0573  0.0911
 5355POPC   PO465042  31.038   0.089   3.549 -0.0970 -0.0196  0.2572
 5355POPC   GL165043  31.077   0.178   3.941  0.1539  0.1144  0.3062
 5355POPC   GL265044  30.742   0.203   3.965 -0.1102 -0.2081 -0.2945
 5355POPC   C1A65045  31.444   0.176   4.264 -0.0400  0.3280 -0.0314
 5355POPC   D2A65046  31.729   0.526   4.404 -0.1882 -0.3852  0.1135
 5355POPC   C3A65047  32.168   0.490   4.570 -0.0613  0.1231 -0.1091
 5355POPC   C4A65048  32.585   0.722   4.415  0.0003 -0.3540  0.2869
 5355POPC   C1B65049  30.500   0.504   4.262 -0.4057  0.2531  0.0366
 5355POPC   C2B65050  30.403   0.887   4.457 -0.0413 -0.0009  0.0871
 5355POPC   C3B65051  30.283   1.324   4.378 -0.0117  0.0138 -0.2357
 5355POPC   C4B65052  30.038   1.722   4.471  0.1177 -0.0540  0.2946
 5356POPC   NC365053   8.005  26.678   3.417 -0.0926  0.1225  0.0241
 5356POPC   PO465054   8.189  26.903   3.688 -0.0046  0.2953  0.0050
 5356POPC   GL165055   8.231  26.646   4.036 -0.1667 -0.0015  0.0520
 5356POPC   GL265056   8.047  26.674   4.189 -0.2412 -0.2743  0.0828
 5356POPC   C1A65057   8.604  26.668   4.324  0.3390  0.0183 -0.1639
 5356POPC   D2A65058   8.807  26.626   4.733  0.1738  0.1539  0.0945
 5356POPC   C3A65059   9.108  26.499   5.033 -0.1434 -0.0171 -0.3893
 5356POPC   C4A65060   9.202  26.501   5.456 -0.0086 -0.1991  0.1123
 5356POPC   C1B65061   8.140  26.727   4.663  0.2009 -0.0830  0.1270
 5356POPC   C2B65062   8.029  26.631   5.101 -0.0891  0.1269 -0.1189
 5356POPC   C3B65063   7.910  26.808   5.499 -0.0021  0.0203 -0.1294
 5356POPC   C4B65064   7.705  26.834   5.870 -0.1048  0.0775 -0.2060
 5357POPC   NC365065  10.001  17.566   3.747  0.0402  0.0314 -0.1108
 5357POPC   PO465066   9.680  17.303   3.723 -0.0366 -0.0002  0.0001
 5357POPC   GL165067   9.723  17.421   4.112  0.1449  0.2860 -0.1054
 5357POPC   GL265068   9.589  17.200   4.263 -0.1020  0.3244  0.1038
 5357POPC   C1A65069   9.981  17.711   4.374 -0.0497  0.3088  0.0785
 5357POPC   D2A65070  10.402  17.783   4.514 -0.1573 -0.0198  0.0533
 5357POPC   C3A65071  10.679  17.450   4.545  0.4349 -0.1135 -0.2060
 5357POPC   C4A65072  10.859  17.127   4.794 -0.2890  0.1670  0.1154
 5357POPC   C1B65073   9.683  17.413   4.645 -0.0753 -0.1707  0.1886
 5357POPC   C2B65074   9.965  17.710   4.869 -0.2206 -0.0178  0.2678
 5357POPC   C3B65075  10.144  17.914   5.225 -0.1749  0.1605  0.1525
 5357POPC   C4B65076  10.533  17.841   5.452 -0.3451  0.1357 -0.2257
 5358POPC   NC365077  31.556  14.169   3.878  0.1455  0.4642  0.1205
 5358POPC   PO465078  31.710  14.410   3.614 -0.3639 -0.1874  0.0067
 5358POPC   GL165079  31.867  14.685   3.915  0.4057 -0.1871  0.2311
 5358POPC   GL265080  31.716  14.606   4.108  0.2167  0.0948 -0.1681
 5358POPC   C1A65081  32.248  14.862   4.131  0.3032 -0.0898  0.1432
 5358POPC   D2A65082  32.418  14.643   4.526 -0.0211  0.4904  0.0135
 5358POPC   C3A65083  32.323  14.916   4.949  0.0411 -0.1715 -0.0711
 5358POPC   C4A65084  32.301  15.372   5.088 -0.0652  0.3245  0.0486
 5358POPC   C1B65085  31.815  14.739   4.539 -0.1746 -0.3328 -0.2923
 5358POPC   C2B65086  31.848  14.827   5.047 -0.1429  0.1255  0.0740
 5358POPC   C3B65087  32.061  14.971   5.424  0.1806 -0.0052  0.1072
 5358POPC   C4B65088  32.238  15.208   5.699  0.0320 -0.1204  0.1880
 5359POPC   NC365089   2.492  12.064   3.827 -0.1500 -0.4105  0.3111
 5359POPC   PO465090   2.452  12.354   4.059  0.2838  0.3022  0.1842
 5359POPC   GL165091   2.597  12.245   4.379 -0.4819 -0.0712 -0.1918
 5359POPC   GL265092   2.863  12.141   4.260 -0.1280 -0.1709  0.0605
 5359POPC   C1A65093   2.284  12.192   4.725 -0.1224 -0.1108 -0.2124
 5359POPC   D2A65094   2.232  11.772   4.814 -0.1025 -0.1153  0.2591
 5359POPC   C3A65095   2.073  11.735   5.205 -0.3184  0.0676 -0.1064
 5359POPC   C4A65096   1.905  11.634   5.614 -0.2646 -0.0874  0.0162
 5359POPC   C1B65097   2.990  12.202   4.744 -0.3148  0.1491 -0.0452
 5359POPC   C2B65098   2.963  12.426   5.188 -0.3485  0.1154  0.0598
 5359POPC   C3B65099   3.028  12.597   5.622  0.0076 -0.1462  0.0231
 5359POPC   C4B65100   3.158  12.729   6.051  0.0559 -0.1403  0.1424
 5360POPC   NC365101  17.218  22.713   3.436  0.0368  0.1714  0.2835
 5360POPC   PO465102  17.186  22.340   3.495 -0.0232  0.1765 -0.1428
 5360POPC   GL165103  17.403  22.487   3.818 -0.2106 -0.0195 -0.0178
 5360POPC   GL265104  17.250  22.301   4.023 -0.0438 -0.0555  0.2058
 5360POPC   C1A65105  17.312  22.842   4.082  0.1218 -0.0184 -0.4234
 5360POPC   D2A65106  17.195  23.106   4.418 -0.0458 -0.1459 -0.3236
 5360POPC   C3A65107  17.177  22.889   4.839 -0.1280 -0.0577 -0.1915
 5360POPC   C4A65108  16.890  22.841   5.201 -0.1171 -0.2032  0.2764
 5360POPC   C1B65109  16.961  22.029   4.229 -0.0066 -0.3418 -0.0820
 5360POPC   C2B65110  16.674  21.855   4.612 -0.3859  0.1723  0.3192
 5360POPC   C3B65111  16.648  21.765   5.017  0.0790 -0.0181 -0.0102
 5360POPC   C4B65112  16.411  21.980   5.375 -0.1481  0.1658  0.2365
 5361POPC   NC365113  12.787  16.963   3.121 -0.1013 -0.2853  0.1741
 5361POPC   PO465114  13.187  17.033   3.169  0.2567 -0.0690 -0.1383
 5361POPC   GL165115  13.060  17.374   3.443 -0.3990 -0.0676 -0.0313
 5361POPC   GL265116  12.803  17.193   3.532  0.3624 -0.3687 -0.3218
 5361POPC   C1A65117  12.973  17.552   3.914  0.0564  0.2321 -0.0068
 5361POPC   D2A65118  12.912  17.942   4.170  0.0467 -0.2699  0.1197
 5361POPC   C3A65119  13.123  18.242   4.461  0.2299  0.0200  0.4788
 5361POPC   C4A65120  13.156  18.244   4.919 -0.0774 -0.1259  0.1841
 5361POPC   C1B65121  12.625  17.236   3.939  0.0633  0.0976 -0.0693
 5361POPC   C2B65122  12.348  17.155   4.297 -0.2310  0.0873 -0.0839
 5361POPC   C3B65123  11.919  17.128   4.522  0.2142 -0.0198 -0.0312
 5361POPC   C4B65124  11.562  16.828   4.578 -0.1584  0.2116  0.1279
 5362POPC   NC365125  10.428  21.956   4.275 -0.0279  0.2106 -0.2410
 5362POPC   PO465126  10.115  21.891   4.090 -0.4446 -0.2466 -0.2349
 5362POPC   GL165127   9.952  21.881   4.531 -0.3495 -0.0834 -0.0857
 5362POPC   GL265128   9.801  21.599   4.388  0.0399  0.1468 -0.5802
 5362POPC   C1A65129  10.174  22.186   4.761  0.0524  0.1943  0.3168
 5362POPC   D2A65130  10.246  22.249   5.196 -0.1748 -0.0153  0.1008
 5362POPC   C3A65131  10.025  21.988   5.535  0.4655  0.1739 -0.2536
 5362POPC   C4A65132   9.923  21.720   5.852 -0.3248  0.0906 -0.0649
 5362POPC   C1B65133   9.583  21.581   4.713  0.0894 -0.0848 -0.1852
 5362POPC   C2B65134   9.348  21.392   5.079  0.2102  0.1135 -0.3230
 5362POPC   C3B65135   9.095  21.519   5.496  0.0469 -0.0956 -0.1602
 5362POPC   C4B65136   8.798  21.700   5.807  0.1376  0.2288  0.0940
 5363POPC   NC365137  23.054  29.889   3.633 -0.1327  0.1908  0.1478
 5363POPC   PO465138  23.407  29.947   3.760  0.1407 -0.2366 -0.3367
 5363POPC   GL165139  23.341  29.846   4.183  0.2274  0.0789  0.4288
 5363POPC   GL265140  23.595  29.694   4.225  0.0031 -0.0728 -0.0255
 5363POPC   C1A65141  23.230  29.745   4.601  0.0243 -0.3892 -0.2648
 5363POPC   D2A65142  22.990  29.476   4.850 -0.0375 -0.0445  0.0150
 5363POPC   C3A65143  23.014  29.344   5.319  0.0396 -0.0554 -0.0717
 5363POPC   C4A65144  22.832  29.296   5.716  0.0061 -0.1953  0.4497
 5363POPC   C1B65145  23.862  29.877   4.536 -0.1992 -0.1033 -0.3209
 5363POPC   C2B65146  23.909  29.836   4.970  0.0340 -0.0833  0.0477
 5363POPC   C3B65147  23.789  29.859   5.359 -0.0132 -0.1243  0.2602
 5363POPC   C4B65148  23.639  30.026   5.709 -0.3081 -0.1102  0.0528
 5364POPC   NC365149  14.277   4.857   3.519 -0.1095  0.2053 -0.2982
 5364POPC   PO465150  14.309   4.461   3.482 -0.0251  0.1521  0.4872
 5364POPC   GL165151  14.425   4.473   3.844 -0.0223 -0.1392  0.2134
 5364POPC   GL265152  14.619   4.285   3.888  0.0512 -0.0792  0.0507
 5364POPC   C1A65153  14.716   4.713   4.062  0.0546 -0.2486 -0.0672
 5364POPC   D2A65154  14.956   5.066   4.265 -0.0044 -0.0646 -0.0181
 5364POPC   C3A65155  14.882   5.088   4.718 -0.1334 -0.1455 -0.0587
 5364POPC   C4A65156  15.058   4.924   5.095 -0.0650 -0.1516 -0.1182
 5364POPC   C1B65157  14.980   4.295   4.194  0.3837 -0.1943 -0.1083
 5364POPC   C2B65158  15.231   4.338   4.568 -0.0656 -0.0596 -0.1857
 5364POPC   C3B65159  15.674   4.330   4.731  0.1011 -0.3548  0.0274
 5364POPC   C4B65160  15.777   4.363   5.168 -0.2015 -0.2861  0.0410
 5365POPC   NC365161   3.844  15.225   3.952 -0.1414 -0.1906  0.0819
 5365POPC   PO465162   3.581  15.492   3.770  0.1365 -0.0892 -0.0310
 5365POPC   GL165163   3.615  15.865   4.013  0.1393  0.0934 -0.0899
 5365POPC   GL265164   3.735  15.679   4.228  0.0936  0.3248  0.0153
 5365POPC   C1A65165   3.424  16.241   4.087  0.0736  0.0171 -0.1502
 5365POPC   D2A65166   3.428  16.505   4.519  0.0816  0.2654 -0.2155
 5365POPC   C3A65167   3.811  16.372   4.689  0.1232  0.0295 -0.0023
 5365POPC   C4A65168   4.272  16.192   4.828  0.0482 -0.4681  0.1087
 5365POPC   C1B65169   3.895  15.375   4.610  0.3518 -0.2695  0.2745
 5365POPC   C2B65170   3.948  15.332   5.069 -0.1075  0.2531 -0.0601
 5365POPC   C3B65171   4.255  15.309   5.439  0.0112 -0.1367 -0.1064
 5365POPC   C4B65172   4.475  15.370   5.868 -0.1697 -0.2964 -0.0645
 5366POPC   NC365173  17.387  30.185   3.419  0.1951 -0.1828 -0.0355
 5366POPC   PO465174  17.402  29.810   3.498  0.0394  0.2112 -0.2258
 5366POPC   GL165175  17.461  29.783   3.868  0.2674  0.5024 -0.2740
 5366POPC   GL265176  17.372  30.111   3.969  0.0625 -0.0356  0.0343
 5366POPC   C1A65177  17.517  29.341   3.959 -0.2380 -0.0273 -0.0937
 5366POPC   D2A65178  17.561  28.907   4.021 -0.2768 -0.1089  0.0671
 5366POPC   C3A65179  17.720  28.728   4.384  0.2175  0.0790  0.0440
 5366POPC   C4A65180  18.014  28.577   4.722 -0.0056 -0.0338 -0.1164
 5366POPC   C1B65181  17.273  30.039   4.387 -0.1689 -0.1800  0.0459
 5366POPC   C2B65182  17.413  29.829   4.739  0.2393  0.0972  0.1315
 5366POPC   C3B65183  17.535  29.713   5.177  0.1792 -0.2208  0.1980
 5366POPC   C4B65184  17.454  29.321   5.459 -0.3583  0.0255  0.1297
 5367POPC   NC365185  28.641   5.645   3.560  0.0044  0.0202  0.0291
 5367POPC   PO465186  28.417   5.945   3.490 -0.4413 -0.0024 -0.4016
 5367POPC   GL165187  28.468   5.948   3.902 -0.0272 -0.1974 -0.1511
 5367POPC   GL265188  28.608   6.129   4.070  0.0257  0.2785 -0.1295
 5367POPC   C1A65189  28.732   5.641   4.070  0.1510 -0.0135  0.0153
 5367POPC   D2A65190  28.873   5.134   4.128  0.2166  0.0019  0.1062
 5367POPC   C3A65191  28.742   4.909   3.716 -0.0697  0.4843  0.4536
 5367POPC   C4A65192  28.811   4.619   3.371  0.0227  0.0307 -0.0928
 5367POPC   C1B65193  28.952   6.141   4.319 -0.1850  0.1404  0.1669
 5367POPC   C2B65194  29.215   6.201   4.665 -0.2185  0.0893 -0.0497
 5367POPC   C3B65195  29.577   6.187   4.921 -0.1583  0.0685  0.1889
 5367POPC   C4B65196  29.606   6.221   5.394 -0.2426  0.3003 -0.1051
 5368POPC   NC365197   2.710  17.717   3.422  0.1361  0.1210 -0.1976
 5368POPC   PO465198   2.310  17.809   3.421  0.0225  0.1779 -0.2233
 5368POPC   GL165199   2.454  17.693   3.846  0.2242 -0.0440  0.0436
 5368POPC   GL265200   2.582  17.364   3.748  0.2342 -0.0098  0.2046
 5368POPC   C1A65201   2.623  17.487   4.260  0.3116 -0.1790 -0.2680
 5368POPC   D2A65202   2.648  17.434   4.721 -0.0187  0.2252 -0.3598
 5368POPC   C3A65203   2.475  17.373   5.199  0.3680  0.2476 -0.1617
 5368POPC   C4A65204   2.230  17.165   5.566  0.1529  0.1776 -0.1622
 5368POPC   C1B65205   2.298  17.030   3.912 -0.0369  0.4405  0.3894
 5368POPC   C2B65206   2.271  16.924   4.374 -0.0250  0.0063  0.0906
 5368POPC   C3B65207   2.026  16.637   4.634  0.0866 -0.1175  0.0610
 5368POPC   C4B65208   1.889  16.196   4.745  0.1053 -0.0506 -0.0490
 5369POPC   NC365209  15.835   9.721   3.745 -0.0500 -0.1081 -0.0699
 5369POPC   PO465210  16.166   9.809   3.581 -0.3770  0.0248  0.1886
 5369POPC   GL165211  16.119  10.041   3.931 -0.1279  0.1962  0.0029
 5369POPC   GL265212  16.135   9.815   4.116  0.1401  0.2320 -0.0151
 5369POPC   C1A65213  16.248  10.283   4.328  0.0472  0.4041 -0.1635
 5369POPC   D2A65214  16.406  10.630   4.597 -0.1272  0.1631  0.1421
 5369POPC   C3A65215  16.140  10.728   5.021 -0.0426  0.1651  0.1357
 5369POPC   C4A65216  16.388  10.967   5.422 -0.2249  0.0891 -0.0760
 5369POPC   C1B65217  16.040   9.771   4.567  0.2487  0.0138 -0.0274
 5369POPC   C2B65218  15.755   9.706   4.942 -0.1413 -0.0789 -0.1959
 5369POPC   C3B65219  15.577   9.775   5.346  0.0094  0.0452 -0.2461
 5369POPC   C4B65220  15.368  10.104   5.617  0.0088  0.1763 -0.1353
 5370POPC   NC365221   4.522  14.158   3.620  0.4418  0.1099 -0.3847
 5370POPC   PO465222   4.857  14.286   3.470 -0.2231  0.2275 -0.1363
 5370POPC   GL165223   4.959  14.241   3.803 -0.0983  0.1776 -0.0092
 5370POPC   GL265224   5.190  14.093   4.022  0.0131  0.2572  0.2020
 5370POPC   C1A65225   5.134  14.597   4.065  0.0651  0.2177 -0.1744
 5370POPC   D2A65226   5.178  14.717   4.531 -0.1480 -0.2199 -0.1096
 5370POPC   C3A65227   5.287  14.274   4.455  0.0510  0.1076  0.1637
 5370POPC   C4A65228   5.592  14.058   4.711  0.3394  0.2221  0.1752
 5370POPC   C1B65229   5.424  13.791   4.275  0.1358  0.1156  0.2396
 5370POPC   C2B65230   5.458  13.577   4.738  0.2652  0.3229 -0.2509
 5370POPC   C3B65231   5.230  13.297   4.957  0.3901 -0.0770 -0.2259
 5370POPC   C4B65232   5.009  12.934   5.009 -0.3616  0.1183  0.0593
 5371POPC   NC365233  29.522   0.819   3.474 -0.0312  0.1023  0.0586
 5371POPC   PO465234  29.326   0.603   3.724  0.1492  0.0900 -0.0847
 5371POPC   GL165235  29.494   0.445   3.926  0.1307 -0.0706  0.0072
 5371POPC   GL265236  29.641   0.238   3.810  0.0241 -0.0895  0.0036
 5371POPC   C1A65237  29.422   0.231   4.323 -0.2294 -0.2708  0.1164
 5371POPC   D2A65238  29.644   0.249   4.721 -0.2601  0.0449  0.0004
 5371POPC   C3A65239  29.538   0.230   5.182  0.2825  0.2035 -0.1193
 5371POPC   C4A65240  29.667   0.092   5.586 -0.3333 -0.1176  0.2084
 5371POPC   C1B65241  29.893   0.340   4.257  0.1666 -0.1719  0.0965
 5371POPC   C2B65242  30.149   0.407   4.552 -0.2719  0.2739  0.2081
 5371POPC   C3B65243  30.374   0.648   4.906 -0.0645 -0.3292 -0.0316
 5371POPC   C4B65244  30.491   0.961   5.270 -0.1807  0.3817  0.1622
 5372POPC   NC365245   4.009   3.707   3.617 -0.0337 -0.0389  0.0961
 5372POPC   PO465246   4.360   3.764   3.786  0.1913  0.1275  0.2020
 5372POPC   GL165247   4.412   3.735   4.184  0.0911 -0.1964 -0.4605
 5372POPC   GL265248   4.307   3.821   4.463 -0.3654 -0.1454 -0.1244
 5372POPC   C1A65249   4.637   3.406   4.473  0.1378 -0.2170  0.0929
 5372POPC   D2A65250   4.791   3.211   4.866  0.2160 -0.0024 -0.0828
 5372POPC   C3A65251   5.152   3.349   5.126 -0.0949 -0.1483  0.0157
 5372POPC   C4A65252   5.384   3.443   5.511  0.3324  0.0388 -0.0394
 5372POPC   C1B65253   4.522   3.823   4.902  0.0374 -0.1097 -0.5614
 5372POPC   C2B65254   4.678   3.558   5.307  0.0861  0.2777  0.0852
 5372POPC   C3B65255   4.707   3.210   5.575 -0.1313 -0.2580  0.2199
 5372POPC   C4B65256   4.845   3.090   6.021 -0.1463 -0.1190 -0.0629
 5373POPC   NC365257  21.130  30.685   3.398 -0.0926 -0.0360  0.1703
 5373POPC   PO465258  21.210  30.986   3.626 -0.0296 -0.0035  0.1401
 5373POPC   GL165259  20.992  30.796   3.884  0.0716 -0.0046  0.0371
 5373POPC   GL265260  20.772  30.697   3.806  0.1490 -0.0957  0.0516
 5373POPC   C1A65261  21.159  30.724   4.317 -0.0935  0.4537 -0.4423
 5373POPC   D2A65262  21.284  30.800   4.725  0.0529  0.1162 -0.0752
 5373POPC   C3A65263  21.246  31.251   4.822 -0.2659  0.0930  0.6071
 5373POPC   C4A65264  20.995  31.560   5.009 -0.2037  0.3153 -0.0175
 5373POPC   C1B65265  20.747  30.463   4.160  0.0072  0.2617 -0.1147
 5373POPC   C2B65266  20.712  30.520   4.607 -0.0247 -0.0116  0.0821
 5373POPC   C3B65267  20.850  30.746   4.997  0.0695 -0.0446 -0.1410
 5373POPC   C4B65268  21.084  31.052   5.288  0.3658 -0.0185  0.1745
 5374POPC   NC365269  17.969  21.875   3.737  0.0792 -0.1063  0.0570
 5374POPC   PO465270  17.592  22.013   3.737  0.0482 -0.0804  0.2959
 5374POPC   GL165271  17.518  21.997   4.173  0.0269 -0.1135  0.0089
 5374POPC   GL265272  17.854  22.100   4.198 -0.1367  0.0313  0.0427
 5374POPC   C1A65273  17.506  22.128   4.600  0.2017  0.0255 -0.2569
 5374POPC   D2A65274  17.652  22.053   5.055  0.0474 -0.0010  0.1048
 5374POPC   C3A65275  18.024  21.826   5.174 -0.1103 -0.1263 -0.0403
 5374POPC   C4A65276  18.309  21.902   5.531 -0.1529 -0.0804  0.0220
 5374POPC   C1B65277  17.873  21.745   4.478 -0.3303  0.2197 -0.0161
 5374POPC   C2B65278  17.712  21.570   4.863 -0.2429  0.2849 -0.1203
 5374POPC   C3B65279  17.577  21.569   5.313  0.0443 -0.0438  0.1283
 5374POPC   C4B65280  17.372  21.653   5.697 -0.2698 -0.2307 -0.2136
 5375POPC   NC365281  14.689  17.316   3.937 -0.0913 -0.4380 -0.0445
 5375POPC   PO465282  14.355  17.338   3.829 -0.1867  0.1628 -0.0260
 5375POPC   GL165283  14.148  17.418   4.177  0.2556  0.1410  0.1286
 5375POPC   GL265284  13.944  17.694   4.104  0.1342 -0.0014  0.1270
 5375POPC   C1A65285  14.026  17.322   4.634  0.3029 -0.1704  0.2568
 5375POPC   D2A65286  13.912  17.255   5.073  0.2357  0.1265  0.0274
 5375POPC   C3A65287  13.942  17.726   5.127  0.2005  0.2095 -0.1299
 5375POPC   C4A65288  13.909  17.975   5.528 -0.2967 -0.2762  0.3843
 5375POPC   C1B65289  14.147  17.781   4.406  0.0902 -0.0434  0.2234
 5375POPC   C2B65290  14.170  17.953   4.800 -0.0824 -0.0089  0.2028
 5375POPC   C3B65291  14.086  18.272   5.135  0.0618 -0.2114 -0.0529
 5375POPC   C4B65292  13.884  18.459   5.517  0.0288  0.1000 -0.0053
 5376POPC   NC365293  19.690   2.271   3.830 -0.1380  0.1565  0.0562
 5376POPC   PO465294  19.357   2.046   3.801 -0.1489  0.0560  0.0695
 5376POPC   GL165295  19.194   2.043   4.262 -0.1752 -0.1030  0.0416
 5376POPC   GL265296  19.175   2.349   4.169  0.0026  0.0864 -0.3686
 5376POPC   C1A65297  19.355   2.278   4.630  0.0858 -0.1941  0.2906
 5376POPC   D2A65298  19.152   2.527   4.969  0.3021  0.3466  0.2866
 5376POPC   C3A65299  18.775   2.267   5.095  0.0909 -0.0968 -0.1334
 5376POPC   C4A65300  18.629   1.847   4.959 -0.0591 -0.0934  0.0893
 5376POPC   C1B65301  19.632   2.512   4.252  0.1122  0.0028  0.2043
 5376POPC   C2B65302  19.697   2.732   4.654 -0.2437  0.0101 -0.1564
 5376POPC   C3B65303  19.664   2.661   5.110 -0.0103 -0.0751 -0.2980
 5376POPC   C4B65304  19.362   2.737   5.445  0.1376  0.0726 -0.2600
 5377POPC   NC365305  18.743   7.910   3.637  0.0100  0.0117 -0.3241
 5377POPC   PO465306  18.933   8.089   3.942 -0.0956  0.2223 -0.1036
 5377POPC   GL165307  18.744   7.936   4.215  0.2834 -0.2573  0.4767
 5377POPC   GL265308  18.847   7.687   4.221  0.1265 -0.0456 -0.0698
 5377POPC   C1A65309  18.348   7.952   4.480 -0.2769  0.1299  0.0056
 5377POPC   D2A65310  18.105   7.891   4.844 -0.1795  0.0447 -0.1820
 5377POPC   C3A65311  17.914   7.616   5.185  0.2455 -0.0099 -0.0882
 5377POPC   C4A65312  17.790   7.293   5.498 -0.0010  0.1103 -0.1672
 5377POPC   C1B65313  18.713   7.705   4.694  0.0696  0.0306  0.1691
 5377POPC   C2B65314  18.646   7.641   5.107  0.0847  0.0270 -0.1719
 5377POPC   C3B65315  18.337   7.922   5.305  0.2576  0.1184  0.0458
 5377POPC   C4B65316  17.952   7.978   5.552 -0.0313  0.0955 -0.0096
 5378POPC   NC365317  21.591   5.339   3.984 -0.0456  0.1489  0.0931
 5378POPC   PO465318  21.458   4.962   3.949  0.0601 -0.0152  0.1011
 5378POPC   GL165319  21.044   4.917   4.228  0.1781 -0.3613  0.3214
 5378POPC   GL265320  21.241   4.694   4.286 -0.2224  0.1220  0.3136
 5378POPC   C1A65321  21.050   4.957   4.713 -0.2491 -0.4537  0.3147
 5378POPC   D2A65322  21.425   4.994   5.042  0.3167  0.2307 -0.0215
 5378POPC   C3A65323  21.338   5.171   5.495 -0.1032  0.0320 -0.4950
 5378POPC   C4A65324  21.288   5.189   5.947 -0.0720 -0.2487 -0.0327
 5378POPC   C1B65325  21.357   4.593   4.738 -0.2005  0.3861  0.1182
 5378POPC   C2B65326  21.095   4.442   5.062  0.0716 -0.3150 -0.2246
 5378POPC   C3B65327  20.721   4.323   5.240  0.0192 -0.2234  0.2132
 5378POPC   C4B65328  20.588   3.941   5.462 -0.2081  0.2293 -0.0271
 5379POPC   NC365329  27.469  25.978   3.825 -0.1808  0.1331  0.2019
 5379POPC   PO465330  27.208  25.688   3.751  0.0872 -0.0986 -0.0738
 5379POPC   GL165331  27.011  25.862   4.011 -0.6511  0.0733  0.0077
 5379POPC   GL265332  27.124  25.778   4.239 -0.2289 -0.2681  0.0672
 5379POPC   C1A65333  26.752  26.135   4.274  0.1940 -0.1920 -0.0375
 5379POPC   D2A65334  26.760  26.288   4.733 -0.0401 -0.1000  0.1289
 5379POPC   C3A65335  26.496  26.147   5.088 -0.2074  0.0664  0.5099
 5379POPC   C4A65336  26.080  26.154   5.284 -0.0901  0.0805 -0.1168
 5379POPC   C1B65337  26.989  25.806   4.594 -0.1726 -0.1788 -0.3415
 5379POPC   C2B65338  27.020  25.987   5.021  0.0230 -0.0343  0.2231
 5379POPC   C3B65339  27.192  26.200   5.392  0.0586  0.1544 -0.3077
 5379POPC   C4B65340  27.293  26.407   5.817  0.2187  0.2259  0.0447
 5380POPC   NC365341   6.251   5.741   3.692  0.2128  0.2677  0.1194
 5380POPC   PO465342   6.554   5.649   3.496 -0.6787  0.0748 -0.2797
 5380POPC   GL165343   6.748   5.658   3.750 -0.2634  0.0228  0.1559
 5380POPC   GL265344   7.008   5.679   3.706  0.1683  0.1263 -0.3452
 5380POPC   C1A65345   6.513   5.624   4.141 -0.0103  0.0112  0.0251
 5380POPC   D2A65346   6.364   5.658   4.563 -0.3383 -0.1321  0.2256
 5380POPC   C3A65347   6.363   5.401   4.976  0.0200  0.2706  0.0238
 5380POPC   C4A65348   6.600   5.221   5.298 -0.2127 -0.1144  0.0961
 5380POPC   C1B65349   7.012   5.475   4.146 -0.1549 -0.2744 -0.2016
 5380POPC   C2B65350   7.231   5.647   4.510  0.0061 -0.0185  0.4074
 5380POPC   C3B65351   7.702   5.774   4.520  0.1664 -0.0505  0.0287
 5380POPC   C4B65352   7.998   5.818   4.899 -0.0288  0.0200  0.2023
 5381POPC   NC365353  10.126  13.170   3.703  0.2713 -0.1850  0.0202
 5381POPC   PO465354  10.513  13.210   3.766 -0.0611  0.0633  0.2548
 5381POPC   GL165355  10.407  13.202   4.048  0.2248  0.0583 -0.1414
 5381POPC   GL265356  10.125  13.120   4.163 -0.1994 -0.1644  0.2269
 5381POPC   C1A65357  10.443  13.457   4.408  0.3529 -0.0017 -0.2583
 5381POPC   D2A65358  10.397  13.547   4.817 -0.2008 -0.0635  0.0818
 5381POPC   C3A65359  10.087  13.881   4.952  0.2587 -0.2310 -0.0369
 5381POPC   C4A65360   9.838  13.951   5.352 -0.1050  0.3096  0.0597
 5381POPC   C1B65361  10.161  12.887   4.573 -0.0996  0.0988 -0.3053
 5381POPC   C2B65362   9.980  12.662   4.983 -0.2831  0.0856 -0.1035
 5381POPC   C3B65363  10.197  12.563   5.390  0.0951  0.1755  0.2280
 5381POPC   C4B65364  10.254  12.602   5.868 -0.1549 -0.0346 -0.0159
 5382POPC   NC365365   3.646  12.611   3.580 -0.1262  0.2265  0.0436
 5382POPC   PO465366   4.002  12.505   3.420 -0.0616 -0.1989  0.1575
 5382POPC   GL165367   4.063  12.382   3.721  0.0508 -0.1056 -0.2842
 5382POPC   GL265368   3.888  12.335   3.923 -0.0468 -0.0545  0.2159
 5382POPC   C1A65369   4.331  12.461   4.107  0.0253 -0.1340  0.0324
 5382POPC   D2A65370   4.529  12.348   4.466 -0.1467 -0.2343  0.5707
 5382POPC   C3A65371   4.534  12.242   4.926 -0.1812  0.1524 -0.2841
 5382POPC   C4A65372   4.299  11.904   5.212  0.0061 -0.0627 -0.2058
 5382POPC   C1B65373   4.146  12.022   4.166  0.0801  0.0358 -0.0414
 5382POPC   C2B65374   4.201  11.842   4.591 -0.1125  0.1933 -0.2160
 5382POPC   C3B65375   3.954  11.670   4.984 -0.0906 -0.3764  0.0001
 5382POPC   C4B65376   4.153  11.359   5.251  0.1045  0.1430  0.3181
 5383POPC   NC365377  23.805  31.342   3.947  0.0560  0.0112  0.0833
 5383POPC   PO465378  23.839  31.173   3.563 -0.1550  0.3133 -0.0831
 5383POPC   GL165379  23.461  31.331   3.656 -0.0632  0.1008 -0.0616
 5383POPC   GL265380  23.423  31.105   3.849  0.0080 -0.1272 -0.0269
 5383POPC   C1A65381  23.106  31.653   3.747 -0.1505 -0.2091 -0.3120
 5383POPC   D2A65382  22.986  31.856   4.145  0.2323  0.2573  0.1580
 5383POPC   C3A65383  22.544  32.080   4.183 -0.1877  0.0413  0.2219
 5383POPC   C4A65384  22.072  31.933   4.141  0.0701 -0.1330  0.1505
 5383POPC   C1B65385  22.988  31.245   4.033  0.3195 -0.1716  0.1962
 5383POPC   C2B65386  22.832  31.450   4.391  0.0004 -0.0716  0.0607
 5383POPC   C3B65387  22.570  31.345   4.758 -0.0702 -0.2618  0.2951
 5383POPC   C4B65388  22.209  31.260   5.003  0.1153 -0.2869 -0.1221
 5384POPC   NC365389  30.618  13.115   4.059 -0.2070 -0.2277 -0.0525
 5384POPC   PO465390  30.461  12.784   3.918  0.0314  0.1437  0.2114
 5384POPC   GL165391  30.364  12.839   4.346 -0.2057  0.1792 -0.0798
 5384POPC   GL265392  30.101  12.811   4.420 -0.2363  0.0437 -0.1867
 5384POPC   C1A65393  30.561  13.109   4.647 -0.0002 -0.0359 -0.0962
 5384POPC   D2A65394  30.669  13.187   5.142 -0.3552  0.3882  0.1870
 5384POPC   C3A65395  30.769  12.924   5.529 -0.2347 -0.0847  0.1873
 5384POPC   C4A65396  31.016  12.531   5.701  0.0289 -0.1720 -0.1878
 5384POPC   C1B65397  30.422  12.591   4.740 -0.0408  0.2386  0.0085
 5384POPC   C2B65398  30.586  12.531   5.101  0.0098  0.1184 -0.0026
 5384POPC   C3B65399  30.485  12.386   5.521  0.0981  0.0258  0.1802
 5384POPC   C4B65400  30.577  12.619   5.916 -0.3146  0.3402 -0.1511
 5385POPC   NC365401  18.272  13.550   3.624  0.1379  0.0069 -0.0378
 5385POPC   PO465402  17.906  13.425   3.580 -0.2575  0.4361  0.1036
 5385POPC   GL165403  18.009  13.288   3.974 -0.0160  0.0005 -0.2166
 5385POPC   GL265404  18.102  13.049   3.875 -0.1891  0.1786  0.1494
 5385POPC   C1A65405  18.140  13.530   4.363  0.3920 -0.0062  0.2220
 5385POPC   D2A65406  18.454  13.793   4.539 -0.1404  0.2583 -0.3350
 5385POPC   C3A65407  18.260  13.607   4.973 -0.3005  0.1100  0.3686
 5385POPC   C4A65408  18.106  13.570   5.414  0.4513 -0.1818  0.1898
 5385POPC   C1B65409  18.076  12.960   4.304  0.2590 -0.1139  0.0549
 5385POPC   C2B65410  17.881  12.770   4.696  0.0148  0.0952  0.0237
 5385POPC   C3B65411  18.135  12.670   5.074  0.1288  0.0653 -0.2714
 5385POPC   C4B65412  17.983  12.364   5.378  0.0356 -0.2068 -0.3284
 5386POPC   NC365413  30.237  28.122   4.065  0.2760  0.1627 -0.0686
 5386POPC   PO465414  29.924  27.904   3.933 -0.0556  0.0494 -0.0470
 5386POPC   GL165415  29.921  27.704   4.273  0.4004 -0.0294  0.1810
 5386POPC   GL265416  30.191  27.748   4.436 -0.2553 -0.5414  0.0628
 5386POPC   C1A65417  29.690  27.491   4.586 -0.2199 -0.0225 -0.2690
 5386POPC   D2A65418  29.425  27.548   4.983 -0.0797  0.2396  0.0660
 5386POPC   C3A65419  29.651  27.340   5.318  0.2582 -0.1839  0.2120
 5386POPC   C4A65420  29.761  27.240   5.762 -0.0934 -0.1978 -0.3628
 5386POPC   C1B65421  30.233  28.029   4.736  0.2533 -0.1004 -0.2035
 5386POPC   C2B65422  30.174  28.048   5.195 -0.0214 -0.0049 -0.2618
 5386POPC   C3B65423  30.471  27.973   5.543 -0.2514 -0.1639  0.1184
 5386POPC   C4B65424  30.754  28.125   5.990 -0.0379 -0.0813  0.2123
 5387POPC   NC365425   4.282   2.074   3.745  0.2069  0.1280 -0.2069
 5387POPC   PO465426   4.539   1.803   3.605  0.3122  0.1266 -0.0084
 5387POPC   GL165427   4.557   1.753   4.044  0.0321 -0.1722  0.0261
 5387POPC   GL265428   4.654   1.973   4.165  0.4332  0.1674  0.2737
 5387POPC   C1A65429   4.268   1.675   4.400  0.0857  0.2060  0.1109
 5387POPC   D2A65430   4.029   1.488   4.770 -0.1990  0.1738 -0.0738
 5387POPC   C3A65431   4.094   1.382   5.227  0.1087  0.0084  0.0727
 5387POPC   C4A65432   4.374   1.627   5.508  0.1259 -0.1929 -0.0181
 5387POPC   C1B65433   4.887   2.077   4.524  0.0362  0.0072 -0.2321
 5387POPC   C2B65434   4.720   2.165   4.949 -0.1229  0.0588 -0.0389
 5387POPC   C3B65435   4.592   2.388   5.333 -0.2579 -0.2392  0.0894
 5387POPC   C4B65436   4.210   2.588   5.538  0.1449  0.2116  0.2457
 5388POPC   NC365437  15.026  16.706   3.522 -0.3878 -0.2541  0.1308
 5388POPC   PO465438  14.714  16.957   3.479  0.2561 -0.0213 -0.3415
 5388POPC   GL165439  14.532  16.858   3.832  0.2556 -0.2540  0.2614
 5388POPC   GL265440  14.699  16.591   3.859 -0.4120 -0.2251 -0.0696
 5388POPC   C1A65441  14.674  16.871   4.244 -0.2566  0.0601  0.2038
 5388POPC   D2A65442  14.716  17.002   4.678 -0.3991 -0.1308  0.1325
 5388POPC   C3A65443  14.390  17.010   5.009 -0.0271  0.0459 -0.1412
 5388POPC   C4A65444  14.269  17.263   5.404  0.0544  0.2230  0.1945
 5388POPC   C1B65445  14.699  16.379   4.293 -0.1266 -0.0829 -0.1706
 5388POPC   C2B65446  14.797  16.456   4.716  0.3762 -0.2713 -0.2823
 5388POPC   C3B65447  14.962  16.754   5.060  0.0865 -0.0810 -0.1750
 5388POPC   C4B65448  15.140  17.123   5.227  0.1493  0.2644 -0.1948
 5389POPC   NC365449   5.528  22.690   3.929 -0.0181 -0.0370 -0.1977
 5389POPC   PO465450   5.908  22.931   4.051  0.1213 -0.1479  0.0745
 5389POPC   GL165451   5.570  23.006   4.265  0.2353  0.4725  0.1299
 5389POPC   GL265452   5.681  22.841   4.477 -0.1534 -0.1009  0.1461
 5389POPC   C1A65453   5.416  23.184   4.666 -0.2603  0.0942  0.0903
 5389POPC   D2A65454   5.366  23.442   4.993  0.0829 -0.0143 -0.1826
 5389POPC   C3A65455   5.348  23.377   5.513 -0.4202  0.0024 -0.2331
 5389POPC   C4A65456   5.364  23.401   5.941 -0.1390 -0.3221  0.1277
 5389POPC   C1B65457   5.862  22.752   4.898  0.0859 -0.2604 -0.2749
 5389POPC   C2B65458   6.087  22.760   5.289 -0.1822  0.1145 -0.1604
 5389POPC   C3B65459   6.461  22.700   5.558  0.0325  0.0091 -0.2878
 5389POPC   C4B65460   6.856  22.862   5.714  0.3044 -0.2168  0.2202
 5390POPC   NC365461  18.938  14.788   3.828  0.0391 -0.1043  0.1461
 5390POPC   PO465462  19.031  15.038   3.515  0.1534  0.0025  0.1200
 5390POPC   GL165463  19.383  15.122   3.782  0.0169 -0.1934 -0.4097
 5390POPC   GL265464  19.210  15.175   4.042 -0.4909  0.2676  0.0408
 5390POPC   C1A65465  19.715  15.331   4.085 -0.0209 -0.0406  0.2232
 5390POPC   D2A65466  19.889  15.227   4.500 -0.1046  0.0761  0.1635
 5390POPC   C3A65467  19.799  14.936   4.880  0.1603  0.0527  0.0657
 5390POPC   C4A65468  19.841  14.578   5.192 -0.0734 -0.1519  0.1578
 5390POPC   C1B65469  19.444  14.990   4.418 -0.2030  0.2945 -0.0307
 5390POPC   C2B65470  19.740  14.629   4.520  0.1386 -0.2140 -0.4661
 5390POPC   C3B65471  20.053  14.422   4.788 -0.1236 -0.1259  0.2262
 5390POPC   C4B65472  19.994  14.042   4.970 -0.1043 -0.0594  0.0317
 5391POPC   NC365473  12.558  21.060   3.543 -0.0351 -0.0659  0.0891
 5391POPC   PO465474  12.318  20.775   3.465 -0.3333 -0.3017  0.2182
 5391POPC   GL165475  12.405  20.617   3.786 -0.1082 -0.2619  0.0793
 5391POPC   GL265476  12.693  20.603   3.766  0.0679  0.1448 -0.1505
 5391POPC   C1A65477  12.491  20.895   4.131  0.0251  0.2528  0.2077
 5391POPC   D2A65478  12.458  20.948   4.618 -0.4378  0.1478  0.1115
 5391POPC   C3A65479  12.792  20.712   4.840 -0.1022 -0.5012  0.1178
 5391POPC   C4A65480  12.973  20.605   5.230 -0.0244  0.1363  0.0360
 5391POPC   C1B65481  12.442  20.440   4.168 -0.1874 -0.1097  0.1479
 5391POPC   C2B65482  12.426  20.393   4.624  0.0816  0.0089 -0.1541
 5391POPC   C3B65483  12.406  20.520   5.067 -0.0383  0.1867 -0.0434
 5391POPC   C4B65484  12.576  20.823   5.373 -0.1998 -0.0555 -0.2708
 5392POPC   NC365485   8.341  16.048   3.944 -0.0463 -0.1796  0.3974
 5392POPC   PO465486   8.199  15.655   3.992  0.1310  0.4638  0.0467
 5392POPC   GL165487   8.272  15.717   4.330  0.4401 -0.3903 -0.0458
 5392POPC   GL265488   8.287  15.479   4.435 -0.0034 -0.1236  0.1048
 5392POPC   C1A65489   8.351  16.190   4.462 -0.1214  0.1020 -0.1965
 5392POPC   D2A65490   8.731  16.288   4.712 -0.0290 -0.1008  0.1441
 5392POPC   C3A65491   8.626  16.225   5.147  0.0443  0.1809  0.1903
 5392POPC   C4A65492   8.855  16.146   5.570 -0.3134  0.1193 -0.0576
 5392POPC   C1B65493   8.080  15.731   4.768  0.1218 -0.0893  0.0808
 5392POPC   C2B65494   8.142  16.082   5.044  0.0375  0.1480 -0.0599
 5392POPC   C3B65495   7.889  16.198   5.448 -0.1631  0.2339 -0.2407
 5392POPC   C4B65496   7.408  16.195   5.469  0.1243 -0.0044  0.0028
 5393POPC   NC365497  27.526   0.202   3.724  0.1697  0.0122 -0.1158
 5393POPC   PO465498  27.533  -0.140   3.511 -0.3669  0.2189  0.2595
 5393POPC   GL165499  27.358  -0.415   3.712 -0.0051  0.0957  0.1798
 5393POPC   GL265500  27.477  -0.277   3.995  0.0490  0.3514 -0.1054
 5393POPC   C1A65501  27.475  -0.832   3.598 -0.0311  0.2002  0.2739
 5393POPC   D2A65502  27.285  -1.253   3.568 -0.0945 -0.2210  0.0834
 5393POPC   C3A65503  26.873  -1.397   3.643 -0.0010 -0.0028 -0.2413
 5393POPC   C4A65504  26.491  -1.525   3.874  0.2845 -0.2518  0.0583
 5393POPC   C1B65505  27.711  -0.328   4.453  0.1253 -0.1078  0.0266
 5393POPC   C2B65506  27.843  -0.551   4.832  0.0604  0.3431 -0.0280
 5393POPC   C3B65507  27.974  -0.876   5.069 -0.4395  0.0379 -0.3657
 5393POPC   C4B65508  27.787  -1.259   5.248  0.0763 -0.2696  0.0260
 5394POPC   NC365509  19.346   4.771   3.261  0.1010 -0.3887  0.0684
 5394POPC   PO465510  19.644   4.779   3.557 -0.2218  0.3838 -0.0115
 5394POPC   GL165511  19.433   4.688   3.889  0.2630 -0.0979  0.3414
 5394POPC   GL265512  19.475   4.833   4.127 -0.0321 -0.2684  0.2929
 5394POPC   C1A65513  19.045   4.668   4.208 -0.1241 -0.3117  0.0580
 5394POPC   D2A65514  18.832   4.658   4.617 -0.1390  0.2070 -0.1560
 5394POPC   C3A65515  18.482   4.653   4.918 -0.3582  0.1634  0.0661
 5394POPC   C4A65516  18.036   4.775   5.088  0.0301 -0.1206  0.4215
 5394POPC   C1B65517  19.275   4.939   4.531 -0.0316 -0.1886 -0.1705
 5394POPC   C2B65518  19.330   4.819   4.972 -0.1234 -0.2542  0.2899
 5394POPC   C3B65519  19.490   4.980   5.367 -0.0914  0.0500  0.1948
 5394POPC   C4B65520  19.672   5.080   5.789  0.1647  0.0632  0.4442
 5395POPC   NC365521  18.496  27.498   3.563 -0.0058  0.0415  0.0639
 5395POPC   PO465522  18.524  27.882   3.593 -0.2895 -0.1649  0.1210
 5395POPC   GL165523  18.275  27.851   3.916 -0.0890  0.0769 -0.0129
 5395POPC   GL265524  18.562  27.883   4.091  0.0383 -0.0861 -0.0388
 5395POPC   C1A65525  18.158  28.084   4.310  0.0626  0.0209 -0.1199
 5395POPC   D2A65526  18.084  28.051   4.802 -0.1737 -0.0153  0.0044
 5395POPC   C3A65527  18.165  28.355   5.161 -0.0805 -0.2224  0.0108
 5395POPC   C4A65528  18.037  28.516   5.556 -0.2446 -0.4338 -0.2150
 5395POPC   C1B65529  18.669  27.938   4.526  0.1670  0.3692  0.3789
 5395POPC   C2B65530  18.630  28.087   4.976  0.1766 -0.0819  0.0399
 5395POPC   C3B65531  18.717  28.286   5.339  0.0626 -0.1978  0.0805
 5395POPC   C4B65532  18.806  28.671   5.634 -0.2058 -0.1251 -0.3794
 5396POPC   NC365533  16.154  11.941   3.904 -0.0884  0.1544 -0.4445
 5396POPC   PO465534  16.181  12.225   4.149  0.2697  0.1728 -0.0374
 5396POPC   GL165535  16.027  11.984   4.422 -0.0828 -0.1907 -0.3512
 5396POPC   GL265536  15.810  11.807   4.270 -0.0607 -0.3485 -0.0407
 5396POPC   C1A65537  15.878  11.746   4.790  0.2039 -0.0012  0.0565
 5396POPC   D2A65538  15.447  11.549   4.927 -0.3716 -0.2058  0.0493
 5396POPC   C3A65539  15.375  11.152   5.070 -0.3343  0.0442  0.1824
 5396POPC   C4A65540  15.176  10.901   5.406  0.0262  0.1002  0.1126
 5396POPC   C1B65541  15.389  11.660   4.418 -0.0122  0.0512 -0.2970
 5396POPC   C2B65542  14.986  11.441   4.662 -0.0130  0.1354 -0.1927
 5396POPC   C3B65543  14.835  11.192   4.973  0.3251  0.3099 -0.1988
 5396POPC   C4B65544  14.723  10.752   5.153 -0.0537  0.1577  0.2008
 5397POPC   NC365545  20.322  26.826   3.889 -0.3415  0.3062  0.0412
 5397POPC   PO465546  20.659  26.578   3.893  0.1290 -0.3750 -0.1904
 5397POPC   GL165547  20.648  26.462   4.206  0.0116 -0.1168  0.1187
 5397POPC   GL265548  20.743  26.219   4.284 -0.0583  0.1566  0.2103
 5397POPC   C1A65549  20.408  26.321   4.576 -0.1331  0.3361 -0.1470
 5397POPC   D2A65550  20.452  26.278   5.022 -0.1129 -0.2959  0.0153
 5397POPC   C3A65551  20.220  26.486   5.414 -0.3236 -0.2029  0.1061
 5397POPC   C4A65552  19.996  26.670   5.753 -0.0838  0.0613 -0.1311
 5397POPC   C1B65553  20.985  26.129   4.632 -0.4176  0.0159  0.0986
 5397POPC   C2B65554  20.919  25.950   5.039  0.2187  0.1015  0.0381
 5397POPC   C3B65555  20.675  26.078   5.443  0.0570  0.1551  0.1814
 5397POPC   C4B65556  20.408  26.084   5.808  0.1065 -0.1347  0.1505
 5398POPC   NC365557  18.691   3.260   2.489 -0.0107 -0.0024 -0.0770
 5398POPC   PO465558  18.522   3.398   2.833  0.2163 -0.2432  0.0611
 5398POPC   GL165559  18.231   3.688   2.798  0.1857 -0.0725 -0.0083
 5398POPC   GL265560  18.310   3.899   3.005  0.0194 -0.3111 -0.0550
 5398POPC   C1A65561  17.902   4.024   2.764 -0.1994 -0.4472  0.3134
 5398POPC   D2A65562  17.734   4.343   2.984 -0.0712  0.1337  0.2457
 5398POPC   C3A65563  17.984   4.678   3.088  0.0772 -0.1540  0.0905
 5398POPC   C4A65564  18.438   4.713   3.034 -0.3070  0.3019  0.1616
 5398POPC   C1B65565  18.142   4.178   3.328 -0.0629 -0.0584  0.0845
 5398POPC   C2B65566  17.861   4.359   3.612 -0.0618 -0.1095 -0.0383
 5398POPC   C3B65567  17.617   4.674   3.836 -0.2545  0.0584 -0.0118
 5398POPC   C4B65568  17.228   4.935   3.954 -0.2421 -0.2391 -0.0484
 5399POPC   NC365569  27.541  16.178   4.120  0.0835 -0.0425  0.1765
 5399POPC   PO465570  27.473  16.459   3.857  0.1514 -0.0527 -0.2691
 5399POPC   GL165571  27.215  16.512   4.239  0.0075 -0.0311  0.1829
 5399POPC   GL265572  27.068  16.761   4.295  0.3280 -0.3582  0.0946
 5399POPC   C1A65573  27.254  16.341   4.661 -0.1874 -0.2291 -0.2739
 5399POPC   D2A65574  27.507  16.347   4.971  0.1262 -0.0062 -0.0092
 5399POPC   C3A65575  27.813  16.073   5.162  0.0645 -0.2546 -0.4062
 5399POPC   C4A65576  28.248  15.843   5.215 -0.2112 -0.0130 -0.2083
 5399POPC   C1B65577  27.341  16.880   4.597 -0.2598  0.0089  0.2359
 5399POPC   C2B65578  27.521  16.831   4.996  0.0473  0.2135  0.2038
 5399POPC   C3B65579  27.325  16.823   5.378  0.1629 -0.1399 -0.2419
 5399POPC   C4B65580  27.145  16.900   5.823  0.2306  0.1598 -0.3995
 5400POPC   NC365581  16.767   2.407   3.462 -0.0544 -0.2393 -0.0582
 5400POPC   PO465582  16.773   2.780   3.539  0.0785 -0.0594  0.1523
 5400POPC   GL165583  16.904   3.133   3.660  0.0217  0.0290 -0.2460
 5400POPC   GL265584  16.758   3.386   3.711  0.3859  0.0171 -0.1283
 5400POPC   C1A65585  17.034   3.248   4.095 -0.0082 -0.2114 -0.0070
 5400POPC   D2A65586  17.191   3.389   4.541  0.1733 -0.1913 -0.3422
 5400POPC   C3A65587  17.606   3.341   4.699 -0.3481  0.1478 -0.1023
 5400POPC   C4A65588  17.832   3.290   5.068 -0.0126 -0.0277  0.1528
 5400POPC   C1B65589  16.928   3.755   3.921  0.2345 -0.1491 -0.1778
 5400POPC   C2B65590  16.917   4.120   4.251  0.2757  0.1478  0.2158
 5400POPC   C3B65591  17.192   4.457   4.171 -0.0783  0.1415  0.3188
 5400POPC   C4B65592  17.532   4.726   4.315 -0.0273 -0.0101  0.1306
 5401POPC   NC365593  11.191  10.342   3.618  0.1080 -0.0221  0.2403
 5401POPC   PO465594  10.836  10.248   3.805  0.1104 -0.0433  0.1365
 5401POPC   GL165595  11.006   9.949   4.098 -0.0546 -0.0982  0.4607
 5401POPC   GL265596  11.298   9.986   4.151 -0.1059  0.0207  0.2169
 5401POPC   C1A65597  10.872   9.892   4.504 -0.2462 -0.2343  0.0189
 5401POPC   D2A65598  10.868   9.807   4.951  0.0881 -0.5537 -0.0868
 5401POPC   C3A65599  11.071  10.022   5.302  0.0764  0.2481  0.3822
 5401POPC   C4A65600  11.486  10.237   5.190  0.0598 -0.0539 -0.2924
 5401POPC   C1B65601  11.357   9.691   4.551  0.2218  0.0892 -0.0912
 5401POPC   C2B65602  11.513   9.790   5.003  0.2427 -0.3208  0.0188
 5401POPC   C3B65603  11.538   9.680   5.489  0.2709  0.0512  0.1094
 5401POPC   C4B65604  11.249   9.374   5.778  0.1991 -0.2318  0.3154
 5402POPC   NC365605  27.985  11.835   3.441  0.1551 -0.1875  0.3181
 5402POPC   PO465606  27.720  11.628   3.615 -0.0610  0.1866 -0.0168
 5402POPC   GL165607  27.958  11.645   3.939 -0.0717  0.0267 -0.0727
 5402POPC   GL265608  28.220  11.800   3.901 -0.0465 -0.1191 -0.1573
 5402POPC   C1A65609  27.922  11.490   4.322 -0.0136  0.3549 -0.0485
 5402POPC   D2A65610  27.965  11.656   4.752 -0.0078  0.0497 -0.2181
 5402POPC   C3A65611  27.903  11.290   5.069  0.0051 -0.0059 -0.1333
 5402POPC   C4A65612  27.932  11.205   5.486 -0.2840  0.1534  0.0376
 5402POPC   C1B65613  28.344  11.849   4.392  0.1675  0.2840  0.3601
 5402POPC   C2B65614  28.350  11.954   4.894 -0.1273  0.1629  0.1901
 5402POPC   C3B65615  28.445  11.936   5.346 -0.1816  0.0272  0.0344
 5402POPC   C4B65616  28.303  11.929   5.795 -0.0048 -0.0787 -0.3880
 5403POPC   NC365617  22.088   0.878   3.225 -0.0691  0.1984  0.0341
 5403POPC   PO465618  22.352   0.983   3.459 -0.1138 -0.0280  0.0014
 5403POPC   GL165619  22.044   0.889   3.686  0.1838 -0.0790  0.0483
 5403POPC   GL265620  22.155   0.775   3.902 -0.0341  0.1716 -0.1467
 5403POPC   C1A65621  21.936   1.141   4.097  0.0308  0.0182 -0.3454
 5403POPC   D2A65622  21.908   1.477   4.422  0.0623 -0.0017  0.0540
 5403POPC   C3A65623  22.248   1.525   4.762  0.0758  0.1023  0.3343
 5403POPC   C4A65624  22.489   1.349   5.146  0.0502 -0.2465  0.0336
 5403POPC   C1B65625  22.246   0.645   4.368  0.3660  0.0579  0.1913
 5403POPC   C2B65626  22.185   0.749   4.827 -0.0180  0.2735 -0.0481
 5403POPC   C3B65627  22.133   0.947   5.184 -0.3774  0.1034 -0.2421
 5403POPC   C4B65628  21.891   0.945   5.584 -0.0397  0.4180  0.0293
 5404POPC   NC365629  20.750  27.463   3.894  0.1024 -0.2032  0.1601
 5404POPC   PO465630  20.754  27.095   3.916 -0.1544 -0.0186 -0.0985
 5404POPC   GL165631  20.629  27.135   4.249  0.1250  0.0139  0.1245
 5404POPC   GL265632  20.509  26.872   4.338 -0.1365  0.1757 -0.2425
 5404POPC   C1A65633  20.909  27.080   4.635  0.0221 -0.4768  0.0156
 5404POPC   D2A65634  20.850  27.202   5.095  0.1049  0.1039 -0.2261
 5404POPC   C3A65635  21.053  27.095   5.494 -0.1697 -0.1272 -0.2022
 5404POPC   C4A65636  20.905  26.860   5.875 -0.3214  0.0301  0.0388
 5404POPC   C1B65637  20.390  26.958   4.803  0.2549  0.0573  0.2684
 5404POPC   C2B65638  20.497  26.956   5.283 -0.0346 -0.0001  0.0692
 5404POPC   C3B65639  20.441  26.949   5.768 -0.0065  0.1731  0.1210
 5404POPC   C4B65640  20.240  27.163   6.160 -0.1985  0.2835 -0.0336
 5405POPC   NC365641  10.282   7.066   3.816  0.0255  0.0686  0.0385
 5405POPC   PO465642  10.086   6.707   3.839  0.5166 -0.5290  0.1947
 5405POPC   GL165643   9.857   6.657   4.144  0.0493  0.3752  0.1621
 5405POPC   GL265644   9.827   6.456   4.363  0.2689  0.0838 -0.2053
 5405POPC   C1A65645   9.892   6.867   4.531 -0.0184  0.0500 -0.0842
 5405POPC   D2A65646  10.141   7.088   4.885  0.0619 -0.0213  0.2101
 5405POPC   C3A65647  10.283   6.886   5.265 -0.2553  0.0390 -0.3652
 5405POPC   C4A65648  10.127   6.504   5.463 -0.2728 -0.2620  0.3512
 5405POPC   C1B65649   9.506   6.528   4.713 -0.3550  0.0571 -0.1586
 5405POPC   C2B65650   9.265   6.335   5.045 -0.3742 -0.2028 -0.0029
 5405POPC   C3B65651   8.837   6.188   5.141 -0.0026  0.0829 -0.0309
 5405POPC   C4B65652   8.440   6.038   5.383 -0.2934 -0.1298 -0.3431
 5406POPC   NC365653  29.347  23.687   3.594  0.2092  0.0482  0.0352
 5406POPC   PO465654  28.990  23.545   3.547 -0.0877  0.2325 -0.2813
 5406POPC   GL165655  29.012  23.640   3.920 -0.0888  0.1158  0.1193
 5406POPC   GL265656  29.202  23.461   4.070 -0.1915  0.1720 -0.1464
 5406POPC   C1A65657  29.292  23.947   4.149  0.0180 -0.1450  0.0564
 5406POPC   D2A65658  29.694  23.891   4.374 -0.0026 -0.0228 -0.1139
 5406POPC   C3A65659  30.071  24.095   4.415 -0.2215  0.1155 -0.0286
 5406POPC   C4A65660  30.424  24.114   4.667 -0.0197 -0.0971 -0.1628
 5406POPC   C1B65661  29.183  23.622   4.525  0.2349  0.2300 -0.2242
 5406POPC   C2B65662  29.308  23.672   4.998  0.0378  0.1482 -0.0046
 5406POPC   C3B65663  29.144  23.757   5.415  0.1966 -0.2217 -0.0062
 5406POPC   C4B65664  29.290  23.672   5.819  0.0101 -0.2896  0.0003
 5407POPC   NC365665  22.068  28.448   3.386 -0.0518 -0.2033 -0.3440
 5407POPC   PO465666  22.013  28.242   3.737  0.1624 -0.2208  0.2267
 5407POPC   GL165667  21.976  28.151   4.056 -0.7723 -0.0326  0.3240
 5407POPC   GL265668  21.763  28.286   4.209  0.1762 -0.1134  0.2341
 5407POPC   C1A65669  22.048  27.791   4.333 -0.1638  0.1024  0.1267
 5407POPC   D2A65670  22.020  27.653   4.801 -0.1195 -0.2279  0.1476
 5407POPC   C3A65671  21.755  27.738   5.115  0.1185  0.0363 -0.0323
 5407POPC   C4A65672  21.725  27.784   5.599  0.4688  0.3128  0.0671
 5407POPC   C1B65673  21.512  28.309   4.594  0.0429  0.0902 -0.0259
 5407POPC   C2B65674  21.608  28.261   5.032 -0.0626 -0.0741 -0.2334
 5407POPC   C3B65675  21.619  28.237   5.506 -0.2200  0.0727 -0.1205
 5407POPC   C4B65676  21.573  28.428   5.910  0.2247 -0.0937  0.1099
 5408POPC   NC365677  26.389  28.659   3.313  0.1969  0.0981 -0.2649
 5408POPC   PO465678  26.431  28.482   3.641 -0.1298 -0.2811 -0.1803
 5408POPC   GL165679  26.640  28.523   4.023  0.2376 -0.4089  0.5048
 5408POPC   GL265680  26.843  28.827   3.997  0.4053  0.1849 -0.2454
 5408POPC   C1A65681  26.509  28.771   4.399  0.0040  0.3089  0.0480
 5408POPC   D2A65682  26.524  28.818   4.845  0.2498  0.0049 -0.2833
 5408POPC   C3A65683  26.460  29.293   4.808  0.1325 -0.0733  0.2320
 5408POPC   C4A65684  26.655  29.706   5.004  0.0544  0.0751  0.1410
 5408POPC   C1B65685  26.897  29.011   4.433  0.0238  0.0654  0.3900
 5408POPC   C2B65686  27.012  29.340   4.791 -0.2150 -0.1898 -0.0852
 5408POPC   C3B65687  27.264  29.280   5.127  0.1561 -0.0565 -0.0621
 5408POPC   C4B65688  27.361  29.433   5.614  0.0464 -0.0661  0.0451
 5409POPC   NC365689   5.521   3.816   3.471 -0.0464  0.1357 -0.1196
 5409POPC   PO465690   5.230   3.550   3.416 -0.1235  0.1215  0.1545
 5409POPC   GL165691   5.141   3.623   3.809 -0.1881 -0.2192  0.1440
 5409POPC   GL265692   4.866   3.544   3.991  0.1520  0.1108 -0.1005
 5409POPC   C1A65693   5.351   3.581   4.224  0.0691  0.0632  0.0111
 5409POPC   D2A65694   5.529   3.760   4.596 -0.3376 -0.0480  0.1922
 5409POPC   C3A65695   5.678   4.175   4.477 -0.2789  0.0953  0.0054
 5409POPC   C4A65696   5.989   4.477   4.648  0.1220  0.0851 -0.2140
 5409POPC   C1B65697   4.822   3.874   4.284 -0.0544  0.2368 -0.0043
 5409POPC   C2B65698   5.071   4.222   4.588 -0.1503  0.0055 -0.1728
 5409POPC   C3B65699   5.436   4.498   4.657 -0.0794  0.2669 -0.0791
 5409POPC   C4B65700   5.617   4.846   4.830 -0.0033  0.2479  0.0224
 5410POPC   NC365701  16.176  14.713   3.403  0.1324 -0.0705 -0.0854
 5410POPC   PO465702  15.727  14.706   3.434 -0.1260  0.3743 -0.0032
 5410POPC   GL165703  15.452  14.533   3.671 -0.1351 -0.0574  0.0092
 5410POPC   GL265704  15.534  14.508   3.941 -0.1201 -0.0248  0.2140
 5410POPC   C1A65705  15.318  14.943   3.936  0.2147 -0.0397 -0.1121
 5410POPC   D2A65706  15.408  15.403   3.933 -0.3737  0.0116 -0.1841
 5410POPC   C3A65707  15.598  15.442   4.389 -0.0194  0.2770  0.4243
 5410POPC   C4A65708  15.699  15.614   4.749  0.3496 -0.1618 -0.3163
 5410POPC   C1B65709  15.125  14.560   4.226 -0.2094 -0.1152 -0.0444
 5410POPC   C2B65710  14.912  14.625   4.598 -0.2082 -0.1006  0.1692
 5410POPC   C3B65711  14.781  14.710   5.008  0.1088  0.1024 -0.1963
 5410POPC   C4B65712  14.553  15.002   5.279  0.0959 -0.1390 -0.1708
 5411POPC   NC365713  25.988   3.199   3.968  0.1717  0.2930 -0.0686
 5411POPC   PO465714  25.601   3.366   3.876 -0.1840 -0.2116  0.1247
 5411POPC   GL165715  25.518   3.402   4.155 -0.1876  0.2911 -0.0665
 5411POPC   GL265716  25.392   3.069   4.208 -0.0942 -0.0731  0.0938
 5411POPC   C1A65717  25.146   3.450   4.445 -0.0925  0.0663 -0.0894
 5411POPC   D2A65718  24.730   3.637   4.520  0.2947  0.2433 -0.0887
 5411POPC   C3A65719  24.561   3.974   4.830  0.0666  0.2087  0.0549
 5411POPC   C4A65720  24.626   3.975   5.292 -0.0854 -0.2768  0.1284
 5411POPC   C1B65721  25.681   3.202   4.539 -0.2995 -0.0186 -0.1704
 5411POPC   C2B65722  25.930   3.246   4.953 -0.0270  0.0185  0.0675
 5411POPC   C3B65723  26.159   3.203   5.364 -0.1186  0.0394  0.0915
 5411POPC   C4B65724  26.479   3.106   5.771  0.1713  0.0662  0.1404
 5412POPC   NC365725  24.939   5.795   3.747 -0.0510  0.0664  0.1373
 5412POPC   PO465726  24.869   6.053   4.048 -0.3579 -0.1700  0.1459
 5412POPC   GL165727  24.957   5.905   4.324  0.4120  0.1364  0.0206
 5412POPC   GL265728  24.700   5.868   4.437 -0.1823 -0.1484  0.0167
 5412POPC   C1A65729  25.081   5.906   4.761 -0.1534  0.0776  0.2815
 5412POPC   D2A65730  25.024   6.105   5.141  0.1272 -0.3631  0.2893
 5412POPC   C3A65731  25.232   5.999   5.549  0.1174 -0.3419 -0.1248
 5412POPC   C4A65732  25.605   5.862   5.849  0.3499 -0.0461  0.3258
 5412POPC   C1B65733  24.567   5.859   4.862  0.2285  0.1384  0.1552
 5412POPC   C2B65734  24.744   5.686   5.241 -0.1935 -0.4973  0.1663
 5412POPC   C3B65735  24.757   5.307   5.446 -0.0120  0.1667  0.0844
 5412POPC   C4B65736  24.657   5.145   5.863 -0.0679 -0.1567  0.1544
 5413POPC   NC365737   3.088  18.995   3.239  0.0522  0.0319  0.1142
 5413POPC   PO465738   2.807  19.246   3.269  0.1541 -0.1957 -0.2880
 5413POPC   GL165739   2.654  19.254   3.601  0.0469  0.4230 -0.3621
 5413POPC   GL265740   2.744  19.063   3.895 -0.1705 -0.2269  0.2107
 5413POPC   C1A65741   2.553  19.497   3.975 -0.0237  0.0861  0.1039
 5413POPC   D2A65742   2.260  19.516   4.332  0.0345 -0.0558 -0.0780
 5413POPC   C3A65743   2.270  19.281   4.777  0.0275  0.2288 -0.0774
 5413POPC   C4A65744   2.262  19.014   5.241  0.3097 -0.1321 -0.3759
 5413POPC   C1B65745   2.840  19.003   4.377 -0.3631 -0.0344  0.1658
 5413POPC   C2B65746   2.812  19.180   4.804 -0.0416  0.0728  0.0068
 5413POPC   C3B65747   2.757  19.329   5.214 -0.0157 -0.3068  0.1962
 5413POPC   C4B65748   2.773  19.098   5.612 -0.0677 -0.0609 -0.1876
 5414POPC   NC365749   5.955  27.029   3.812 -0.0048  0.0812 -0.0055
 5414POPC   PO465750   5.967  27.436   3.857 -0.0789 -0.0660 -0.0291
 5414POPC   GL165751   5.783  27.462   4.153  0.0181 -0.0014  0.0196
 5414POPC   GL265752   5.577  27.441   4.349 -0.1764  0.2610  0.2935
 5414POPC   C1A65753   6.020  27.645   4.520 -0.2187  0.1346  0.2196
 5414POPC   D2A65754   5.962  27.918   4.848  0.0744  0.2531 -0.0076
 5414POPC   C3A65755   5.634  28.156   5.100 -0.1313 -0.2884  0.2597
 5414POPC   C4A65756   5.177  28.331   5.033 -0.1433  0.0636 -0.0061
 5414POPC   C1B65757   5.561  27.184   4.739  0.2149  0.0567  0.0107
 5414POPC   C2B65758   5.652  26.906   5.099  0.0050 -0.1180  0.1870
 5414POPC   C3B65759   5.854  26.629   5.460 -0.0613  0.1986  0.1258
 5414POPC   C4B65760   6.257  26.757   5.694  0.0320 -0.0095  0.1782
 5415POPC   NC365761  18.893   6.175   3.050  0.0111  0.1737 -0.0852
 5415POPC   PO465762  19.141   6.185   3.348 -0.3206  0.0034 -0.1186
 5415POPC   GL165763  18.828   6.043   3.604  0.0197 -0.0350  0.1674
 5415POPC   GL265764  18.948   6.173   3.882  0.1607  0.0120  0.0451
 5415POPC   C1A65765  18.506   5.679   3.556 -0.1803  0.2251  0.1771
 5415POPC   D2A65766  18.158   5.354   3.692  0.0693 -0.0994  0.0977
 5415POPC   C3A65767  17.798   5.638   3.953  0.1272 -0.0788  0.1749
 5415POPC   C4A65768  17.539   5.771   4.339  0.0813 -0.3625  0.1454
 5415POPC   C1B65769  18.665   5.990   4.254  0.0676 -0.2197  0.1971
 5415POPC   C2B65770  18.355   5.981   4.657  0.0572 -0.1222 -0.0643
 5415POPC   C3B65771  18.299   6.255   5.025  0.1192  0.0944  0.2071
 5415POPC   C4B65772  18.233   6.484   5.435 -0.0102 -0.0826  0.1675
 5416POPC   NC365773  21.837  21.743   3.399 -0.0252  0.0581  0.1912
 5416POPC   PO465774  22.099  22.014   3.341  0.1755  0.1744 -0.0928
 5416POPC   GL165775  22.106  22.198   3.691  0.1394  0.0231 -0.0053
 5416POPC   GL265776  21.863  22.120   3.858 -0.2763 -0.2433 -0.1691
 5416POPC   C1A65777  22.363  22.236   4.086  0.0180 -0.2244 -0.0543
 5416POPC   D2A65778  22.400  22.196   4.546 -0.1695 -0.0304  0.0165
 5416POPC   C3A65779  22.689  22.404   4.800  0.3787 -0.0840 -0.1594
 5416POPC   C4A65780  23.089  22.355   4.982 -0.2422  0.3655  0.4366
 5416POPC   C1B65781  21.898  22.151   4.337 -0.1243 -0.0249 -0.2675
 5416POPC   C2B65782  21.921  22.214   4.820 -0.1062  0.0948 -0.2319
 5416POPC   C3B65783  22.010  22.263   5.295  0.1070 -0.2843  0.0317
 5416POPC   C4B65784  22.019  22.103   5.714  0.1083 -0.0328 -0.0539
 5417POPC   NC365785   9.319   8.210   3.990 -0.0222 -0.1183 -0.1186
 5417POPC   PO465786   9.136   8.534   3.820  0.0085 -0.0957 -0.1147
 5417POPC   GL165787   9.301   8.666   4.199  0.1292 -0.0878 -0.3233
 5417POPC   GL265788   9.151   8.486   4.410 -0.2087 -0.6239 -0.0785
 5417POPC   C1A65789   9.456   8.789   4.633  0.0968 -0.2318  0.1049
 5417POPC   D2A65790   9.759   9.035   4.820  0.1573 -0.1870  0.3825
 5417POPC   C3A65791   9.830   8.794   5.247 -0.0027  0.0692  0.0920
 5417POPC   C4A65792   9.949   8.612   5.625 -0.2099  0.3790  0.0481
 5417POPC   C1B65793   8.899   8.401   4.799  0.1441  0.2749 -0.3127
 5417POPC   C2B65794   8.770   8.236   5.210  0.2717 -0.0538 -0.0986
 5417POPC   C3B65795   8.549   8.141   5.642  0.0894 -0.1504  0.0620
 5417POPC   C4B65796   8.356   7.873   5.964 -0.0714  0.2154 -0.0834
 5418POPC   NC365797  28.857   2.678   3.556 -0.0708 -0.1154 -0.0817
 5418POPC   PO465798  28.505   2.612   3.759 -0.1219  0.1304  0.2447
 5418POPC   GL165799  28.465   2.647   4.091  0.1067  0.2043 -0.1120
 5418POPC   GL265800  28.202   2.407   4.090 -0.0097 -0.1758 -0.0804
 5418POPC   C1A65801  28.609   2.846   4.482 -0.0585  0.4090  0.1106
 5418POPC   D2A65802  28.867   3.012   4.818 -0.3825 -0.0434  0.0353
 5418POPC   C3A65803  28.753   2.856   5.204 -0.1443 -0.0702  0.3114
 5418POPC   C4A65804  28.350   2.743   5.454  0.0701  0.0881  0.1843
 5418POPC   C1B65805  28.279   2.448   4.560 -0.0389 -0.2657  0.0471
 5418POPC   C2B65806  28.532   2.457   5.008 -0.0230 -0.0888 -0.0707
 5418POPC   C3B65807  28.740   2.366   5.430 -0.3154  0.0230 -0.0034
 5418POPC   C4B65808  28.956   2.056   5.566 -0.0181  0.0605 -0.2155
 5419POPC   NC365809   9.540  24.062   3.759 -0.0169 -0.0038  0.2282
 5419POPC   PO465810   9.773  23.810   3.947 -0.2417  0.2590 -0.4568
 5419POPC   GL165811   9.732  23.888   4.344 -0.0012  0.2114  0.0818
 5419POPC   GL265812   9.942  23.957   4.459 -0.0526 -0.0756 -0.2371
 5419POPC   C1A65813   9.630  24.350   4.439 -0.1910 -0.0144 -0.2976
 5419POPC   D2A65814   9.719  24.762   4.590 -0.0384  0.0179  0.1865
 5419POPC   C3A65815  10.019  25.077   4.807  0.0088  0.2113  0.0838
 5419POPC   C4A65816  10.302  25.312   5.130 -0.2575  0.1865  0.1410
 5419POPC   C1B65817   9.854  24.075   4.936  0.0691  0.0487 -0.0701
 5419POPC   C2B65818   9.502  24.151   5.278 -0.1129  0.5541  0.0172
 5419POPC   C3B65819   9.129  24.479   5.355 -0.0562  0.1110 -0.1171
 5419POPC   C4B65820   8.850  24.820   5.275  0.0797  0.1810 -0.0797
 5420POPC   NC365821  29.577   7.223   3.270 -0.0887 -0.0914  0.4570
 5420POPC   PO465822  29.912   7.017   3.313 -0.1082  0.0615 -0.0845
 5420POPC   GL165823  29.932   6.960   3.655  0.3032 -0.0995  0.0612
 5420POPC   GL265824  29.858   7.173   3.838 -0.0044  0.0691 -0.1253
 5420POPC   C1A65825  30.285   6.898   3.946  0.2026  0.0016 -0.0223
 5420POPC   D2A65826  30.631   6.761   4.293 -0.0365  0.2645 -0.0009
 5420POPC   C3A65827  30.631   6.655   4.760  0.1340 -0.2458  0.0098
 5420POPC   C4A65828  30.333   6.678   5.101  0.3331 -0.0585 -0.1590
 5420POPC   C1B65829  29.948   7.339   4.243 -0.0096 -0.0766 -0.3344
 5420POPC   C2B65830  29.686   7.592   4.556  0.4036  0.0198 -0.1047
 5420POPC   C3B65831  29.378   7.391   4.818 -0.2092 -0.0743 -0.0392
 5420POPC   C4B65832  29.004   7.095   4.682  0.1201 -0.1739  0.1874
 5421POPC   NC365833   7.794   3.788   3.528  0.1382  0.0661 -0.2687
 5421POPC   PO465834   7.518   3.973   3.338 -0.1667  0.0606 -0.1482
 5421POPC   GL165835   7.341   3.899   3.732 -0.3452 -0.0185 -0.3459
 5421POPC   GL265836   7.113   4.103   3.874 -0.1244 -0.0941 -0.0355
 5421POPC   C1A65837   7.123   3.546   3.993  0.1512  0.2734 -0.1216
 5421POPC   D2A65838   6.882   3.457   4.383 -0.0889  0.1181  0.2760
 5421POPC   C3A65839   6.863   3.662   4.775 -0.2443  0.2609 -0.0090
 5421POPC   C4A65840   6.778   3.860   5.155  0.2624  0.0336  0.0980
 5421POPC   C1B65841   7.256   3.947   4.300  0.5326 -0.1473 -0.0467
 5421POPC   C2B65842   7.300   3.877   4.756  0.1241  0.1782  0.0210
 5421POPC   C3B65843   7.257   3.869   5.205 -0.1613  0.1633  0.3024
 5421POPC   C4B65844   7.388   3.548   5.515 -0.0150 -0.0643 -0.1809
 5422POPC   NC365845  26.540   9.385   3.935  0.0415 -0.1249 -0.2556
 5422POPC   PO465846  26.478   8.995   3.900 -0.3379  0.1390  0.1574
 5422POPC   GL165847  26.311   9.191   4.275 -0.1241  0.3103 -0.3134
 5422POPC   GL265848  26.598   9.161   4.355 -0.2892 -0.2876  0.1895
 5422POPC   C1A65849  26.081   9.549   4.470 -0.0383  0.3273 -0.0279
 5422POPC   D2A65850  25.882   9.602   4.881  0.1976  0.0719  0.0883
 5422POPC   C3A65851  25.546   9.649   5.238  0.1347 -0.3982  0.1191
 5422POPC   C4A65852  25.270   9.959   5.534  0.0791  0.1387  0.1833
 5422POPC   C1B65853  26.771   9.011   4.772 -0.3670  0.2281 -0.0073
 5422POPC   C2B65854  26.657   8.973   5.225  0.1182  0.0735  0.0224
 5422POPC   C3B65855  26.689   8.886   5.667  0.3394 -0.1143 -0.3733
 5422POPC   C4B65856  27.008   9.100   5.871 -0.1773 -0.0737 -0.2324
 5423POPC   NC365857   3.535   1.085   3.436 -0.2847  0.1720  0.1765
 5423POPC   PO465858   3.241   1.183   3.685  0.0268 -0.2604 -0.6000
 5423POPC   GL165859   2.959   0.911   3.825 -0.2667 -0.5394 -0.1854
 5423POPC   GL265860   3.169   0.726   3.979  0.2247 -0.1891  0.1669
 5423POPC   C1A65861   2.683   0.841   4.218 -0.1258 -0.0183  0.0232
 5423POPC   D2A65862   2.232   0.792   4.158 -0.0971 -0.1396 -0.5153
 5423POPC   C3A65863   1.939   0.917   3.820  0.1102  0.1141  0.3928
 5423POPC   C4A65864   1.594   0.704   3.577 -0.0987  0.2353 -0.0967
 5423POPC   C1B65865   3.127   1.022   4.341 -0.3890 -0.2377  0.1032
 5423POPC   C2B65866   3.372   1.243   4.664 -0.0932  0.0894  0.2419
 5423POPC   C3B65867   3.649   1.286   5.042 -0.1890  0.0155  0.0423
 5423POPC   C4B65868   3.655   1.254   5.556  0.0530 -0.3469 -0.0354
 5424POPC   NC365869   1.160  27.150   3.546  0.0130  0.2809 -0.0944
 5424POPC   PO465870   0.888  26.844   3.614  0.0350 -0.3114 -0.0968
 5424POPC   GL165871   1.066  26.622   3.936  0.1691  0.0269 -0.5035
 5424POPC   GL265872   1.359  26.702   3.832 -0.2256  0.0685 -0.2844
 5424POPC   C1A65873   0.879  26.608   4.367 -0.0859 -0.2575 -0.2149
 5424POPC   D2A65874   1.047  26.728   4.835 -0.5215 -0.0637 -0.3329
 5424POPC   C3A65875   0.991  26.469   5.236  0.3441 -0.1938  0.0377
 5424POPC   C4A65876   0.862  26.076   5.411  0.0272 -0.2687 -0.0370
 5424POPC   C1B65877   1.400  26.821   4.256 -0.0286  0.0608 -0.3090
 5424POPC   C2B65878   1.511  26.895   4.699 -0.1611  0.1788 -0.1700
 5424POPC   C3B65879   1.407  26.744   5.174  0.0477  0.2463 -0.0271
 5424POPC   C4B65880   1.812  26.646   5.516 -0.0057 -0.1366  0.3184
 5425POPC   NC365881   4.479  13.407   4.125 -0.0300 -0.0060  0.1681
 5425POPC   PO465882   4.189  13.169   4.126  0.1150  0.4797  0.0150
 5425POPC   GL165883   4.357  12.896   4.373  0.0698 -0.0164 -0.0779
 5425POPC   GL265884   4.070  12.979   4.612  0.2928  0.1297 -0.2652
 5425POPC   C1A65885   4.575  12.742   4.724 -0.2970 -0.0707  0.2362
 5425POPC   D2A65886   4.444  12.683   5.249  0.2497  0.0007  0.4947
 5425POPC   C3A65887   4.868  12.741   5.511 -0.1000  0.0309  0.0505
 5425POPC   C4A65888   5.309  12.858   5.626  0.0894  0.2538 -0.3530
 5425POPC   C1B65889   4.138  13.031   5.023 -0.0469  0.0417  0.1931
 5425POPC   C2B65890   4.144  13.296   5.434  0.0290 -0.0913 -0.0228
 5425POPC   C3B65891   4.199  13.654   5.732  0.0314 -0.3868  0.0979
 5425POPC   C4B65892   4.109  14.122   5.767  0.1512 -0.0275  0.1185
 5426POPC   NC365893   5.227   0.503   3.756 -0.2378  0.2560  0.0224
 5426POPC   PO465894   4.972   0.213   3.643 -0.0032 -0.0921  0.0715
 5426POPC   GL165895   4.782   0.221   3.961 -0.1149  0.0061 -0.0751
 5426POPC   GL265896   4.779   0.462   4.128 -0.3967 -0.0087 -0.2037
 5426POPC   C1A65897   4.777  -0.089   4.343 -0.0740  0.0798 -0.2854
 5426POPC   D2A65898   5.093  -0.239   4.718  0.0744 -0.3185 -0.0315
 5426POPC   C3A65899   5.385  -0.527   4.983  0.0979 -0.4848  0.1515
 5426POPC   C4A65900   5.420  -0.965   5.092  0.2184  0.0820 -0.1307
 5426POPC   C1B65901   4.594   0.666   4.485 -0.2064 -0.2610  0.1971
 5426POPC   C2B65902   4.574   0.670   4.889  0.3975  0.2021  0.2636
 5426POPC   C3B65903   4.295   0.523   5.235  0.0519 -0.2447 -0.1312
 5426POPC   C4B65904   4.033   0.427   5.665  0.2382  0.1027 -0.3847
 5427POPC   NC365905   7.746  11.140   3.471  0.1380  0.2484 -0.1354
 5427POPC   PO465906   7.998  11.326   3.690  0.1189 -0.0454 -0.3213
 5427POPC   GL165907   7.721  11.487   3.953  0.2263  0.0651 -0.4880
 5427POPC   GL265908   7.845  11.724   3.999  0.1576 -0.0425 -0.1665
 5427POPC   C1A65909   7.329  11.632   4.074 -0.0968 -0.3874  0.2893
 5427POPC   D2A65910   6.882  11.651   3.937 -0.0772 -0.1152  0.0358
 5427POPC   C3A65911   6.759  11.489   4.323  0.1121 -0.0634  0.2412
 5427POPC   C4A65912   6.449  11.583   4.639 -0.0788  0.0610 -0.1601
 5427POPC   C1B65913   7.688  11.646   4.430  0.1547  0.1441 -0.0288
 5427POPC   C2B65914   7.269  11.446   4.527  0.2884  0.3945 -0.0006
 5427POPC   C3B65915   6.917  11.350   4.804  0.0194  0.0815  0.3502
 5427POPC   C4B65916   6.652  11.395   5.136 -0.1703 -0.0473 -0.0916
 5428POPC   NC365917  13.212  27.805   3.867 -0.3119 -0.2114  0.0121
 5428POPC   PO465918  12.987  27.544   3.729 -0.1904  0.1305 -0.1340
 5428POPC   GL165919  12.791  27.428   4.051  0.0269  0.0335 -0.1294
 5428POPC   GL265920  13.051  27.445   4.258 -0.0212 -0.1219 -0.3342
 5428POPC   C1A65921  12.649  27.204   4.445  0.2903  0.0387 -0.0395
 5428POPC   D2A65922  12.667  26.994   4.828  0.2054  0.1408 -0.0102
 5428POPC   C3A65923  12.545  26.906   5.274 -0.0195 -0.0559 -0.2027
 5428POPC   C4A65924  12.433  26.642   5.583  0.0441 -0.0447 -0.3065
 5428POPC   C1B65925  13.158  27.711   4.603  0.0980  0.0310 -0.2021
 5428POPC   C2B65926  13.364  27.906   4.943 -0.2209 -0.1033  0.2579
 5428POPC   C3B65927  13.518  27.993   5.423 -0.4766 -0.1320  0.3121
 5428POPC   C4B65928  13.725  28.260   5.695 -0.0805  0.0064 -0.3020
 5429POPC   NC365929   3.435   9.920   4.202  0.0385  0.0057  0.1798
 5429POPC   PO465930   3.104  10.027   4.045 -0.0097  0.2703 -0.0662
 5429POPC   GL165931   2.947   9.912   4.322 -0.4993 -0.3387  0.2333
 5429POPC   GL265932   2.909   9.620   4.291  0.2531 -0.0146 -0.2559
 5429POPC   C1A65933   2.785   9.893   4.717 -0.0087  0.0056  0.1029
 5429POPC   D2A65934   2.787  10.037   5.194 -0.1737  0.1488  0.0068
 5429POPC   C3A65935   2.591   9.732   5.482 -0.0299  0.2123 -0.2813
 5429POPC   C4A65936   2.352   9.568   5.834  0.0536 -0.2441  0.1848
 5429POPC   C1B65937   3.053   9.420   4.716 -0.2489 -0.3382  0.0864
 5429POPC   C2B65938   3.074   9.050   4.984  0.0311 -0.3294 -0.0106
 5429POPC   C3B65939   3.264   8.848   5.394  0.3500  0.1925  0.2092
 5429POPC   C4B65940   3.054   8.543   5.644 -0.2773  0.2490 -0.1809
 5430POPC   NC365941   0.380  11.331   3.809 -0.0901 -0.2230  0.0447
 5430POPC   PO465942   0.628  11.178   3.498 -0.0440 -0.0973 -0.1775
 5430POPC   GL165943   0.772  11.162   3.849 -0.0748 -0.0906 -0.1558
 5430POPC   GL265944   0.845  10.912   3.917  0.1662  0.0204  0.1739
 5430POPC   C1A65945   0.446  11.047   4.201 -0.4583  0.4707 -0.3296
 5430POPC   D2A65946   0.443  10.982   4.653 -0.2941 -0.3532  0.0288
 5430POPC   C3A65947   0.535  10.636   4.938  0.1729  0.0160  0.1384
 5430POPC   C4A65948   0.492  10.211   5.030 -0.1743  0.2527 -0.1422
 5430POPC   C1B65949   0.851  10.768   4.373 -0.0877  0.1929 -0.2422
 5430POPC   C2B65950   0.956  10.808   4.827  0.2101  0.0136  0.0779
 5430POPC   C3B65951   0.964  10.753   5.323  0.1082 -0.1104  0.1714
 5430POPC   C4B65952   0.880  10.805   5.810 -0.0107 -0.3244  0.0166
 5431POPC   NC365953  22.079   5.991   3.653  0.1045  0.0980 -0.0186
 5431POPC   PO465954  22.349   5.773   3.762  0.1004  0.0136  0.0718
 5431POPC   GL165955  22.521   5.795   4.088  0.1343 -0.1812  0.1739
 5431POPC   GL265956  22.764   5.808   4.256 -0.1198 -0.2593  0.3429
 5431POPC   C1A65957  22.389   5.908   4.533 -0.0753  0.2766 -0.1409
 5431POPC   D2A65958  22.456   5.903   4.989  0.0177 -0.0421  0.1992
 5431POPC   C3A65959  22.662   6.045   5.410 -0.3725 -0.0722 -0.0323
 5431POPC   C4A65960  22.988   6.233   5.699  0.0181 -0.0461  0.2239
 5431POPC   C1B65961  22.906   5.689   4.674  0.0444 -0.2807 -0.1105
 5431POPC   C2B65962  22.891   5.652   5.122 -0.1581  0.1809  0.0579
 5431POPC   C3B65963  22.525   5.556   5.371 -0.2826  0.3135 -0.0345
 5431POPC   C4B65964  22.053   5.534   5.355 -0.1468 -0.0106  0.0204
 5432POPC   NC365965  25.714  30.527   3.210  0.2797 -0.1124  0.2204
 5432POPC   PO465966  25.561  30.795   3.483 -0.0033 -0.0965  0.0717
 5432POPC   GL165967  25.408  30.731   3.814  0.1188 -0.0839 -0.1232
 5432POPC   GL265968  25.664  30.578   3.939  0.1014 -0.0627 -0.0202
 5432POPC   C1A65969  25.281  30.644   4.262 -0.1554 -0.0372  0.0285
 5432POPC   D2A65970  25.254  30.599   4.695 -0.4519 -0.1098 -0.0715
 5432POPC   C3A65971  25.432  30.881   4.988 -0.0328 -0.0032  0.1044
 5432POPC   C4A65972  25.475  31.105   5.391 -0.1359 -0.3386  0.1289
 5432POPC   C1B65973  25.675  30.161   4.196 -0.3070  0.0407 -0.0765
 5432POPC   C2B65974  25.811  29.804   4.567  0.0556 -0.1772 -0.1357
 5432POPC   C3B65975  25.845  29.893   4.978  0.0609  0.3268  0.0503
 5432POPC   C4B65976  25.740  29.781   5.401 -0.0847 -0.2156 -0.0013
 5433POPC   NC365977  18.119   0.836   3.986  0.0594  0.1059  0.0196
 5433POPC   PO465978  17.859   0.726   3.728  0.0906  0.0540 -0.0359
 5433POPC   GL165979  17.711   0.468   3.863 -0.1393  0.1990  0.1041
 5433POPC   GL265980  17.511   0.544   4.091 -0.0697 -0.0320  0.0888
 5433POPC   C1A65981  17.972   0.429   4.301 -0.0822  0.0763  0.1490
 5433POPC   D2A65982  18.395   0.613   4.501 -0.4720  0.0874 -0.0762
 5433POPC   C3A65983  18.413   0.843   4.949 -0.1571  0.1166  0.1445
 5433POPC   C4A65984  18.519   0.878   5.413  0.0271 -0.1551 -0.1657
 5433POPC   C1B65985  17.441   0.673   4.529  0.0893 -0.0158 -0.0324
 5433POPC   C2B65986  17.252   0.757   4.911 -0.0912  0.2031  0.0261
 5433POPC   C3B65987  17.307   0.753   5.352  0.1603 -0.0283  0.0849
 5433POPC   C4B65988  17.365   0.607   5.786 -0.0355  0.2184  0.1009
 5434POPC   NC365989  10.374   9.921   3.997  0.2675 -0.1809 -0.0475
 5434POPC   PO465990  10.035  10.131   3.994 -0.0818 -0.0361  0.2912
 5434POPC   GL165991   9.928  10.512   4.198 -0.3217  0.0485 -0.0059
 5434POPC   GL265992   9.694  10.472   4.307  0.1751 -0.1406 -0.0143
 5434POPC   C1A65993  10.046  10.673   4.640 -0.0033  0.2663  0.1383
 5434POPC   D2A65994  10.258  10.523   4.992  0.2822  0.0917 -0.2127
 5434POPC   C3A65995  10.411  10.103   5.129 -0.2859 -0.2449 -0.5268
 5434POPC   C4A65996  10.579   9.746   5.366 -0.0432  0.2106  0.2575
 5434POPC   C1B65997   9.595  10.430   4.761 -0.0192 -0.0305 -0.3009
 5434POPC   C2B65998   9.765  10.669   5.149  0.4642 -0.3219 -0.0927
 5434POPC   C3B65999  10.112  10.807   5.471 -0.1411 -0.0408 -0.1098
 5434POPC   C4B66000  10.470  11.105   5.493  0.3027 -0.0851 -0.0186
 5435POPC   NC366001  11.190  16.383   3.426 -0.0576 -0.5488  0.1176
 5435POPC   PO466002  11.531  16.189   3.392  0.1314 -0.0958  0.0453
 5435POPC   GL166003  11.592  16.597   3.543 -0.0753  0.0611 -0.0881
 5435POPC   GL266004  11.504  16.498   3.859  0.0338 -0.1147  0.1731
 5435POPC   C1A66005  12.027  16.609   3.708 -0.0597 -0.1476  0.1217
 5435POPC   D2A66006  12.391  16.756   3.950 -0.0152  0.1118  0.0075
 5435POPC   C3A66007  12.335  16.666   4.413 -0.0570  0.1644 -0.1400
 5435POPC   C4A66008  12.537  16.479   4.803 -0.0825 -0.5826  0.0362
 5435POPC   C1B66009  11.690  16.381   4.192 -0.0769  0.0447  0.1329
 5435POPC   C2B66010  11.942  16.425   4.554 -0.1930  0.0950 -0.1474
 5435POPC   C3B66011  11.988  16.701   4.933 -0.0874  0.1109  0.2780
 5435POPC   C4B66012  12.109  17.127   5.080 -0.1528 -0.0195  0.2028
 5436POPC   NC366013  11.501  12.754   3.416 -0.1885 -0.0198  0.0224
 5436POPC   PO466014  11.682  12.932   3.743 -0.0200 -0.0242  0.3183
 5436POPC   GL166015  11.804  12.808   4.033  0.4440  0.2160  0.1255
 5436POPC   GL266016  11.939  12.605   4.078 -0.1170  0.3775  0.2337
 5436POPC   C1A66017  12.023  13.010   4.356  0.0444  0.2086 -0.2638
 5436POPC   D2A66018  12.124  13.342   4.662 -0.2770 -0.2474  0.1945
 5436POPC   C3A66019  12.122  13.297   5.152 -0.3503 -0.1835  0.1457
 5436POPC   C4A66020  12.374  13.421   5.507  0.2674  0.0041 -0.2889
 5436POPC   C1B66021  11.935  12.567   4.564  0.2396 -0.3062  0.1510
 5436POPC   C2B66022  11.881  12.428   5.035 -0.0977 -0.2037  0.1388
 5436POPC   C3B66023  11.717  12.433   5.491 -0.2993 -0.2345 -0.0065
 5436POPC   C4B66024  11.331  12.439   5.665 -0.1032 -0.0649  0.1297
 5437POPC   NC366025   7.520  15.637   3.958 -0.0634 -0.1386  0.3024
 5437POPC   PO466026   7.810  15.366   3.785 -0.0065 -0.0392 -0.1484
 5437POPC   GL166027   7.900  15.364   4.207 -0.2017  0.3287  0.1558
 5437POPC   GL266028   7.629  15.291   4.299 -0.0452 -0.2246 -0.2694
 5437POPC   C1A66029   7.982  15.163   4.621 -0.0867 -0.0543 -0.0587
 5437POPC   D2A66030   8.176  14.907   4.975 -0.1266 -0.0736  0.0526
 5437POPC   C3A66031   7.918  14.720   5.278  0.2838  0.2386 -0.1423
 5437POPC   C4A66032   7.939  14.864   5.726  0.1800  0.0740  0.1489
 5437POPC   C1B66033   7.522  15.035   4.670  0.0249  0.1026 -0.0355
 5437POPC   C2B66034   7.466  14.798   5.053 -0.1676 -0.1050 -0.1487
 5437POPC   C3B66035   7.163  14.513   5.137 -0.1537  0.2072 -0.1350
 5437POPC   C4B66036   6.877  14.514   5.524  0.0042  0.1129 -0.0487
 5438POPC   NC366037  25.876  12.869   3.891 -0.0464  0.2791 -0.3438
 5438POPC   PO466038  25.528  13.009   3.789 -0.3074  0.2732 -0.1138
 5438POPC   GL166039  25.497  12.975   4.198  0.0262  0.0411  0.2287
 5438POPC   GL266040  25.450  12.704   4.194 -0.2582  0.2934  0.1090
 5438POPC   C1A66041  25.782  12.809   4.546 -0.1743 -0.1239 -0.0040
 5438POPC   D2A66042  25.886  12.609   4.915 -0.0655 -0.3358  0.0390
 5438POPC   C3A66043  26.325  12.472   5.099 -0.1068  0.1039 -0.2795
 5438POPC   C4A66044  26.718  12.273   5.207 -0.2491  0.1522  0.2439
 5438POPC   C1B66045  25.520  12.330   4.510 -0.1055  0.0310  0.0208
 5438POPC   C2B66046  25.705  12.128   4.922  0.1482  0.3929 -0.3309
 5438POPC   C3B66047  25.808  12.033   5.322 -0.3112 -0.2074  0.0515
 5438POPC   C4B66048  26.069  11.808   5.659  0.1634 -0.2136  0.1294
 5439POPC   NC366049  27.490  20.204   3.335 -0.0078  0.0384  0.5883
 5439POPC   PO466050  27.830  20.178   3.531  0.1625 -0.1775  0.3054
 5439POPC   GL166051  28.015  19.953   3.867  0.1218  0.2007 -0.0723
 5439POPC   GL266052  28.206  20.149   3.908  0.1165 -0.2558  0.0934
 5439POPC   C1A66053  28.345  19.696   4.062  0.2746  0.2424 -0.0308
 5439POPC   D2A66054  28.729  19.532   4.165 -0.0360 -0.2124 -0.3027
 5439POPC   C3A66055  28.951  19.481   4.600  0.1674 -0.3099 -0.0317
 5439POPC   C4A66056  28.985  19.612   5.077  0.0203 -0.0574  0.1179
 5439POPC   C1B66057  28.134  20.060   4.368 -0.0148 -0.0529 -0.0480
 5439POPC   C2B66058  27.756  20.157   4.639 -0.3636  0.1793  0.2142
 5439POPC   C3B66059  27.606  20.078   5.107 -0.3125  0.0918  0.1368
 5439POPC   C4B66060  27.584  20.258   5.551  0.0228 -0.0269 -0.2181
 5440POPC   NC366061  23.293  12.033   3.552  0.1085 -0.7782  0.0137
 5440POPC   PO466062  23.409  11.635   3.533 -0.1133  0.2439 -0.2482
 5440POPC   GL166063  23.155  11.501   3.774  0.1075  0.4587 -0.1113
 5440POPC   GL266064  23.174  11.712   4.012  0.0082  0.0949 -0.0655
 5440POPC   C1A66065  23.296  11.257   4.182 -0.0892 -0.0089  0.1151
 5440POPC   D2A66066  23.654  11.141   4.346  0.3547 -0.0681  0.1963
 5440POPC   C3A66067  23.897  11.283   4.755  0.4472 -0.3601  0.1355
 5440POPC   C4A66068  24.277  11.195   4.938 -0.0618 -0.1083  0.1750
 5440POPC   C1B66069  23.039  11.704   4.499 -0.1209 -0.0117 -0.2919
 5440POPC   C2B66070  22.943  11.749   4.968  0.1662 -0.1154  0.1940
 5440POPC   C3B66071  22.749  12.107   5.200  0.1115 -0.0780  0.2208
 5440POPC   C4B66072  22.726  12.523   5.373 -0.0409  0.1090 -0.2105
 5441POPC   NC366073  17.472   8.140   3.919 -0.2265 -0.0743 -0.3885
 5441POPC   PO466074  17.100   8.045   3.889 -0.2456  0.0463  0.2972
 5441POPC   GL166075  16.925   7.834   4.198 -0.0520 -0.0757  0.0209
 5441POPC   GL266076  16.660   8.033   4.168 -0.0507 -0.0379  0.0528
 5441POPC   C1A66077  16.853   7.883   4.634  0.2855 -0.4434  0.0292
 5441POPC   D2A66078  16.566   7.945   5.023  0.2700  0.2584 -0.1323
 5441POPC   C3A66079  16.555   8.322   5.335  0.1161 -0.1092  0.0835
 5441POPC   C4A66080  16.630   8.744   5.485 -0.0730  0.1261 -0.0286
 5441POPC   C1B66081  16.590   8.331   4.465 -0.0737 -0.0808  0.0992
 5441POPC   C2B66082  16.334   8.423   4.888  0.2398 -0.2018  0.0251
 5441POPC   C3B66083  16.061   8.394   5.238 -0.0436 -0.1816 -0.1526
 5441POPC   C4B66084  16.099   8.434   5.687 -0.0580 -0.2253  0.1426
 5442POPC   NC366085  13.864  28.756   3.752  0.0440 -0.1999 -0.1498
 5442POPC   PO466086  14.034  28.389   3.776  0.3279  0.1682  0.0168
 5442POPC   GL166087  14.110  28.342   4.120  0.2360 -0.0671  0.0004
 5442POPC   GL266088  14.449  28.398   4.034 -0.0040 -0.1696  0.2723
 5442POPC   C1A66089  14.334  28.087   4.410 -0.0018 -0.1773  0.0706
 5442POPC   D2A66090  14.407  28.052   4.862 -0.0699 -0.3775  0.1730
 5442POPC   C3A66091  14.562  27.629   5.002  0.0824 -0.2112  0.2146
 5442POPC   C4A66092  14.236  27.371   5.136  0.1129 -0.2113  0.0125
 5442POPC   C1B66093  14.865  28.350   4.256  0.1359 -0.0057 -0.0823
 5442POPC   C2B66094  15.084  28.451   4.652 -0.1335  0.2017 -0.2025
 5442POPC   C3B66095  15.286  28.412   5.080 -0.0672 -0.0955 -0.2508
 5442POPC   C4B66096  15.697  28.385   5.220 -0.1764  0.0769  0.0541
 5443POPC   NC366097  13.071  22.504   3.867  0.0990 -0.0228  0.1115
 5443POPC   PO466098  13.439  22.641   3.751 -0.2314  0.0420  0.2050
 5443POPC   GL166099  13.502  22.453   4.169  0.1685  0.2202 -0.0269
 5443POPC   GL266100  13.538  22.139   4.156  0.3385  0.0772 -0.2324
 5443POPC   C1A66101  13.483  22.351   4.629 -0.0028 -0.0588  0.0911
 5443POPC   D2A66102  13.681  22.336   5.026 -0.1695  0.1813 -0.5607
 5443POPC   C3A66103  13.798  22.016   5.381  0.0506  0.0451 -0.0223
 5443POPC   C4A66104  13.898  21.788   5.782  0.0692  0.1126 -0.0526
 5443POPC   C1B66105  13.611  21.887   4.482 -0.1483 -0.3131 -0.1976
 5443POPC   C2B66106  13.726  21.800   4.977 -0.0728  0.0380  0.2331
 5443POPC   C3B66107  13.794  21.496   5.358  0.2265  0.0179 -0.2759
 5443POPC   C4B66108  14.237  21.338   5.439  0.2875 -0.1749 -0.2037
 5444POPC   NC366109   3.579  21.644   3.728 -0.1736  0.0159 -0.2307
 5444POPC   PO466110   3.250  21.587   3.527 -0.0188  0.0226  0.0615
 5444POPC   GL166111   2.988  21.672   3.809 -0.2563  0.0789 -0.1706
 5444POPC   GL266112   3.130  21.901   3.923 -0.0387  0.0500 -0.0947
 5444POPC   C1A66113   2.817  21.570   4.235  0.0597 -0.2446  0.3184
 5444POPC   D2A66114   2.558  21.398   4.558 -0.2222  0.3172 -0.2545
 5444POPC   C3A66115   2.783  21.149   4.866  0.0395 -0.0638 -0.0936
 5444POPC   C4A66116   3.034  21.209   5.218 -0.1222  0.2390  0.0386
 5444POPC   C1B66117   3.203  21.904   4.366 -0.1454 -0.1632 -0.0352
 5444POPC   C2B66118   3.056  21.571   4.708  0.1483  0.4691  0.0088
 5444POPC   C3B66119   2.661  21.613   5.007  0.0715  0.3118  0.2801
 5444POPC   C4B66120   2.311  21.516   5.283 -0.0228  0.3111  0.0294
 5445POPC   NC366121  25.784  15.613   3.740 -0.1900  0.0183 -0.1376
 5445POPC   PO466122  25.716  15.991   3.809  0.1113  0.1238 -0.0943
 5445POPC   GL166123  26.076  16.144   4.026  0.0787 -0.0190 -0.1209
 5445POPC   GL266124  25.926  16.253   4.239 -0.1274 -0.3283  0.2640
 5445POPC   C1A66125  26.345  16.156   4.432  0.2588  0.2231 -0.0590
 5445POPC   D2A66126  26.394  16.311   4.898 -0.1276 -0.0933  0.0077
 5445POPC   C3A66127  26.691  16.225   5.265  0.0324  0.1976 -0.0347
 5445POPC   C4A66128  26.913  15.843   5.362  0.5745  0.2936  0.2825
 5445POPC   C1B66129  26.180  16.637   4.474  0.1387  0.0900 -0.0552
 5445POPC   C2B66130  26.251  16.792   4.922 -0.0190 -0.0020  0.0480
 5445POPC   C3B66131  26.281  16.589   5.343 -0.2673 -0.2859  0.3574
 5445POPC   C4B66132  26.195  16.383   5.713 -0.0631  0.5138  0.1973
 5446POPC   NC366133   0.280  27.135   3.769 -0.0836 -0.2058  0.0907
 5446POPC   PO466134   0.029  27.107   3.424 -0.1756 -0.1278  0.1198
 5446POPC   GL166135  -0.080  26.823   3.600  0.3796 -0.2703 -0.3738
 5446POPC   GL266136  -0.179  26.879   3.924 -0.0352 -0.0172  0.1083
 5446POPC   C1A66137   0.156  26.531   3.820 -0.0965  0.0585  0.1890
 5446POPC   D2A66138   0.261  26.319   4.195  0.0726  0.1809 -0.2467
 5446POPC   C3A66139  -0.073  26.278   4.531  0.3021  0.1355  0.1628
 5446POPC   C4A66140  -0.473  26.331   4.473  0.0557 -0.0392  0.0977
 5446POPC   C1B66141  -0.003  26.740   4.334  0.3161  0.1509 -0.1802
 5446POPC   C2B66142   0.224  26.655   4.747 -0.0713 -0.1110  0.0509
 5446POPC   C3B66143   0.615  26.477   4.915  0.1208  0.0815  0.1435
 5446POPC   C4B66144   0.999  26.185   4.824 -0.1643 -0.0416 -0.4931
 5447POPC   NC366145   8.832  21.137   3.296 -0.2521  0.0572  0.0199
 5447POPC   PO466146   8.731  20.832   3.540  0.1151 -0.1151  0.0273
 5447POPC   GL166147   8.517  20.840   3.935 -0.1996  0.0466 -0.2219
 5447POPC   GL266148   8.486  21.008   4.183 -0.0891  0.1187 -0.1710
 5447POPC   C1A66149   8.615  20.505   4.237 -0.0521 -0.1759 -0.0816
 5447POPC   D2A66150   8.341  20.330   4.557  0.1723 -0.1221 -0.0959
 5447POPC   C3A66151   8.482  20.216   4.975  0.0818 -0.1246 -0.0610
 5447POPC   C4A66152   8.348  20.416   5.378 -0.1754  0.3318  0.0416
 5447POPC   C1B66153   8.369  21.183   4.556 -0.0223 -0.0691  0.1379
 5447POPC   C2B66154   8.385  21.232   5.066  0.0863  0.3180 -0.1404
 5447POPC   C3B66155   8.532  21.186   5.547  0.2042 -0.3583  0.0523
 5447POPC   C4B66156   8.318  21.157   6.000  0.1402 -0.0422 -0.1315
 5448POPC   NC366157  17.106  21.883   3.759  0.1025 -0.0121 -0.2596
 5448POPC   PO466158  17.062  21.472   3.765  0.1293  0.1523 -0.0106
 5448POPC   GL166159  17.095  21.601   4.150  0.0007  0.2003 -0.3536
 5448POPC   GL266160  17.269  21.343   4.226 -0.0384 -0.0192  0.0284
 5448POPC   C1A66161  16.975  21.390   4.610  0.2817 -0.0669  0.3258
 5448POPC   D2A66162  17.142  21.397   5.058 -0.2308 -0.1519 -0.0084
 5448POPC   C3A66163  16.893  21.452   5.389 -0.0691  0.1889 -0.0709
 5448POPC   C4A66164  16.867  21.774   5.737  0.1629  0.2345  0.0933
 5448POPC   C1B66165  17.367  21.683   4.516 -0.1819 -0.1781 -0.1999
 5448POPC   C2B66166  17.118  21.892   4.829  0.1524  0.0587 -0.0649
 5448POPC   C3B66167  17.161  21.822   5.267 -0.2409 -0.0926  0.1820
 5448POPC   C4B66168  17.249  22.254   5.451 -0.4468 -0.1491 -0.0547
 5449POPC   NC366169  10.550  16.966   3.885 -0.1732 -0.1601  0.1307
 5449POPC   PO466170  10.488  16.619   4.009 -0.0501  0.0305 -0.4121
 5449POPC   GL166171  10.325  16.594   4.340 -0.1209  0.1823  0.0344
 5449POPC   GL266172  10.519  16.318   4.433  0.2657  0.1175 -0.1345
 5449POPC   C1A66173  10.516  16.772   4.746 -0.3813 -0.0899  0.3254
 5449POPC   D2A66174  10.380  16.927   5.188 -0.0021  0.0179 -0.0637
 5449POPC   C3A66175  10.814  16.791   5.354  0.2008  0.1461  0.0875
 5449POPC   C4A66176  11.217  16.635   5.478  0.4617 -0.0544 -0.2092
 5449POPC   C1B66177  10.780  16.138   4.769 -0.2199  0.0146 -0.1738
 5449POPC   C2B66178  11.196  16.173   5.019 -0.0984 -0.3408 -0.2370
 5449POPC   C3B66179  11.482  16.249   5.388 -0.4110 -0.0744  0.0443
 5449POPC   C4B66180  11.725  16.005   5.732 -0.2094  0.1416  0.3411
 5450POPC   NC366181  18.349   7.278   2.932  0.1139  0.0621 -0.0365
 5450POPC   PO466182  18.001   7.256   3.080  0.2837 -0.2104  0.5635
 5450POPC   GL166183  17.972   6.911   3.230  0.0721 -0.1204  0.0147
 5450POPC   GL266184  17.871   6.901   3.476 -0.0578 -0.1557 -0.1155
 5450POPC   C1A66185  18.073   6.486   3.324  0.1900  0.2657  0.0665
 5450POPC   D2A66186  17.960   6.141   3.666  0.1099 -0.1015  0.0065
 5450POPC   C3A66187  17.629   6.187   3.951 -0.0471 -0.0527 -0.1435
 5450POPC   C4A66188  17.494   6.293   4.415 -0.1372 -0.0088  0.2739
 5450POPC   C1B66189  18.002   6.602   3.846 -0.2006 -0.0894  0.0488
 5450POPC   C2B66190  18.233   6.461   4.221 -0.0240  0.1328 -0.0915
 5450POPC   C3B66191  18.501   6.460   4.588 -0.1859  0.0345  0.2489
 5450POPC   C4B66192  18.779   6.194   4.878  0.2383  0.1874  0.0350
 5451POPC   NC366193  23.346  30.758   3.504  0.2795 -0.0196  0.0198
 5451POPC   PO466194  23.490  30.383   3.481  0.1695 -0.0791 -0.2263
 5451POPC   GL166195  23.539  30.358   3.907 -0.1597 -0.4840  0.1984
 5451POPC   GL266196  23.678  30.639   3.896 -0.0747 -0.0930 -0.1546
 5451POPC   C1A66197  23.565  30.254   4.312 -0.1030 -0.1155 -0.2624
 5451POPC   D2A66198  23.667  30.338   4.739  0.0012 -0.0589 -0.3400
 5451POPC   C3A66199  23.971  30.706   4.765  0.0455 -0.2299  0.2819
 5451POPC   C4A66200  24.301  31.024   4.897 -0.1045 -0.1966  0.0371
 5451POPC   C1B66201  23.658  30.865   4.296  0.2843  0.0797 -0.0414
 5451POPC   C2B66202  23.945  31.172   4.474 -0.0009 -0.2449  0.1841
 5451POPC   C3B66203  23.965  31.542   4.766 -0.0326 -0.1621 -0.3681
 5451POPC   C4B66204  24.076  31.825   5.176 -0.0260 -0.2936 -0.0099
 5452POPC   NC366205   9.560  14.516   3.733 -0.0738  0.0191 -0.2630
 5452POPC   PO466206   9.360  14.194   3.715  0.0298  0.1933  0.1736
 5452POPC   GL166207   9.190  14.082   4.093  0.1464 -0.0331  0.3855
 5452POPC   GL266208   8.984  14.017   4.049  0.0535  0.2303 -0.2398
 5452POPC   C1A66209   9.331  13.895   4.496 -0.2684 -0.0928 -0.2714
 5452POPC   D2A66210   9.593  13.848   4.887 -0.1231 -0.0807 -0.0639
 5452POPC   C3A66211   9.283  13.894   5.270 -0.0151  0.2730 -0.0707
 5452POPC   C4A66212   9.381  13.874   5.747  0.0136 -0.3067 -0.0350
 5452POPC   C1B66213   8.787  14.077   4.466 -0.2199  0.1533 -0.0117
 5452POPC   C2B66214   8.563  14.071   4.946  0.5156  0.1378 -0.0016
 5452POPC   C3B66215   8.462  14.018   5.389  0.1754  0.2542  0.0019
 5452POPC   C4B66216   8.353  14.005   5.849  0.0152  0.0196 -0.1514
 5453POPC   NC366217  23.778  23.476   2.808  0.3245 -0.1923  0.2323
 5453POPC   PO466218  23.815  23.404   3.205  0.0172 -0.1394 -0.2715
 5453POPC   GL166219  23.803  23.366   3.634  0.1499 -0.2504  0.0674
 5453POPC   GL266220  24.016  23.265   3.662  0.0727 -0.5079  0.3403
 5453POPC   C1A66221  23.615  23.419   4.079 -0.1126 -0.0206  0.0867
 5453POPC   D2A66222  23.643  23.664   4.519 -0.2200 -0.0391 -0.0863
 5453POPC   C3A66223  23.756  23.499   4.954  0.1297 -0.1113 -0.0739
 5453POPC   C4A66224  23.642  23.556   5.368  0.1249 -0.0452  0.1065
 5453POPC   C1B66225  24.112  23.245   4.068 -0.0260 -0.1789 -0.1010
 5453POPC   C2B66226  24.138  23.353   4.511 -0.1097  0.1107 -0.0217
 5453POPC   C3B66227  24.228  23.320   4.964  0.1688  0.0373  0.0519
 5453POPC   C4B66228  24.148  23.238   5.430  0.2153  0.1873 -0.1260
 5454POPC   NC366229   4.138  11.996   3.451  0.1146  0.0059  0.1910
 5454POPC   PO466230   4.097  11.661   3.252 -0.0352 -0.3092  0.1601
 5454POPC   GL166231   4.163  11.569   3.605  0.1383  0.3596 -0.0113
 5454POPC   GL266232   4.311  11.695   3.784 -0.1857  0.2109  0.1470
 5454POPC   C1A66233   4.420  11.177   3.741 -0.3405  0.2969  0.0572
 5454POPC   D2A66234   4.689  10.799   3.839  0.3062  0.1763  0.1071
 5454POPC   C3A66235   4.748  10.998   4.240 -0.1711 -0.0843  0.2852
 5454POPC   C4A66236   4.946  10.830   4.602  0.1848  0.2418  0.0491
 5454POPC   C1B66237   4.743  11.601   3.892 -0.0331 -0.0191  0.1350
 5454POPC   C2B66238   5.210  11.594   3.910 -0.2218 -0.3452  0.2748
 5454POPC   C3B66239   5.634  11.513   4.188  0.0760  0.0491 -0.2361
 5454POPC   C4B66240   6.084  11.330   4.142 -0.0951  0.1793 -0.2281
 5455POPC   NC366241  25.936   9.086   4.031 -0.1304  0.1944  0.0260
 5455POPC   PO466242  25.963   8.714   3.908 -0.0496  0.0108 -0.0838
 5455POPC   GL166243  25.953   8.700   4.297  0.2366 -0.0050  0.0390
 5455POPC   GL266244  25.679   8.617   4.508 -0.2401  0.0056  0.0059
 5455POPC   C1A66245  25.870   9.030   4.595 -0.0487  0.2664  0.0033
 5455POPC   D2A66246  26.279   9.200   4.770 -0.0157  0.0756 -0.1019
 5455POPC   C3A66247  26.552   9.460   4.952  0.1144 -0.2421  0.1076
 5455POPC   C4A66248  26.683   9.837   5.193  0.4313 -0.1348  0.2256
 5455POPC   C1B66249  25.718   8.640   4.944 -0.0296 -0.0170  0.0151
 5455POPC   C2B66250  25.572   8.812   5.378 -0.5672  0.1671 -0.3670
 5455POPC   C3B66251  25.462   8.883   5.871 -0.1598  0.1202 -0.1041
 5455POPC   C4B66252  25.205   8.859   6.221 -0.1024 -0.0450  0.0156
 5456POPC   NC366253  13.214  10.768   3.579  0.0259  0.0346  0.0269
 5456POPC   PO466254  13.249  11.169   3.469 -0.1117  0.2892 -0.1609
 5456POPC   GL166255  13.303  11.273   3.819 -0.2253 -0.0984  0.5044
 5456POPC   GL266256  13.169  11.546   3.894 -0.2782 -0.4158  0.2405
 5456POPC   C1A66257  13.068  11.199   4.199 -0.0664 -0.1539 -0.0701
 5456POPC   D2A66258  13.233  11.249   4.593  0.0688 -0.1651 -0.1412
 5456POPC   C3A66259  13.577  11.405   4.895 -0.0895  0.4201  0.4087
 5456POPC   C4A66260  13.976  11.520   5.016  0.0522 -0.1161 -0.2552
 5456POPC   C1B66261  13.012  11.699   4.274 -0.0035 -0.0407  0.0631
 5456POPC   C2B66262  13.154  11.779   4.730  0.0268  0.0076 -0.0778
 5456POPC   C3B66263  13.339  11.808   5.161 -0.3744 -0.0652  0.0667
 5456POPC   C4B66264  13.413  11.727   5.607  0.1452  0.1073  0.2896
 5457POPC   NC366265  18.712  26.990   3.508 -0.0587 -0.3572 -0.2554
 5457POPC   PO466266  19.039  27.131   3.618 -0.3265  0.3018 -0.3124
 5457POPC   GL166267  18.943  27.320   4.036  0.3629 -0.2755 -0.3553
 5457POPC   GL266268  18.662  27.301   4.022  0.1455 -0.3014 -0.1025
 5457POPC   C1A66269  19.080  27.746   4.201  0.0604 -0.2277 -0.1548
 5457POPC   D2A66270  19.082  28.211   4.267  0.0380 -0.0364  0.0687
 5457POPC   C3A66271  19.067  28.170   4.714  0.2402 -0.0851  0.1293
 5457POPC   C4A66272  19.086  27.916   5.091  0.2152 -0.2566 -0.3333
 5457POPC   C1B66273  18.753  27.427   4.458  0.2488 -0.0515  0.2320
 5457POPC   C2B66274  18.781  27.529   4.847  0.2367 -0.0562  0.0873
 5457POPC   C3B66275  18.947  27.490   5.290  0.1229 -0.0785 -0.3522
 5457POPC   C4B66276  19.291  27.708   5.502  0.1664  0.0971  0.4607
 5458POPC   NC366277  10.373  11.423   4.116 -0.1620  0.0620  0.1566
 5458POPC   PO466278  10.605  11.287   3.824 -0.1475  0.1810 -0.1958
 5458POPC   GL166279  10.873  11.493   4.146 -0.1146  0.3980 -0.2983
 5458POPC   GL266280  11.153  11.479   4.244  0.0516 -0.1706 -0.3591
 5458POPC   C1A66281  10.639  11.590   4.507 -0.2901 -0.0696 -0.1051
 5458POPC   D2A66282  10.746  11.545   4.942 -0.3907  0.1958  0.1391
 5458POPC   C3A66283  10.840  11.541   5.317  0.0109 -0.2707  0.0681
 5458POPC   C4A66284  10.730  11.501   5.785  0.1811 -0.2311 -0.1003
 5458POPC   C1B66285  11.391  11.490   4.631  0.1756 -0.3362 -0.1835
 5458POPC   C2B66286  11.412  11.386   5.094 -0.1327 -0.0704 -0.2249
 5458POPC   C3B66287  11.355  11.393   5.545 -0.0282  0.1955  0.3628
 5458POPC   C4B66288  11.636  11.166   5.819 -0.2359  0.1789  0.0324
 5459POPC   NC366289  30.235  23.372   3.634  0.0303  0.2401 -0.1037
 5459POPC   PO466290  30.476  23.519   3.363 -0.1633 -0.1931 -0.0226
 5459POPC   GL166291  30.792  23.652   3.611  0.5052 -0.0481 -0.1613
 5459POPC   GL266292  30.790  23.331   3.730 -0.1465  0.0060 -0.2241
 5459POPC   C1A66293  30.952  23.819   4.020 -0.1066  0.1975  0.1319
 5459POPC   D2A66294  30.896  23.729   4.470  0.1662 -0.1480 -0.3294
 5459POPC   C3A66295  31.004  24.026   4.743  0.1560 -0.3667 -0.3135
 5459POPC   C4A66296  31.171  24.195   5.139  0.1951  0.0311  0.0508
 5459POPC   C1B66297  30.673  23.380   4.170 -0.2025 -0.1762 -0.0013
 5459POPC   C2B66298  30.648  23.243   4.627  0.1927  0.0393  0.0436
 5459POPC   C3B66299  30.578  23.205   5.079  0.2273  0.2073  0.0315
 5459POPC   C4B66300  30.611  23.312   5.528  0.3928 -0.0828 -0.0191
 5460POPC   NC366301  17.875  18.479   3.756 -0.0444 -0.1109  0.3260
 5460POPC   PO466302  17.478  18.462   3.727 -0.0075 -0.1461 -0.0915
 5460POPC   GL166303  17.480  18.631   4.187  0.0090  0.2017 -0.2472
 5460POPC   GL266304  17.263  18.884   4.194  0.0357 -0.1347 -0.3309
 5460POPC   C1A66305  17.451  18.487   4.629 -0.1075  0.1013  0.0364
 5460POPC   D2A66306  17.366  18.683   5.043 -0.4408 -0.0434 -0.0615
 5460POPC   C3A66307  17.413  18.471   5.461  0.0323  0.1274 -0.1189
 5460POPC   C4A66308  17.415  18.052   5.738  0.0233  0.2863 -0.1179
 5460POPC   C1B66309  17.410  19.013   4.608  0.0621  0.0710  0.0672
 5460POPC   C2B66310  17.575  19.231   4.967  0.2181 -0.2891  0.1606
 5460POPC   C3B66311  17.885  19.346   5.293 -0.2730 -0.2268 -0.0777
 5460POPC   C4B66312  17.745  19.469   5.750 -0.0045 -0.0001  0.1835
 5461POPC   NC366313   6.024   7.306   4.097  0.0464  0.0993  0.0727
 5461POPC   PO466314   5.840   7.602   3.868  0.0020  0.0819 -0.3503
 5461POPC   GL166315   5.862   7.841   4.192  0.2515  0.3415 -0.2007
 5461POPC   GL266316   6.174   7.830   4.131 -0.1612  0.2590 -0.1327
 5461POPC   C1A66317   5.626   8.050   4.551 -0.4827 -0.0780 -0.1028
 5461POPC   D2A66318   5.441   8.284   4.899  0.1612  0.1958  0.0355
 5461POPC   C3A66319   5.284   8.046   5.272 -0.3428  0.0287  0.1015
 5461POPC   C4A66320   5.280   7.744   5.641 -0.1292 -0.1255 -0.1346
 5461POPC   C1B66321   6.227   7.728   4.553  0.0146  0.2133  0.1146
 5461POPC   C2B66322   6.302   7.612   5.007 -0.1098  0.1469 -0.1449
 5461POPC   C3B66323   6.283   7.779   5.439 -0.1570  0.2077 -0.1121
 5461POPC   C4B66324   6.120   7.902   5.796 -0.0377  0.1303 -0.0852
 5462POPC   NC366325   0.688  14.894   3.654  0.0691 -0.2664  0.2150
 5462POPC   PO466326   1.058  14.859   3.480  0.1335  0.0123 -0.0360
 5462POPC   GL166327   1.374  15.041   3.792  0.0988 -0.0324  0.3443
 5462POPC   GL266328   1.353  15.341   3.928  0.0577  0.0529 -0.1669
 5462POPC   C1A66329   1.519  14.856   4.249 -0.0858  0.2949  0.0735
 5462POPC   D2A66330   1.504  14.778   4.714  0.0556  0.0514  0.0049
 5462POPC   C3A66331   1.649  14.856   5.169  0.1652  0.3071  0.1505
 5462POPC   C4A66332   1.518  14.900   5.616 -0.3785 -0.0371  0.0389
 5462POPC   C1B66333   1.036  15.455   4.260  0.2300 -0.1241  0.1356
 5462POPC   C2B66334   1.106  15.569   4.736 -0.1280  0.0770  0.0802
 5462POPC   C3B66335   1.040  15.479   5.161  0.1518  0.3263 -0.1082
 5462POPC   C4B66336   1.436  15.521   5.456 -0.0029  0.0378  0.2353
 5463POPC   NC366337  12.760   7.666   3.379 -0.0563  0.1202 -0.1596
 5463POPC   PO466338  13.187   7.706   3.427  0.1011  0.0089 -0.0819
 5463POPC   GL166339  13.120   7.381   3.735  0.1201 -0.0451  0.2926
 5463POPC   GL266340  13.363   7.479   3.936 -0.0378  0.3778  0.0332
 5463POPC   C1A66341  12.762   7.322   4.049 -0.1678  0.1973 -0.2820
 5463POPC   D2A66342  12.602   7.547   4.410  0.2190  0.1026 -0.0007
 5463POPC   C3A66343  12.130   7.589   4.615 -0.1328 -0.1472 -0.0327
 5463POPC   C4A66344  11.802   7.817   4.379 -0.0213  0.0372  0.1599
 5463POPC   C1B66345  13.219   7.505   4.379 -0.0492  0.1378  0.0658
 5463POPC   C2B66346  13.043   7.601   4.810 -0.0015 -0.3521  0.0572
 5463POPC   C3B66347  13.143   7.651   5.220  0.1491  0.1703 -0.0126
 5463POPC   C4B66348  13.047   7.943   5.601 -0.0970 -0.0929  0.0277
 5464POPC   NC366349   5.114   9.698   3.570 -0.5668  0.1866 -0.1654
 5464POPC   PO466350   4.955   9.634   3.219 -0.1146  0.1648  0.1138
 5464POPC   GL166351   5.175   9.962   3.110 -0.0031  0.0942  0.2247
 5464POPC   GL266352   5.467  10.021   3.315  0.1628 -0.1658  0.3659
 5464POPC   C1A66353   5.186  10.398   3.296  0.4939  0.0247 -0.2606
 5464POPC   D2A66354   5.160  10.753   3.601  0.3002 -0.1869  0.1799
 5464POPC   C3A66355   5.204  11.091   3.932 -0.3059  0.0928  0.0554
 5464POPC   C4A66356   5.224  11.291   4.345  0.0638  0.0670  0.2474
 5464POPC   C1B66357   5.790  10.262   3.441  0.0798  0.0537  0.0255
 5464POPC   C2B66358   6.100  10.565   3.701  0.0361 -0.1450  0.0975
 5464POPC   C3B66359   6.320  10.940   3.849 -0.1551 -0.1736  0.2810
 5464POPC   C4B66360   6.395  11.371   3.764  0.4627 -0.0663 -0.0478
 5465POPC   NC366361  16.754  11.333   3.598 -0.1942 -0.1015 -0.0897
 5465POPC   PO466362  16.638  10.981   3.464  0.1590 -0.0827  0.1134
 5465POPC   GL166363  16.465  10.918   3.800  0.0052 -0.1281  0.3246
 5465POPC   GL266364  16.367  11.137   3.966 -0.1506  0.0007  0.3218
 5465POPC   C1A66365  16.629  10.741   4.202 -0.0550 -0.5652 -0.1110
 5465POPC   D2A66366  16.869  10.725   4.634  0.1284 -0.0079 -0.0927
 5465POPC   C3A66367  16.751  10.995   5.017 -0.1253 -0.2650 -0.1546
 5465POPC   C4A66368  16.805  11.297   5.337  0.2201  0.0835  0.0578
 5465POPC   C1B66369  16.111  10.815   4.226 -0.1270  0.1884  0.1194
 5465POPC   C2B66370  15.857  10.588   4.492 -0.0212 -0.0501 -0.0194
 5465POPC   C3B66371  15.489  10.282   4.615  0.3337  0.0675 -0.0318
 5465POPC   C4B66372  15.259  10.065   4.939 -0.0965  0.0065  0.0204
 5466POPC   NC366373  26.630  24.211   4.175 -0.0044  0.0240 -0.1537
 5466POPC   PO466374  26.349  24.368   3.955 -0.0191  0.2417 -0.1064
 5466POPC   GL166375  26.074  24.609   4.196  0.5191 -0.2943 -0.1229
 5466POPC   GL266376  26.351  24.715   4.304 -0.2865 -0.3336  0.0395
 5466POPC   C1A66377  25.880  24.973   4.346 -0.1322  0.0464  0.1000
 5466POPC   D2A66378  25.757  24.916   4.805  0.0033  0.1335 -0.1322
 5466POPC   C3A66379  25.512  25.204   5.068 -0.1461 -0.0400 -0.1032
 5466POPC   C4A66380  25.452  25.142   5.507  0.1231 -0.0380 -0.4048
 5466POPC   C1B66381  26.224  24.881   4.737 -0.1452  0.0012  0.0286
 5466POPC   C2B66382  26.195  24.762   5.180 -0.2235 -0.2661  0.1751
 5466POPC   C3B66383  25.868  24.952   5.350  0.2431 -0.0217 -0.1448
 5466POPC   C4B66384  25.730  24.789   5.738  0.1137  0.0666  0.1693
 5467POPC   NC366385   9.016   2.205   4.079  0.0616 -0.0336  0.4331
 5467POPC   PO466386   9.397   2.123   3.915  0.3269 -0.0535  0.0711
 5467POPC   GL166387   9.539   2.195   4.206 -0.0488  0.0132 -0.0222
 5467POPC   GL266388   9.660   1.938   4.273 -0.0063 -0.1389 -0.2190
 5467POPC   C1A66389   9.468   2.351   4.670 -0.1668 -0.0401 -0.0650
 5467POPC   D2A66390   9.530   2.545   5.075  0.1066  0.0086 -0.0568
 5467POPC   C3A66391   9.543   2.342   5.463  0.1188 -0.1879  0.5725
 5467POPC   C4A66392   9.811   2.166   5.730  0.3370 -0.0302 -0.0599
 5467POPC   C1B66393   9.676   1.908   4.761  0.0706  0.1521  0.1006
 5467POPC   C2B66394   9.800   2.027   5.207 -0.1485  0.0360  0.1203
 5467POPC   C3B66395  10.207   2.090   5.412  0.1618 -0.1302 -0.0076
 5467POPC   C4B66396  10.280   1.754   5.722  0.0581  0.0283  0.2166
 5468POPC   NC366397  11.513   8.577   3.955 -0.0308  0.0099 -0.0755
 5468POPC   PO466398  11.308   8.798   3.660  0.2492  0.0094 -0.0296
 5468POPC   GL166399  11.214   8.882   4.045 -0.1638  0.0068  0.3728
 5468POPC   GL266400  10.905   8.790   3.986  0.0163 -0.3923  0.3237
 5468POPC   C1A66401  11.109   8.686   4.444 -0.3158  0.2951  0.0151
 5468POPC   D2A66402  11.214   8.795   4.887  0.2195  0.1827  0.2023
 5468POPC   C3A66403  11.230   8.684   5.336  0.1328 -0.0731 -0.1477
 5468POPC   C4A66404  11.255   8.822   5.763  0.1516  0.1335 -0.1068
 5468POPC   C1B66405  10.707   8.951   4.314 -0.1238 -0.2173  0.5086
 5468POPC   C2B66406  10.672   8.924   4.741 -0.0989  0.0795 -0.1448
 5468POPC   C3B66407  10.724   8.848   5.208  0.1129 -0.1120 -0.1822
 5468POPC   C4B66408  10.768   8.701   5.681 -0.0464 -0.0699 -0.0248
 5469POPC   NC366409  23.037  29.433   4.148 -0.0332  0.0943 -0.1640
 5469POPC   PO466410  23.359  29.358   3.939  0.2773 -0.1549  0.1533
 5469POPC   GL166411  23.471  29.280   4.289  0.0020  0.2478  0.2718
 5469POPC   GL266412  23.598  29.004   4.251  0.0526 -0.0456  0.0351
 5469POPC   C1A66413  23.575  29.478   4.703 -0.1906  0.0554 -0.1027
 5469POPC   D2A66414  23.697  29.400   5.098  0.1417  0.1598 -0.4212
 5469POPC   C3A66415  23.470  29.232   5.483 -0.3129  0.1656  0.2118
 5469POPC   C4A66416  23.402  29.280   5.904  0.1866 -0.0888  0.2834
 5469POPC   C1B66417  23.693  28.966   4.701 -0.1152  0.0192 -0.3217
 5469POPC   C2B66418  23.894  28.914   5.147  0.3143  0.1751  0.0538
 5469POPC   C3B66419  24.002  29.136   5.555  0.0640  0.0216 -0.1092
 5469POPC   C4B66420  23.885  29.073   5.982 -0.0156 -0.0640  0.0674
 5470POPC   NC366421  16.741  19.413   3.405 -0.3759  0.2878  0.0704
 5470POPC   PO466422  17.006  19.294   3.707  0.2471  0.0217 -0.0164
 5470POPC   GL166423  16.905  19.221   4.090  0.2032 -0.0450 -0.0984
 5470POPC   GL266424  16.993  19.366   4.225 -0.2834  0.1398  0.1752
 5470POPC   C1A66425  16.497  19.224   4.342 -0.0651  0.0881 -0.0982
 5470POPC   D2A66426  16.357  19.293   4.815 -0.3531 -0.1798  0.2200
 5470POPC   C3A66427  16.564  19.167   5.195  0.1393  0.5048 -0.1448
 5470POPC   C4A66428  16.571  19.092   5.622  0.3907 -0.0099 -0.0054
 5470POPC   C1B66429  17.239  19.518   4.560 -0.0336 -0.2247 -0.1488
 5470POPC   C2B66430  17.192  19.640   5.003  0.0491  0.1598  0.3403
 5470POPC   C3B66431  17.357  19.508   5.410  0.1535  0.1237  0.0421
 5470POPC   C4B66432  17.146  19.412   5.788 -0.0148  0.0590  0.5298
 5471POPC   NC366433  15.302  15.802   3.651  0.0482 -0.2105  0.2765
 5471POPC   PO466434  15.226  16.198   3.598  0.7314  0.1858 -0.3401
 5471POPC   GL166435  15.245  16.251   3.960 -0.0492 -0.1679  0.0049
 5471POPC   GL266436  15.181  16.611   4.009  0.2439  0.0417 -0.0400
 5471POPC   C1A66437  15.191  16.357   4.451  0.2149  0.0041  0.2283
 5471POPC   D2A66438  15.262  16.379   4.921  0.0074  0.0922  0.0809
 5471POPC   C3A66439  15.469  16.741   5.243 -0.0895 -0.2187  0.1034
 5471POPC   C4A66440  15.589  17.126   5.471 -0.0786 -0.0840 -0.0016
 5471POPC   C1B66441  15.126  16.823   4.427  0.0039  0.0340 -0.1817
 5471POPC   C2B66442  15.316  17.003   4.776  0.1216 -0.0562 -0.1921
 5471POPC   C3B66443  15.533  17.375   5.000  0.0775  0.1596 -0.0695
 5471POPC   C4B66444  15.713  17.575   5.347 -0.2141 -0.0577  0.3733
 5472POPC   NC366445  31.685  19.305   3.429  0.0394  0.1009  0.1455
 5472POPC   PO466446  31.605  19.643   3.537 -0.1905 -0.2470 -0.1869
 5472POPC   GL166447  31.593  19.664   3.999 -0.3091  0.2653 -0.1193
 5472POPC   GL266448  31.727  19.540   4.207  0.0339 -0.0167  0.0931
 5472POPC   C1A66449  31.432  19.822   4.407  0.0309 -0.1800  0.0374
 5472POPC   D2A66450  31.497  19.881   4.885 -0.0021 -0.1902  0.0914
 5472POPC   C3A66451  31.280  19.809   5.336 -0.1746  0.3169  0.2688
 5472POPC   C4A66452  31.056  19.947   5.749  0.0322  0.0046 -0.0138
 5472POPC   C1B66453  31.914  19.451   4.670 -0.0373  0.1691 -0.2622
 5472POPC   C2B66454  31.744  19.469   5.099 -0.0717 -0.1889  0.3286
 5472POPC   C3B66455  31.674  19.530   5.530  0.1199 -0.2729  0.1437
 5472POPC   C4B66456  31.673  19.685   5.898 -0.0627  0.1269 -0.0311
 5473POPC   NC366457   8.089   6.905   3.936  0.1476  0.2056  0.1469
 5473POPC   PO466458   8.079   6.513   3.856  0.0294  0.1090 -0.0458
 5473POPC   GL166459   8.296   6.300   4.119  0.2407 -0.0748 -0.0989
 5473POPC   GL266460   8.413   6.532   4.342 -0.5699  0.0449  0.1400
 5473POPC   C1A66461   8.211   6.096   4.527 -0.0702 -0.2190  0.0137
 5473POPC   D2A66462   8.509   5.870   4.806 -0.3682 -0.5664  0.2601
 5473POPC   C3A66463   8.365   5.538   5.166  0.1786  0.2821  0.0814
 5473POPC   C4A66464   8.465   5.551   5.637 -0.0606  0.2428 -0.0743
 5473POPC   C1B66465   8.557   6.351   4.783 -0.1343 -0.0118 -0.4710
 5473POPC   C2B66466   8.848   6.644   4.969 -0.1093 -0.1374 -0.3097
 5473POPC   C3B66467   9.114   6.777   5.267  0.1115 -0.0330 -0.1880
 5473POPC   C4B66468   9.302   6.870   5.729 -0.2366 -0.0169  0.1756
 5474POPC   NC366469   5.643   5.762   3.825 -0.0435 -0.2266  0.1592
 5474POPC   PO466470   5.851   5.978   3.539  0.2753  0.2551  0.0417
 5474POPC   GL166471   6.005   6.067   3.880  0.2393 -0.1629 -0.0874
 5474POPC   GL266472   6.043   6.358   3.980  0.2021 -0.0547 -0.0483
 5474POPC   C1A66473   5.953   5.820   4.215  0.0564 -0.0920 -0.2905
 5474POPC   D2A66474   5.869   5.578   4.588 -0.1954  0.1902 -0.1690
 5474POPC   C3A66475   5.848   5.267   4.972  0.0874 -0.2887  0.1381
 5474POPC   C4A66476   5.989   5.105   5.385  0.0757 -0.1334  0.2147
 5474POPC   C1B66477   6.197   6.528   4.431  0.0789  0.0847 -0.1302
 5474POPC   C2B66478   6.495   6.461   4.827  0.0903  0.1308 -0.2361
 5474POPC   C3B66479   6.720   6.769   5.086 -0.1010  0.1422  0.1564
 5474POPC   C4B66480   6.812   6.898   5.546 -0.0307  0.1548 -0.0831
 5475POPC   NC366481  22.231  11.299   3.421 -0.0811 -0.3146 -0.1737
 5475POPC   PO466482  21.913  11.316   3.624  0.0723 -0.2641  0.2449
 5475POPC   GL166483  21.658  11.414   3.836 -0.1084  0.1370  0.0032
 5475POPC   GL266484  21.731  11.648   4.086 -0.1926 -0.0415  0.0260
 5475POPC   C1A66485  21.511  11.221   4.236 -0.1531  0.1654  0.4354
 5475POPC   D2A66486  21.261  11.275   4.623 -0.1478  0.2101  0.1069
 5475POPC   C3A66487  21.517  11.255   4.981  0.1643 -0.2795 -0.4473
 5475POPC   C4A66488  21.615  11.416   5.400 -0.1539 -0.1427 -0.1480
 5475POPC   C1B66489  21.654  11.641   4.551 -0.4183 -0.0831  0.1552
 5475POPC   C2B66490  21.718  11.761   5.013 -0.0438  0.1475  0.0434
 5475POPC   C3B66491  21.994  11.861   5.400 -0.1375  0.0413  0.2125
 5475POPC   C4B66492  22.228  11.812   5.806 -0.0392  0.0220  0.0010
 5476POPC   NC366493  12.665  16.116   3.188 -0.1031 -0.2679 -0.0049
 5476POPC   PO466494  12.534  15.862   3.460  0.0389  0.0089 -0.0603
 5476POPC   GL166495  12.581  15.963   3.831 -0.0812 -0.0799  0.3789
 5476POPC   GL266496  12.712  15.722   3.946 -0.1959  0.0728  0.1100
 5476POPC   C1A66497  12.855  16.191   4.183  0.0313 -0.0643  0.0077
 5476POPC   D2A66498  13.027  16.295   4.622  0.2064  0.0290  0.0760
 5476POPC   C3A66499  12.867  16.286   5.138 -0.2407  0.1684 -0.0797
 5476POPC   C4A66500  12.703  16.520   5.395  0.3112 -0.2150  0.0539
 5476POPC   C1B66501  12.765  15.751   4.443 -0.2518  0.3021  0.1520
 5476POPC   C2B66502  12.814  15.553   4.841 -0.0430 -0.0895  0.1613
 5476POPC   C3B66503  13.027  15.583   5.265 -0.1667 -0.0393 -0.1948
 5476POPC   C4B66504  12.907  15.493   5.726  0.2471  0.0311  0.0257
 5477POPC   NC366505   5.114  26.888   3.411  0.1251  0.2529  0.0857
 5477POPC   PO466506   4.715  26.801   3.470  0.0852 -0.1162 -0.5125
 5477POPC   GL166507   4.707  26.558   3.802 -0.0195  0.0081  0.0518
 5477POPC   GL266508   4.567  26.747   3.972  0.0128  0.3233  0.2261
 5477POPC   C1A66509   4.856  26.331   4.155  0.0286  0.4240 -0.1105
 5477POPC   D2A66510   5.004  26.007   4.426  0.3012 -0.3024 -0.2995
 5477POPC   C3A66511   5.094  26.058   4.883  0.0266 -0.0322 -0.0843
 5477POPC   C4A66512   4.977  25.909   5.255 -0.1893  0.4388 -0.2018
 5477POPC   C1B66513   4.321  26.958   4.269 -0.0607  0.2202 -0.2147
 5477POPC   C2B66514   4.100  27.123   4.595 -0.0403  0.1136 -0.1606
 5477POPC   C3B66515   3.688  27.230   4.752  0.1703 -0.1690 -0.1495
 5477POPC   C4B66516   3.688  27.264   5.204  0.0268 -0.1880 -0.1955
 5478POPC   NC366517  22.719  21.489   3.263 -0.1400 -0.0953 -0.0337
 5478POPC   PO466518  22.556  21.226   3.537 -0.0149 -0.3711  0.1385
 5478POPC   GL166519  22.737  21.329   3.848 -0.4724 -0.2962 -0.1889
 5478POPC   GL266520  22.966  21.565   3.762  0.1520 -0.1579 -0.2401
 5478POPC   C1A66521  22.797  21.216   4.278  0.0155  0.0555 -0.0626
 5478POPC   D2A66522  23.104  20.973   4.483 -0.0094  0.0063 -0.0764
 5478POPC   C3A66523  23.011  20.620   4.775  0.0719  0.0524  0.2080
 5478POPC   C4A66524  22.881  20.192   4.855  0.1169  0.1754  0.2849
 5478POPC   C1B66525  23.063  21.649   4.179  0.2039  0.0100 -0.1154
 5478POPC   C2B66526  23.046  21.504   4.641  0.2662  0.3176  0.4756
 5478POPC   C3B66527  22.948  21.179   5.016 -0.0885 -0.1020  0.0208
 5478POPC   C4B66528  23.089  20.801   5.230  0.2311  0.3534  0.1862
 5479POPC   NC366529  25.367  16.326   4.115 -0.0890  0.2619  0.2158
 5479POPC   PO466530  25.516  16.030   4.311 -0.2006 -0.4298  0.2715
 5479POPC   GL166531  25.614  15.869   4.578 -0.0004 -0.2563  0.3430
 5479POPC   GL266532  25.729  15.627   4.632 -0.0790 -0.0645 -0.2230
 5479POPC   C1A66533  25.619  15.959   5.044 -0.1206 -0.0681 -0.2484
 5479POPC   D2A66534  25.660  15.829   5.460  0.1407 -0.0204 -0.1808
 5479POPC   C3A66535  25.901  15.994   5.825 -0.0097  0.0017 -0.1556
 5479POPC   C4A66536  26.016  15.814   6.249 -0.1797 -0.0101  0.0612
 5479POPC   C1B66537  25.682  15.431   5.059 -0.2061 -0.1758  0.1374
 5479POPC   C2B66538  25.707  15.326   5.495 -0.0038  0.1118 -0.1285
 5479POPC   C3B66539  25.486  15.568   5.806  0.1299 -0.0193  0.0831
 5479POPC   C4B66540  25.352  15.610   6.256  0.0614  0.3033  0.1302
 5480POPC   NC366541  18.093  20.646   3.779 -0.1180  0.0837  0.1148
 5480POPC   PO466542  18.460  20.786   3.800 -0.2026 -0.1157  0.3369
 5480POPC   GL166543  18.442  20.789   4.200 -0.0958 -0.0486  0.0135
 5480POPC   GL266544  18.327  20.895   4.409  0.1205 -0.0924 -0.2264
 5480POPC   C1A66545  18.800  20.949   4.546 -0.0162  0.1531 -0.0460
 5480POPC   D2A66546  19.107  21.282   4.519 -0.0958 -0.1627  0.2424
 5480POPC   C3A66547  19.068  21.588   4.873 -0.0914  0.2071 -0.1831
 5480POPC   C4A66548  19.084  21.814   5.295  0.1942 -0.3165  0.0498
 5480POPC   C1B66549  18.335  20.694   4.831 -0.0894  0.4103 -0.1511
 5480POPC   C2B66550  18.407  20.512   5.212 -0.1797  0.2108 -0.0684
 5480POPC   C3B66551  18.417  20.288   5.637 -0.0886  0.0929  0.1216
 5480POPC   C4B66552  18.319  20.099   6.072 -0.2798 -0.3390  0.2459
 5481POPC   NC366553   6.813  16.606   3.901  0.2396 -0.1229 -0.1600
 5481POPC   PO466554   6.780  16.237   3.908  0.0532  0.2934  0.2215
 5481POPC   GL166555   7.042  16.163   4.242  0.3638 -0.1159 -0.0618
 5481POPC   GL266556   7.210  15.925   4.259  0.0533  0.0527 -0.0265
 5481POPC   C1A66557   6.987  16.299   4.683 -0.0583 -0.3137  0.0232
 5481POPC   D2A66558   7.085  16.144   5.111  0.0560 -0.0114  0.1039
 5481POPC   C3A66559   7.031  15.719   4.884 -0.1702  0.1440  0.3358
 5481POPC   C4A66560   6.808  15.382   5.033  0.1484  0.2420  0.2788
 5481POPC   C1B66561   7.384  16.042   4.680 -0.2904  0.2629 -0.1101
 5481POPC   C2B66562   7.612  15.883   5.080 -0.1968  0.0443  0.2274
 5481POPC   C3B66563   7.561  15.741   5.512 -0.2092  0.2157  0.1990
 5481POPC   C4B66564   7.512  15.904   5.936 -0.0532 -0.0611  0.0020
 5482POPC   NC366565  22.207   3.035   3.636 -0.4550  0.1474 -0.1120
 5482POPC   PO466566  22.543   3.098   3.468  0.0387  0.1482  0.0521
 5482POPC   GL166567  22.580   3.102   3.913  0.2669 -0.0183  0.0271
 5482POPC   GL266568  22.809   3.032   3.917 -0.2886  0.0105 -0.0586
 5482POPC   C1A66569  22.571   2.717   4.193  0.1682 -0.1955 -0.3161
 5482POPC   D2A66570  22.517   2.305   4.366 -0.0575 -0.2375  0.1208
 5482POPC   C3A66571  22.480   2.261   4.815 -0.0177 -0.1685  0.1958
 5482POPC   C4A66572  22.341   2.259   5.242 -0.1606  0.2332 -0.1536
 5482POPC   C1B66573  22.726   3.181   4.382 -0.1335 -0.3421  0.1902
 5482POPC   C2B66574  22.341   3.327   4.703 -0.1316  0.0872  0.2479
 5482POPC   C3B66575  22.256   3.516   5.110  0.3550  0.2728  0.0742
 5482POPC   C4B66576  22.180   3.535   5.523  0.0759 -0.1499 -0.0823
 5483POPC   NC366577  30.889  27.235   3.424  0.0668  0.0010  0.1041
 5483POPC   PO466578  30.826  27.192   3.837  0.1325 -0.4820 -0.3083
 5483POPC   GL166579  30.820  26.904   4.119 -0.0052  0.0449  0.0642
 5483POPC   GL266580  31.073  26.781   4.107 -0.1734 -0.2838 -0.1223
 5483POPC   C1A66581  30.705  27.068   4.584  0.0683  0.2519  0.2067
 5483POPC   D2A66582  30.741  27.082   5.040 -0.2093  0.0695  0.0870
 5483POPC   C3A66583  30.711  27.006   5.517 -0.0985  0.2342 -0.0485
 5483POPC   C4A66584  30.695  27.100   6.001 -0.0319 -0.0284  0.0721
 5483POPC   C1B66585  31.191  26.915   4.554 -0.1838  0.0217  0.2575
 5483POPC   C2B66586  31.354  26.633   4.867 -0.0352  0.1488  0.0190
 5483POPC   C3B66587  31.740  26.590   5.163 -0.3307 -0.0358  0.2384
 5483POPC   C4B66588  32.137  26.333   5.330  0.1551  0.0023  0.0429
 5484POPC   NC366589  24.359  28.368   4.078  0.3021  0.1215 -0.4315
 5484POPC   PO466590  24.076  28.174   3.892 -0.2449  0.1920 -0.0853
 5484POPC   GL166591  23.981  28.214   4.293 -0.0836 -0.0655  0.0213
 5484POPC   GL266592  23.855  28.047   4.491 -0.0045  0.0284  0.0724
 5484POPC   C1A66593  24.254  28.340   4.671  0.1561 -0.3420  0.1779
 5484POPC   D2A66594  24.374  28.548   5.045  0.1690 -0.0185  0.1516
 5484POPC   C3A66595  24.141  28.412   5.367 -0.1652  0.0736  0.1176
 5484POPC   C4A66596  24.031  27.983   5.460  0.0643  0.1321  0.2530
 5484POPC   C1B66597  24.035  27.909   4.928 -0.0942 -0.2372 -0.0817
 5484POPC   C2B66598  24.449  28.051   5.089  0.0062 -0.1385 -0.1718
 5484POPC   C3B66599  24.822  28.249   5.160 -0.1555  0.0621 -0.2133
 5484POPC   C4B66600  24.996  28.308   5.557 -0.1903  0.1424 -0.0025
 5485POPC   NC366601  20.584   9.498   3.462  0.2120 -0.1997 -0.1264
 5485POPC   PO466602  20.885   9.755   3.510 -0.1774 -0.1602 -0.1006
 5485POPC   GL166603  20.795   9.717   3.949 -0.1819 -0.0895  0.1208
 5485POPC   GL266604  20.986   9.926   4.007  0.1437 -0.1248 -0.0952
 5485POPC   C1A66605  20.934   9.437   4.324  0.1811  0.0289 -0.2183
 5485POPC   D2A66606  21.289   9.209   4.587  0.1452  0.0452  0.2382
 5485POPC   C3A66607  21.447   9.148   5.054 -0.0800  0.1950 -0.1470
 5485POPC   C4A66608  21.591   8.868   5.383 -0.1280 -0.2700 -0.2544
 5485POPC   C1B66609  20.708   9.972   4.320  0.1161  0.2540  0.0378
 5485POPC   C2B66610  20.602   9.716   4.688  0.1469 -0.1976  0.2324
 5485POPC   C3B66611  20.472   9.805   5.094  0.0724  0.1686 -0.3473
 5485POPC   C4B66612  20.567   9.975   5.523 -0.0569 -0.2383  0.1126
 5486POPC   NC366613  18.166   8.485   3.599 -0.1647  0.3880  0.1146
 5486POPC   PO466614  17.882   8.630   3.805  0.2294 -0.0118  0.0007
 5486POPC   GL166615  18.070   8.759   4.239 -0.3800  0.2271 -0.3184
 5486POPC   GL266616  18.151   8.479   4.385 -0.4053 -0.1638  0.1921
 5486POPC   C1A66617  17.801   8.761   4.663 -0.4296  0.1340 -0.2514
 5486POPC   D2A66618  17.385   8.936   4.713 -0.0764  0.0814 -0.0493
 5486POPC   C3A66619  17.257   9.067   5.096 -0.0470  0.1251  0.3184
 5486POPC   C4A66620  17.148   9.169   5.554  0.0458 -0.3147 -0.1603
 5486POPC   C1B66621  18.194   8.363   4.857  0.4524  0.2829 -0.2318
 5486POPC   C2B66622  18.251   8.493   5.307  0.1159  0.0621  0.1840
 5486POPC   C3B66623  18.427   8.728   5.671  0.0490  0.4199  0.0850
 5486POPC   C4B66624  18.693   8.538   6.029 -0.1144  0.1241 -0.1278
 5487POPC   NC366625  10.652  11.857   3.848  0.0495  0.2130  0.0877
 5487POPC   PO466626  10.955  12.048   3.714  0.0186 -0.0752 -0.0739
 5487POPC   GL166627  11.010  11.982   4.106  0.0286  0.2745 -0.3139
 5487POPC   GL266628  11.328  11.935   4.041  0.2031  0.0101  0.1696
 5487POPC   C1A66629  11.009  11.884   4.560 -0.0864 -0.2482  0.0643
 5487POPC   D2A66630  11.179  11.786   4.981 -0.4168 -0.1250 -0.1174
 5487POPC   C3A66631  11.384  12.027   5.342  0.0241 -0.0784  0.1841
 5487POPC   C4A66632  11.610  11.992   5.720  0.0307  0.2480  0.1410
 5487POPC   C1B66633  11.604  11.952   4.427  0.1156 -0.0557 -0.2964
 5487POPC   C2B66634  11.622  11.887   4.907  0.1703  0.2643  0.1995
 5487POPC   C3B66635  11.815  11.693   5.281  0.0361 -0.0799  0.0424
 5487POPC   C4B66636  12.048  12.030   5.539  0.0345  0.1500  0.3300
 5488POPC   NC366637   2.219   5.232   3.587  0.0119  0.1412  0.0609
 5488POPC   PO466638   1.965   5.141   3.887 -0.0970  0.3327 -0.1782
 5488POPC   GL166639   1.848   5.303   4.254  0.1485 -0.0280  0.3699
 5488POPC   GL266640   1.775   5.036   4.316  0.0254 -0.1155  0.2274
 5488POPC   C1A66641   1.825   5.559   4.649  0.0694 -0.3856  0.3415
 5488POPC   D2A66642   1.834   5.728   5.090  0.0692  0.0832 -0.1694
 5488POPC   C3A66643   2.283   5.682   5.207  0.2004  0.0624  0.0713
 5488POPC   C4A66644   2.484   5.658   5.612  0.1104  0.0644  0.1373
 5488POPC   C1B66645   1.888   4.878   4.765 -0.0710 -0.5615 -0.1088
 5488POPC   C2B66646   1.814   4.739   5.193 -0.2270  0.3068  0.1886
 5488POPC   C3B66647   1.820   4.865   5.640 -0.0077 -0.0420 -0.1759
 5488POPC   C4B66648   1.889   4.810   6.096 -0.0104  0.0582 -0.0236
 5489POPC   NC366649  29.754  14.717   3.922 -0.0691  0.0727 -0.0809
 5489POPC   PO466650  30.121  14.558   3.784  0.1459 -0.2003 -0.1134
 5489POPC   GL166651  30.224  14.681   4.089  0.0130 -0.0552  0.1285
 5489POPC   GL266652  30.450  14.567   4.237 -0.2625  0.2561  0.0041
 5489POPC   C1A66653  30.011  14.818   4.474  0.2880  0.2938 -0.1856
 5489POPC   D2A66654  30.013  15.243   4.742  0.1483  0.0758 -0.2749
 5489POPC   C3A66655  29.960  15.274   5.180 -0.3715  0.0014  0.2267
 5489POPC   C4A66656  29.855  15.260   5.558 -0.0549  0.2070  0.2214
 5489POPC   C1B66657  30.603  14.592   4.705  0.3438  0.0749 -0.2403
 5489POPC   C2B66658  30.759  14.627   5.189  0.0201  0.0348 -0.0660
 5489POPC   C3B66659  30.999  14.758   5.521  0.1394 -0.0946  0.0099
 5489POPC   C4B66660  31.230  15.125   5.664 -0.1110 -0.2878  0.2024
 5490POPC   NC366661   8.042  30.286   3.437  0.2274 -0.0168 -0.0261
 5490POPC   PO466662   8.254  30.041   3.719  0.2327  0.1636  0.0769
 5490POPC   GL166663   7.839  30.007   3.803  0.1738  0.1856 -0.1315
 5490POPC   GL266664   7.549  29.999   3.892 -0.1179  0.0510 -0.0490
 5490POPC   C1A66665   7.771  29.643   4.116 -0.3391 -0.1983  0.1950
 5490POPC   D2A66666   7.674  29.713   4.534  0.3338  0.4365  0.0492
 5490POPC   C3A66667   7.362  30.002   4.826  0.0473  0.0719  0.0018
 5490POPC   C4A66668   7.296  30.063   5.283 -0.2461 -0.2038 -0.0531
 5490POPC   C1B66669   7.809  30.111   4.253  0.0458  0.1900 -0.0313
 5490POPC   C2B66670   7.746  30.236   4.675 -0.0789 -0.0932 -0.0845
 5490POPC   C3B66671   7.609  30.400   5.060  0.0751  0.1823 -0.0247
 5490POPC   C4B66672   7.653  30.626   5.420  0.0056 -0.1749 -0.2092
 5491POPC   NC366673  22.333  12.203   3.754 -0.1278  0.1239 -0.1738
 5491POPC   PO466674  22.194  12.557   3.664 -0.0356  0.2702 -0.3185
 5491POPC   GL166675  22.021  12.525   4.057 -0.2420  0.0259  0.1658
 5491POPC   GL266676  21.996  12.810   4.083  0.1053  0.0955  0.0172
 5491POPC   C1A66677  22.269  12.342   4.396  0.0512  0.2713 -0.1972
 5491POPC   D2A66678  22.141  12.495   4.826 -0.2395 -0.0706 -0.0419
 5491POPC   C3A66679  22.266  12.179   5.146  0.0295 -0.0542 -0.2414
 5491POPC   C4A66680  22.387  12.268   5.580  0.1972 -0.0516 -0.1346
 5491POPC   C1B66681  22.248  12.862   4.437 -0.1298  0.2291  0.2193
 5491POPC   C2B66682  22.192  13.025   4.850  0.1715 -0.0250  0.1446
 5491POPC   C3B66683  22.580  13.241   4.981  0.1488  0.2749 -0.0773
 5491POPC   C4B66684  22.916  13.529   4.894 -0.2523  0.1621 -0.0977
 5492POPC   NC366685  15.205   2.101   3.394  0.2477 -0.0992 -0.2068
 5492POPC   PO466686  15.500   1.885   3.438 -0.0709 -0.2169 -0.0398
 5492POPC   GL166687  15.543   1.957   3.764 -0.1529 -0.2703 -0.0809
 5492POPC   GL266688  15.393   2.150   3.941  0.1167 -0.0929 -0.3636
 5492POPC   C1A66689  15.602   1.820   4.234  0.0051  0.3733 -0.0168
 5492POPC   D2A66690  15.537   1.726   4.662  0.4696 -0.2543  0.0648
 5492POPC   C3A66691  15.743   1.718   5.105 -0.1476  0.3097 -0.0690
 5492POPC   C4A66692  15.938   1.444   5.399  0.1401 -0.1904 -0.2023
 5492POPC   C1B66693  15.511   2.272   4.363 -0.1273 -0.0113 -0.0117
 5492POPC   C2B66694  15.334   2.367   4.788 -0.0840 -0.3730 -0.0653
 5492POPC   C3B66695  15.169   2.385   5.229 -0.2255  0.0730 -0.1651
 5492POPC   C4B66696  14.973   2.441   5.601  0.0069  0.2531 -0.2566
 5493POPC   NC366697   4.725   7.691   3.543  0.0464 -0.1173  0.1563
 5493POPC   PO466698   4.745   7.354   3.718 -0.0222 -0.1076  0.2728
 5493POPC   GL166699   4.470   7.109   4.034  0.0289 -0.1142 -0.1254
 5493POPC   GL266700   4.603   7.192   4.254  0.1508  0.2389 -0.1164
 5493POPC   C1A66701   4.009   6.996   4.075  0.0456 -0.1014 -0.2311
 5493POPC   D2A66702   3.754   6.733   4.412  0.0211 -0.2268 -0.1170
 5493POPC   C3A66703   3.558   6.889   4.809  0.2180 -0.4077  0.0616
 5493POPC   C4A66704   3.561   7.220   5.121 -0.2359  0.1489 -0.0095
 5493POPC   C1B66705   4.780   6.981   4.570 -0.0349  0.2580  0.0461
 5493POPC   C2B66706   5.024   6.842   4.899  0.1208  0.2655 -0.2436
 5493POPC   C3B66707   5.043   6.877   5.347  0.0262 -0.1340 -0.4322
 5493POPC   C4B66708   4.812   6.600   5.707 -0.1713 -0.0615  0.4425
 5494POPC   NC366709   3.335  29.343   3.550 -0.0150  0.0102 -0.3601
 5494POPC   PO466710   3.283  29.767   3.672  0.2463 -0.0437  0.2114
 5494POPC   GL166711   3.145  29.619   3.970 -0.4538 -0.3451 -0.0614
 5494POPC   GL266712   2.932  29.447   4.057  0.1435 -0.1762  0.3756
 5494POPC   C1A66713   3.257  29.690   4.384  0.0705 -0.0689 -0.3102
 5494POPC   D2A66714   3.565  29.980   4.586 -0.4085 -0.0651  0.1724
 5494POPC   C3A66715   3.634  29.981   5.044  0.1154  0.2740 -0.1217
 5494POPC   C4A66716   3.556  30.082   5.448  0.0846 -0.0186  0.0985
 5494POPC   C1B66717   2.800  29.857   4.267 -0.0239 -0.0981 -0.0833
 5494POPC   C2B66718   3.096  30.210   4.343  0.0602 -0.0365 -0.1503
 5494POPC   C3B66719   2.981  30.560   4.609 -0.2867 -0.1314  0.0001
 5494POPC   C4B66720   3.186  30.832   4.934  0.2776  0.1050 -0.3089
 5495POPC   NC366721   3.182  22.849   3.537 -0.0524 -0.0432  0.0906
 5495POPC   PO466722   3.531  22.773   3.723 -0.0158  0.0816 -0.0638
 5495POPC   GL166723   3.330  22.881   4.034 -0.0546  0.0835  0.1009
 5495POPC   GL266724   3.022  22.850   4.056 -0.2228  0.1547  0.1511
 5495POPC   C1A66725   3.275  22.908   4.520  0.0253  0.2069  0.1641
 5495POPC   D2A66726   3.106  22.960   4.977 -0.0783  0.1431  0.1225
 5495POPC   C3A66727   3.221  22.618   5.272 -0.0197 -0.0264 -0.1493
 5495POPC   C4A66728   3.204  22.214   5.495  0.2718  0.2526  0.2559
 5495POPC   C1B66729   2.770  22.921   4.455  0.3427 -0.0004 -0.2408
 5495POPC   C2B66730   2.657  22.923   4.855 -0.0593 -0.4724  0.0870
 5495POPC   C3B66731   2.402  22.713   5.162 -0.0608 -0.2225 -0.1837
 5495POPC   C4B66732   2.435  22.782   5.589 -0.2346  0.2742 -0.0381
 5496POPC   NC366733  10.577   2.622   3.916  0.0921  0.0734 -0.1002
 5496POPC   PO466734  10.619   2.253   4.079  0.1164 -0.1236 -0.0734
 5496POPC   GL166735  10.784   2.411   4.319 -0.2422 -0.0780 -0.2457
 5496POPC   GL266736  10.614   2.518   4.501  0.0786  0.0871  0.1497
 5496POPC   C1A66737  11.033   2.351   4.713  0.1781 -0.0056  0.2350
 5496POPC   D2A66738  11.358   2.227   4.928 -0.0748  0.1705 -0.2838
 5496POPC   C3A66739  11.416   2.531   5.273  0.1797 -0.0531  0.2828
 5496POPC   C4A66740  11.479   2.818   5.654  0.0208  0.2712  0.0663
 5496POPC   C1B66741  10.815   2.794   4.783  0.0712  0.1794  0.0180
 5496POPC   C2B66742  10.860   2.722   5.212 -0.0399 -0.0083 -0.4503
 5496POPC   C3B66743  10.519   2.618   5.504  0.4092  0.1582 -0.2327
 5496POPC   C4B66744  10.281   2.364   5.810  0.2253 -0.2584  0.0911
 5497POPC   NC366745  12.368  24.584   3.351  0.2774 -0.0537 -0.1769
 5497POPC   PO466746  11.968  24.485   3.439 -0.1736  0.3021 -0.1266
 5497POPC   GL166747  11.858  24.488   3.863  0.0034 -0.0551  0.2069
 5497POPC   GL266748  12.183  24.548   3.969  0.1412 -0.2106  0.1207
 5497POPC   C1A66749  11.532  24.485   4.246  0.0639 -0.0965 -0.2440
 5497POPC   D2A66750  11.174  24.361   4.545 -0.0583  0.0031 -0.2439
 5497POPC   C3A66751  11.284  24.444   4.984 -0.0555 -0.0339  0.0846
 5497POPC   C4A66752  11.307  24.634   5.366 -0.1072 -0.0907  0.2723
 5497POPC   C1B66753  11.969  24.570   4.392 -0.3264  0.0018 -0.1429
 5497POPC   C2B66754  11.981  24.322   4.798 -0.0355 -0.1122 -0.0745
 5497POPC   C3B66755  11.791  23.961   5.036  0.0588 -0.0166 -0.2115
 5497POPC   C4B66756  11.575  23.616   5.176 -0.0471 -0.0396  0.1509
 5498POPC   NC366757   6.056   5.700   3.200  0.0185  0.0065  0.1835
 5498POPC   PO466758   5.786   5.485   3.420 -0.2967 -0.3521 -0.2307
 5498POPC   GL166759   5.939   5.379   3.745 -0.2957 -0.1349  0.0788
 5498POPC   GL266760   5.727   5.210   3.897  0.2044 -0.1509  0.0441
 5498POPC   C1A66761   6.162   5.317   4.204 -0.0956 -0.2536 -0.1095
 5498POPC   D2A66762   6.520   5.183   4.501  0.0865  0.2679  0.1087
 5498POPC   C3A66763   6.773   5.489   4.703 -0.2940  0.2649 -0.0192
 5498POPC   C4A66764   7.067   5.708   4.989  0.1661  0.0992  0.0373
 5498POPC   C1B66765   5.462   5.378   4.228  0.1152  0.2707  0.1293
 5498POPC   C2B66766   5.432   5.372   4.674  0.2548 -0.0887 -0.3351
 5498POPC   C3B66767   5.281   5.413   5.069  0.1624  0.1416 -0.3298
 5498POPC   C4B66768   5.475   5.595   5.447 -0.1163  0.3754  0.1888
 5499POPC   NC366769  18.035  20.154   3.656 -0.2672  0.1086 -0.0167
 5499POPC   PO466770  17.730  20.159   3.889  0.0354 -0.3121  0.0890
 5499POPC   GL166771  17.514  20.140   4.207 -0.2287 -0.1459 -0.2383
 5499POPC   GL266772  17.737  19.937   4.350  0.0264  0.0159 -0.0955
 5499POPC   C1A66773  17.514  20.373   4.576  0.0099  0.0177  0.1393
 5499POPC   D2A66774  17.576  20.461   5.020  0.2888  0.1776 -0.1420
 5499POPC   C3A66775  17.382  20.353   5.458 -0.1784 -0.1362  0.0571
 5499POPC   C4A66776  17.307  20.307   5.906  0.1556 -0.0606 -0.2181
 5499POPC   C1B66777  17.755  19.912   4.805  0.1203 -0.1668  0.1709
 5499POPC   C2B66778  17.577  19.980   5.191  0.3135 -0.3726  0.2129
 5499POPC   C3B66779  17.769  19.929   5.591  0.2253 -0.1659  0.3909
 5499POPC   C4B66780  17.820  20.180   5.904  0.2129  0.0607  0.1955
 5500POPC   NC366781  18.660  29.961   3.572 -0.0004 -0.0796  0.0136
 5500POPC   PO466782  18.324  29.804   3.472  0.1803 -0.1085  0.1186
 5500POPC   GL166783  18.293  29.946   3.807  0.0476 -0.4643  0.4178
 5500POPC   GL266784  18.372  29.745   4.005 -0.0319  0.1087 -0.3320
 5500POPC   C1A66785  17.929  30.094   4.113 -0.0754  0.1613  0.3228
 5500POPC   D2A66786  17.757  30.127   4.546  0.0058  0.0839 -0.3957
 5500POPC   C3A66787  17.972  30.141   4.971  0.0767  0.1023 -0.0112
 5500POPC   C4A66788  18.198  30.226   5.369 -0.3262 -0.3475  0.5811
 5500POPC   C1B66789  18.133  29.688   4.431  0.1001 -0.2239 -0.0337
 5500POPC   C2B66790  17.918  29.653   4.814 -0.2220  0.0071  0.1250
 5500POPC   C3B66791  17.914  29.349   5.105 -0.2297  0.1315 -0.0445
 5500POPC   C4B66792  17.970  28.900   5.165  0.0640 -0.0278  0.0952
 5501POPC   NC366793   8.803  24.101   3.271  0.2509 -0.1732  0.0133
 5501POPC   PO466794   8.542  23.973   3.501  0.1680 -0.2315 -0.1036
 5501POPC   GL166795   8.620  24.122   3.930 -0.5394  0.2218  0.0768
 5501POPC   GL266796   8.519  23.896   4.173  0.0483 -0.0743 -0.2056
 5501POPC   C1A66797   8.361  24.418   4.210 -0.1143  0.2963  0.0635
 5501POPC   D2A66798   8.121  24.781   4.422  0.0269  0.1543 -0.2696
 5501POPC   C3A66799   8.070  24.905   4.885  0.0211 -0.0653 -0.1188
 5501POPC   C4A66800   8.024  25.332   5.072  0.1564  0.0155 -0.0154
 5501POPC   C1B66801   8.769  23.916   4.583  0.1119  0.0908 -0.0678
 5501POPC   C2B66802   8.956  23.575   4.811  0.0139 -0.0303 -0.0331
 5501POPC   C3B66803   8.997  23.459   5.224  0.0545  0.2349 -0.1062
 5501POPC   C4B66804   9.013  23.334   5.709 -0.0455 -0.2095  0.0533
 5502POPC   NC366805  23.506   6.670   3.121  0.0609 -0.2694 -0.2249
 5502POPC   PO466806  23.457   6.744   3.530 -0.2591  0.2455 -0.2805
 5502POPC   GL166807  23.277   6.705   3.921 -0.0618 -0.0861  0.2626
 5502POPC   GL266808  23.129   6.460   4.011  0.0571 -0.0890 -0.1122
 5502POPC   C1A66809  23.101   6.839   4.335  0.2005  0.0555  0.1670
 5502POPC   D2A66810  23.072   6.617   4.667  0.2177  0.0699 -0.2179
 5502POPC   C3A66811  23.398   6.745   5.005  0.3434 -0.0201  0.1805
 5502POPC   C4A66812  23.734   6.982   4.944 -0.1360 -0.1330  0.1349
 5502POPC   C1B66813  23.451   6.482   4.356  0.0722 -0.3116 -0.2443
 5502POPC   C2B66814  23.826   6.207   4.341  0.0189 -0.0228 -0.2378
 5502POPC   C3B66815  24.082   5.865   4.432 -0.0096 -0.1696 -0.1837
 5502POPC   C4B66816  24.362   5.510   4.524 -0.0115 -0.0205  0.2345
 5503POPC   NC366817  17.530   2.392   3.787  0.2820  0.0432 -0.1555
 5503POPC   PO466818  17.278   2.491   3.494  0.1371  0.1155  0.2327
 5503POPC   GL166819  17.090   2.525   3.889  0.2929  0.0251 -0.0418
 5503POPC   GL266820  17.036   2.775   3.934 -0.1942 -0.0900 -0.1510
 5503POPC   C1A66821  16.828   2.265   4.082  0.1715  0.0272 -0.1746
 5503POPC   D2A66822  16.502   2.048   4.404 -0.0902  0.0178  0.1147
 5503POPC   C3A66823  16.577   1.980   4.909 -0.2543 -0.2087  0.0736
 5503POPC   C4A66824  16.717   1.980   5.312 -0.1308  0.1026 -0.2074
 5503POPC   C1B66825  16.759   2.673   4.241  0.0397  0.3756 -0.0464
 5503POPC   C2B66826  16.723   2.470   4.656 -0.0649 -0.1191  0.0895
 5503POPC   C3B66827  16.645   2.531   5.113 -0.1608 -0.1202  0.2828
 5503POPC   C4B66828  17.025   2.705   5.391  0.0421 -0.1989  0.1313
 5504POPC   NC366829  15.299   9.905   3.203  0.2360 -0.0998  0.1624
 5504POPC   PO466830  15.632  10.009   3.326 -0.1901  0.1872 -0.3422
 5504POPC   GL166831  15.477  10.222   3.633 -0.1878 -0.0978 -0.2683
 5504POPC   GL266832  15.487  10.037   3.807 -0.2238  0.0744 -0.1174
 5504POPC   C1A66833  15.246  10.447   3.911 -0.1579  0.0913 -0.7259
 5504POPC   D2A66834  15.256  10.652   4.310 -0.0837  0.0601  0.0109
 5504POPC   C3A66835  15.115  10.662   4.778  0.2156 -0.0552 -0.0238
 5504POPC   C4A66836  15.143  10.406   5.250 -0.0265 -0.0192 -0.2292
 5504POPC   C1B66837  15.152  10.057   4.126  0.0545  0.0045 -0.0817
 5504POPC   C2B66838  14.968  10.236   4.469 -0.0502 -0.2195 -0.0650
 5504POPC   C3B66839  14.769  10.254   4.896 -0.1017 -0.3044 -0.0520
 5504POPC   C4B66840  14.570  10.311   5.336  0.1448  0.2032 -0.0693
 5505POPC   NC366841  22.570  15.856   3.380  0.0156  0.0843 -0.0928
 5505POPC   PO466842  22.517  15.649   3.738  0.1679  0.1291 -0.0117
 5505POPC   GL166843  22.266  15.589   4.033  0.1195  0.1644  0.0323
 5505POPC   GL266844  22.365  15.378   4.280  0.0084  0.1886 -0.0640
 5505POPC   C1A66845  22.163  15.874   4.355 -0.2174  0.1523  0.2694
 5505POPC   D2A66846  21.924  16.197   4.611 -0.5341 -0.1164  0.0905
 5505POPC   C3A66847  21.489  16.071   4.601  0.0395 -0.3147 -0.0991
 5505POPC   C4A66848  21.244  15.761   4.828 -0.0334 -0.1802  0.0116
 5505POPC   C1B66849  22.505  15.147   4.674  0.1105  0.0505 -0.1454
 5505POPC   C2B66850  22.446  15.295   5.123 -0.1644  0.0669  0.2092
 5505POPC   C3B66851  22.588  15.141   5.537 -0.1153 -0.0274  0.0127
 5505POPC   C4B66852  22.821  14.977   5.897  0.1499 -0.4781 -0.1569
 5506POPC   NC366853   7.213  23.708   3.702 -0.2073 -0.0002  0.1074
 5506POPC   PO466854   7.564  23.879   3.750  0.1564  0.0103 -0.2231
 5506POPC   GL166855   7.437  23.784   4.110  0.2611 -0.0269 -0.1279
 5506POPC   GL266856   7.158  23.734   4.228 -0.2559  0.1497  0.2019
 5506POPC   C1A66857   7.576  23.726   4.544  0.0428  0.4128 -0.2391
 5506POPC   D2A66858   7.370  23.542   4.886  0.2888 -0.0085  0.1330
 5506POPC   C3A66859   7.253  23.810   5.133  0.1890  0.0516 -0.0457
 5506POPC   C4A66860   7.232  24.271   5.128  0.0842 -0.0587 -0.1915
 5506POPC   C1B66861   6.910  23.832   4.602  0.3133  0.1726 -0.0566
 5506POPC   C2B66862   6.761  24.041   4.983 -0.0636  0.0872 -0.0774
 5506POPC   C3B66863   6.754  24.074   5.418  0.0203  0.1101 -0.0862
 5506POPC   C4B66864   7.058  23.890   5.766  0.1273  0.0009 -0.1142
 5507POPC   NC366865   4.157  31.606   3.632 -0.3202 -0.2222 -0.1586
 5507POPC   PO466866   4.080  31.259   3.753  0.0250 -0.1450 -0.2068
 5507POPC   GL166867   4.206  31.362   4.125  0.0116  0.1863  0.0843
 5507POPC   GL266868   4.244  31.598   4.098 -0.0656 -0.4153 -0.1805
 5507POPC   C1A66869   4.556  31.124   4.352 -0.3225  0.1943 -0.2746
 5507POPC   D2A66870   4.668  30.881   4.712 -0.0114 -0.0270 -0.1982
 5507POPC   C3A66871   4.451  30.763   5.092  0.4284  0.2241  0.3680
 5507POPC   C4A66872   4.163  30.482   5.233  0.1218  0.1122 -0.1910
 5507POPC   C1B66873   4.313  31.502   4.555  0.3556  0.1078 -0.3763
 5507POPC   C2B66874   4.624  31.370   4.881  0.1786 -0.1819 -0.0524
 5507POPC   C3B66875   4.847  31.597   5.228  0.0741 -0.1574 -0.4403
 5507POPC   C4B66876   5.038  31.837   5.606 -0.1199 -0.1915 -0.0636
 5508POPC   NC366877   0.650   2.410   3.803  0.0415 -0.2709  0.0701
 5508POPC   PO466878   0.292   2.365   3.673 -0.1392  0.0089  0.1120
 5508POPC   GL166879   0.239   2.186   4.013 -0.0341  0.1195  0.0810
 5508POPC   GL266880   0.516   2.092   4.157  0.3320 -0.0698  0.3539
 5508POPC   C1A66881   0.109   1.918   4.352  0.2665  0.0422 -0.0521
 5508POPC   D2A66882   0.077   1.698   4.791  0.3221  0.0305  0.1637
 5508POPC   C3A66883   0.240   1.343   5.076  0.1577 -0.0268 -0.3103
 5508POPC   C4A66884   0.252   1.032   5.363 -0.0028  0.0311  0.2722
 5508POPC   C1B66885   0.564   2.101   4.643  0.2545  0.0685  0.0046
 5508POPC   C2B66886   0.836   2.029   5.037  0.0730 -0.2683 -0.1094
 5508POPC   C3B66887   0.856   1.626   5.385 -0.1168  0.0853  0.4341
 5508POPC   C4B66888   0.709   1.369   5.764 -0.0041  0.2704 -0.2292
 5509POPC   NC366889  30.729  26.047   3.476  0.1143 -0.1539  0.0314
 5509POPC   PO466890  30.412  26.162   3.678 -0.0806 -0.1514 -0.3323
 5509POPC   GL166891  30.499  25.993   4.006 -0.2304  0.3400  0.0559
 5509POPC   GL266892  30.814  25.965   3.957 -0.3067 -0.0505 -0.1360
 5509POPC   C1A66893  30.740  26.047   4.400 -0.2965  0.1298  0.2357
 5509POPC   D2A66894  30.966  26.041   4.749 -0.2543  0.2805  0.3918
 5509POPC   C3A66895  30.895  26.058   5.229  0.2781 -0.3000 -0.4221
 5509POPC   C4A66896  30.928  25.604   5.387  0.1208  0.0953 -0.0720
 5509POPC   C1B66897  31.217  25.885   4.236  0.3001  0.1830  0.0672
 5509POPC   C2B66898  31.382  25.765   4.580 -0.5052 -0.1169 -0.2190
 5509POPC   C3B66899  31.360  25.967   5.039  0.0737  0.1410  0.4034
 5509POPC   C4B66900  31.333  25.935   5.541  0.1063 -0.0857  0.1824
 5510POPC   NC366901  31.165  15.758   3.489 -0.2486  0.2028 -0.0401
 5510POPC   PO466902  31.481  15.963   3.633 -0.0952 -0.2260  0.1071
 5510POPC   GL166903  31.575  15.781   3.921 -0.1012 -0.1720  0.1098
 5510POPC   GL266904  31.394  15.510   3.875  0.1758 -0.1928  0.0114
 5510POPC   C1A66905  31.507  15.617   4.301  0.0990 -0.0907 -0.0048
 5510POPC   D2A66906  31.563  15.625   4.748  0.4288  0.0056  0.1183
 5510POPC   C3A66907  31.904  15.775   4.999 -0.1212  0.0955  0.0065
 5510POPC   C4A66908  32.178  15.876   5.337  0.3520  0.2939 -0.4363
 5510POPC   C1B66909  31.116  15.392   4.209 -0.0604  0.3001  0.0329
 5510POPC   C2B66910  31.027  15.360   4.677 -0.1126 -0.2362 -0.0780
 5510POPC   C3B66911  31.193  15.516   5.064  0.0675 -0.2015 -0.1661
 5510POPC   C4B66912  31.275  15.569   5.475  0.2502 -0.0905  0.4068
 5511POPC   NC366913   9.464   9.268   3.508  0.2303 -0.0964 -0.0850
 5511POPC   PO466914   9.797   9.049   3.657  0.1692 -0.2473 -0.1248
 5511POPC   GL166915  10.063   8.992   3.853 -0.0986 -0.0284 -0.1438
 5511POPC   GL266916  10.122   8.921   4.120  0.0452 -0.1869  0.0942
 5511POPC   C1A66917  10.427   8.662   3.873  0.0320  0.2213 -0.0809
 5511POPC   D2A66918  10.481   8.229   3.998 -0.3217  0.1597 -0.2112
 5511POPC   C3A66919  10.641   7.993   4.327  0.0691  0.0674 -0.0972
 5511POPC   C4A66920  10.603   8.044   4.818  0.1302  0.1695 -0.0716
 5511POPC   C1B66921  10.046   8.650   4.432  0.3990 -0.1219  0.0158
 5511POPC   C2B66922   9.945   8.562   4.810 -0.2998 -0.2611 -0.0724
 5511POPC   C3B66923   9.896   8.331   5.141  0.0058  0.1020  0.1077
 5511POPC   C4B66924   9.646   8.269   5.501  0.1099  0.1329 -0.1769
 5512POPC   NC366925  18.518  17.133   4.310 -0.0792  0.0436  0.1832
 5512POPC   PO466926  18.820  17.252   4.124  0.2992  0.1520  0.0422
 5512POPC   GL166927  19.069  17.225   4.446  0.2941  0.2504 -0.1188
 5512POPC   GL266928  19.229  17.008   4.321 -0.0346  0.1575  0.0152
 5512POPC   C1A66929  19.380  17.454   4.703 -0.1001 -0.2847 -0.0967
 5512POPC   D2A66930  19.778  17.723   4.808  0.1304 -0.1108 -0.0706
 5512POPC   C3A66931  20.185  17.901   4.883  0.0213 -0.0447 -0.0977
 5512POPC   C4A66932  20.589  18.103   4.853 -0.0357 -0.0260  0.2687
 5512POPC   C1B66933  19.643  17.063   4.579 -0.0532 -0.2263  0.0285
 5512POPC   C2B66934  19.986  17.083   4.892  0.4048  0.1536  0.0972
 5512POPC   C3B66935  20.359  16.941   5.193  0.0565  0.0891  0.0624
 5512POPC   C4B66936  20.707  16.863   5.467 -0.2842 -0.2253  0.0301
 5513POPC   NC366937   1.553  23.412   3.592  0.3172 -0.1111  0.0105
 5513POPC   PO466938   1.433  23.711   3.415 -0.1144 -0.0009  0.1540
 5513POPC   GL166939   1.242  23.694   3.851 -0.1833 -0.2527 -0.2697
 5513POPC   GL266940   1.130  23.965   3.780  0.2203 -0.2659  0.3569
 5513POPC   C1A66941   1.323  23.941   4.228 -0.2392  0.2299 -0.0642
 5513POPC   D2A66942   1.430  24.059   4.623 -0.1238 -0.1809 -0.3721
 5513POPC   C3A66943   1.440  24.414   4.926  0.2192  0.0803  0.1258
 5513POPC   C4A66944   1.487  24.604   5.368 -0.1595  0.1657 -0.2504
 5513POPC   C1B66945   0.786  24.055   4.133 -0.0805  0.0454 -0.1211
 5513POPC   C2B66946   0.518  24.042   4.581 -0.1562 -0.3719 -0.0488
 5513POPC   C3B66947   0.560  24.030   5.024  0.1996 -0.1581 -0.1082
 5513POPC   C4B66948   0.495  23.969   5.521  0.0873 -0.2165  0.1351
 5514POPC   NC366949  18.133   1.462   3.381 -0.1106  0.3373  0.2205
 5514POPC   PO466950  17.924   1.469   3.729  0.0672 -0.2494  0.0304
 5514POPC   GL166951  17.979   1.571   4.133  0.2092  0.1527  0.0446
 5514POPC   GL266952  18.099   1.283   4.247 -0.2382 -0.0119  0.1551
 5514POPC   C1A66953  18.190   1.867   4.394 -0.4729  0.0487 -0.0772
 5514POPC   D2A66954  18.171   1.961   4.843  0.0377 -0.0058  0.2702
 5514POPC   C3A66955  18.172   1.651   5.226 -0.3633  0.2494  0.2507
 5514POPC   C4A66956  18.524   1.651   5.521  0.0401  0.0393  0.4355
 5514POPC   C1B66957  18.023   1.448   4.647 -0.0748  0.1958 -0.0524
 5514POPC   C2B66958  17.746   1.518   5.001 -0.1919 -0.2125 -0.1921
 5514POPC   C3B66959  17.610   1.328   5.381 -0.0175 -0.0055 -0.1300
 5514POPC   C4B66960  17.626   1.055   5.786 -0.2073  0.0893 -0.2867
 5515POPC   NC366961  22.738  29.292   3.697 -0.0691  0.0568  0.0199
 5515POPC   PO466962  22.629  29.578   3.480 -0.0712 -0.1920  0.4288
 5515POPC   GL166963  22.677  29.662   3.955 -0.2562  0.5948 -0.1287
 5515POPC   GL266964  22.437  29.603   4.078 -0.2082  0.0180 -0.1174
 5515POPC   C1A66965  22.898  30.010   4.104 -0.1562  0.2691 -0.2065
 5515POPC   D2A66966  23.032  30.257   4.525  0.0196  0.2206  0.0100
 5515POPC   C3A66967  23.270  30.159   4.929  0.0520  0.0251 -0.1041
 5515POPC   C4A66968  23.324  29.749   5.105  0.3326 -0.2276 -0.1376
 5515POPC   C1B66969  22.688  29.677   4.425 -0.3424  0.0809 -0.1745
 5515POPC   C2B66970  22.818  29.976   4.823  0.1530 -0.0633  0.6319
 5515POPC   C3B66971  22.860  30.149   5.252 -0.1569 -0.1065 -0.2431
 5515POPC   C4B66972  22.938  30.032   5.726 -0.3478 -0.0039  0.0348
 5516POPC   NC366973  10.877   0.239   3.493 -0.0643 -0.1563  0.0650
 5516POPC   PO466974  11.187   0.093   3.616 -0.0926 -0.1418 -0.0084
 5516POPC   GL166975  11.270  -0.043   3.816 -0.0914  0.0375 -0.1114
 5516POPC   GL266976  11.123  -0.069   4.083 -0.1204 -0.0425 -0.2217
 5516POPC   C1A66977  11.536  -0.231   4.097 -0.3062  0.3945  0.5464
 5516POPC   D2A66978  11.892  -0.479   4.101 -0.1770  0.1420 -0.0332
 5516POPC   C3A66979  11.912  -0.683   4.538  0.0850  0.0461  0.2604
 5516POPC   C4A66980  11.832  -0.948   4.961 -0.1110 -0.0596 -0.2075
 5516POPC   C1B66981  11.209  -0.177   4.485 -0.3769  0.3094  0.0935
 5516POPC   C2B66982  11.110  -0.502   4.847 -0.1736 -0.2902  0.3210
 5516POPC   C3B66983  11.040  -0.438   5.295 -0.0461 -0.0082  0.0305
 5516POPC   C4B66984  10.809  -0.443   5.707  0.0520 -0.1097  0.0060
 5517POPC   NC366985  21.777  25.080   3.882 -0.0344  0.0781  0.0129
 5517POPC   PO466986  21.558  24.723   3.938 -0.3512 -0.0155  0.2468
 5517POPC   GL166987  21.666  24.583   4.263  0.1085 -0.2152 -0.1487
 5517POPC   GL266988  21.631  24.925   4.362 -0.0175 -0.1272  0.0740
 5517POPC   C1A66989  22.045  24.590   4.551  0.1701 -0.0239 -0.4591
 5517POPC   D2A66990  22.270  24.909   4.646  0.0098  0.0987  0.2150
 5517POPC   C3A66991  22.324  24.775   5.071  0.2565  0.2059  0.2147
 5517POPC   C4A66992  22.581  24.940   5.421 -0.0774  0.0486  0.1491
 5517POPC   C1B66993  21.646  24.750   4.795 -0.2129  0.0630  0.1164
 5517POPC   C2B66994  21.839  24.515   5.155  0.0402 -0.2895 -0.0354
 5517POPC   C3B66995  22.201  24.555   5.471 -0.1030  0.3612 -0.0477
 5517POPC   C4B66996  22.646  24.466   5.465  0.1309  0.1517 -0.0795
 5518POPC   NC366997  26.446   7.990   3.471  0.2163  0.1475 -0.0215
 5518POPC   PO466998  26.476   8.096   3.831  0.0570 -0.0679  0.0648
 5518POPC   GL166999  26.268   8.291   4.071  0.0839  0.1635  0.0262
 5518POPC   GL267000  26.366   8.550   4.108  0.0063 -0.0805 -0.1185
 5518POPC   C1A67001  26.212   8.267   4.491 -0.1327  0.0740 -0.3615
 5518POPC   D2A67002  25.826   8.192   4.753 -0.0425 -0.1561  0.0977
 5518POPC   C3A67003  25.953   8.302   5.172 -0.1670  0.2422 -0.1921
 5518POPC   C4A67004  25.872   7.976   5.516  0.0326 -0.1627 -0.0869
 5518POPC   C1B67005  26.346   8.741   4.528 -0.1449  0.1812  0.0926
 5518POPC   C2B67006  26.194   8.751   4.940 -0.1871 -0.0900 -0.2988
 5518POPC   C3B67007  26.094   8.722   5.372  0.3594 -0.1287  0.1038
 5518POPC   C4B67008  25.939   8.896   5.749  0.2855  0.1516  0.2171
 5519POPC   NC367009  14.168  24.683   4.011 -0.1361 -0.1294  0.1259
 5519POPC   PO467010  14.420  24.951   3.894 -0.0080  0.0912  0.0023
 5519POPC   GL167011  14.551  24.773   4.231 -0.3296 -0.4198  0.0852
 5519POPC   GL267012  14.799  24.703   4.210 -0.0065  0.1058  0.0994
 5519POPC   C1A67013  14.332  24.566   4.536  0.2501  0.0022  0.2035
 5519POPC   D2A67014  14.076  24.199   4.676 -0.2052 -0.1970  0.1821
 5519POPC   C3A67015  14.093  23.993   5.074  0.0462  0.3118 -0.0518
 5519POPC   C4A67016  14.159  23.788   5.491  0.1288 -0.0607  0.1384
 5519POPC   C1B67017  15.165  24.677   4.471  0.0677 -0.1091  0.1441
 5519POPC   C2B67018  15.172  24.809   4.926 -0.0523  0.1170 -0.1224
 5519POPC   C3B67019  15.215  24.938   5.352 -0.0849  0.2067  0.2127
 5519POPC   C4B67020  15.569  25.023   5.648 -0.2198 -0.0887 -0.1927
 5520POPC   NC367021  10.078  31.547   3.606  0.4023  0.2156  0.0659
 5520POPC   PO467022  10.350  31.236   3.667  0.0633 -0.1731  0.0151
 5520POPC   GL167023  10.495  31.325   4.012 -0.1155 -0.1649 -0.0775
 5520POPC   GL267024  10.240  31.484   4.129  0.1567 -0.2642 -0.0435
 5520POPC   C1A67025  10.569  30.897   4.220  0.0049 -0.5223 -0.0417
 5520POPC   D2A67026  10.633  30.456   4.339  0.0284 -0.0132 -0.1397
 5520POPC   C3A67027  10.651  30.328   4.812  0.0987 -0.0836 -0.1479
 5520POPC   C4A67028  10.681  30.000   5.158  0.2083 -0.0474 -0.0400
 5520POPC   C1B67029  10.191  31.598   4.601  0.2014 -0.3090 -0.0203
 5520POPC   C2B67030  10.046  31.596   4.972  0.2516 -0.1232 -0.0368
 5520POPC   C3B67031   9.887  31.560   5.437 -0.0579  0.1235  0.2590
 5520POPC   C4B67032   9.712  31.793   5.786  0.1276 -0.1620  0.0823
 5521POPC   NC367033  19.839  13.102   3.578  0.0596  0.0583  0.0595
 5521POPC   PO467034  20.217  12.995   3.458  0.0562  0.3847  0.1026
 5521POPC   GL167035  20.481  13.209   3.607  0.0890  0.1257 -0.4062
 5521POPC   GL267036  20.262  13.299   3.827 -0.2643  0.1033 -0.3126
 5521POPC   C1A67037  20.476  13.674   3.511  0.0740  0.1296 -0.0767
 5521POPC   D2A67038  20.442  14.163   3.726 -0.0876  0.2595 -0.2798
 5521POPC   C3A67039  20.440  14.453   4.048 -0.0276 -0.2717 -0.0732
 5521POPC   C4A67040  20.706  14.615   4.380  0.0963 -0.2873  0.3968
 5521POPC   C1B67041  20.041  12.974   4.084  0.2265 -0.1342 -0.0367
 5521POPC   C2B67042  19.846  12.522   4.144  0.1208  0.1332  0.2333
 5521POPC   C3B67043  19.652  12.224   4.393 -0.0132 -0.1089 -0.0644
 5521POPC   C4B67044  19.637  11.974   4.800 -0.2655  0.1540  0.2887
 5522POPC   NC367045  27.424  12.935   3.432  0.5180  0.1062 -0.5392
 5522POPC   PO467046  27.123  13.211   3.507 -0.0808  0.0314  0.2099
 5522POPC   GL167047  27.387  13.258   3.820 -0.1132 -0.0611 -0.0266
 5522POPC   GL267048  27.700  13.185   3.818  0.0568 -0.0334  0.0699
 5522POPC   C1A67049  27.255  13.324   4.274 -0.2534 -0.1309 -0.1449
 5522POPC   D2A67050  27.210  13.292   4.796  0.1304  0.1895  0.0723
 5522POPC   C3A67051  27.584  13.471   5.054  0.2658 -0.2498  0.0252
 5522POPC   C4A67052  27.709  13.297   5.470 -0.1742 -0.2120  0.0021
 5522POPC   C1B67053  27.664  12.956   4.215 -0.0666 -0.0933 -0.4741
 5522POPC   C2B67054  27.660  12.634   4.530 -0.3345 -0.1684 -0.1293
 5522POPC   C3B67055  27.456  12.464   4.876 -0.1246 -0.0080  0.1620
 5522POPC   C4B67056  27.656  12.455   5.312  0.0062 -0.1792 -0.2688
 5523POPC   NC367057  17.982  19.218   3.585  0.0378 -0.2482  0.0697
 5523POPC   PO467058  18.177  18.954   3.821 -0.2124  0.1787  0.1906
 5523POPC   GL167059  18.033  19.232   4.162 -0.3559  0.0212 -0.1080
 5523POPC   GL267060  18.285  19.233   4.381  0.2802 -0.2371  0.3271
 5523POPC   C1A67061  17.839  19.441   4.573 -0.3880 -0.1573 -0.0834
 5523POPC   D2A67062  18.113  19.572   4.903  0.1577 -0.3279 -0.1778
 5523POPC   C3A67063  18.396  19.973   4.898  0.1737  0.1823 -0.0241
 5523POPC   C4A67064  18.565  20.267   4.564  0.0482  0.2040 -0.0158
 5523POPC   C1B67065  18.169  19.077   4.755  0.2597 -0.0820  0.1237
 5523POPC   C2B67066  18.297  19.150   5.225  0.2230 -0.1695  0.2448
 5523POPC   C3B67067  18.153  19.115   5.645 -0.0042  0.0655 -0.0397
 5523POPC   C4B67068  17.817  18.951   5.906 -0.0226 -0.0128  0.1284
 5524POPC   NC367069   1.314  25.099   3.258  0.1875  0.0235  0.1201
 5524POPC   PO467070   0.943  25.135   3.378  0.0705  0.0049 -0.0719
 5524POPC   GL167071   1.166  24.945   3.652 -0.2411  0.2003  0.0278
 5524POPC   GL267072   1.252  24.995   3.884  0.1516 -0.2883 -0.0421
 5524POPC   C1A67073   1.145  24.522   3.807 -0.2644  0.3581 -0.3002
 5524POPC   D2A67074   1.155  24.418   4.232  0.1829 -0.1943 -0.0625
 5524POPC   C3A67075   1.188  24.692   4.637 -0.0757  0.0734  0.0857
 5524POPC   C4A67076   1.211  24.862   5.110  0.0499 -0.2319  0.0638
 5524POPC   C1B67077   0.973  24.891   4.223 -0.2349  0.0879 -0.1814
 5524POPC   C2B67078   0.656  24.995   4.546 -0.2516  0.1518 -0.2184
 5524POPC   C3B67079   0.397  25.247   4.825 -0.2833  0.2027  0.0893
 5524POPC   C4B67080   0.117  25.605   4.804  0.1198  0.1625 -0.0963
 5525POPC   NC367081  18.710  24.040   4.042 -0.0898  0.1568 -0.0784
 5525POPC   PO467082  18.750  23.641   4.013  0.1982 -0.1316  0.2737
 5525POPC   GL167083  18.517  23.331   4.182  0.1522 -0.0905 -0.0483
 5525POPC   GL267084  18.539  23.101   4.284 -0.1156  0.0382 -0.1050
 5525POPC   C1A67085  18.061  23.299   4.096 -0.0139  0.0270  0.0748
 5525POPC   D2A67086  17.733  23.045   4.155  0.0358 -0.1210 -0.0066
 5525POPC   C3A67087  17.630  22.932   4.615 -0.4206  0.0006  0.3991
 5525POPC   C4A67088  17.644  22.518   4.825 -0.1983 -0.0965  0.1530
 5525POPC   C1B67089  18.140  23.171   4.521  0.2257  0.0767 -0.1365
 5525POPC   C2B67090  18.196  23.233   4.987  0.0056 -0.1114 -0.0945
 5525POPC   C3B67091  18.073  23.440   5.355  0.2582 -0.1969 -0.1193
 5525POPC   C4B67092  17.688  23.653   5.545  0.0644  0.0217 -0.0282
 5526POPC   NC367093   7.024   7.017   4.121  0.0628 -0.0250 -0.2776
 5526POPC   PO467094   6.962   6.695   3.879  0.3744 -0.2267  0.0197
 5526POPC   GL167095   7.105   6.629   4.337 -0.0542 -0.1445 -0.0585
 5526POPC   GL267096   7.406   6.766   4.370 -0.0762 -0.4790  0.0103
 5526POPC   C1A67097   6.992   6.436   4.705  0.3460  0.2683 -0.2118
 5526POPC   D2A67098   6.911   6.284   5.148 -0.0691  0.3644  0.2176
 5526POPC   C3A67099   6.510   6.379   5.331  0.0396 -0.2807 -0.1264
 5526POPC   C4A67100   6.131   6.277   5.482  0.0694 -0.1109 -0.0411
 5526POPC   C1B67101   7.466   6.693   4.896 -0.0972 -0.0224  0.1671
 5526POPC   C2B67102   7.229   6.609   5.265 -0.0629 -0.0967  0.0410
 5526POPC   C3B67103   7.294   6.825   5.676 -0.1866 -0.0611  0.1320
 5526POPC   C4B67104   7.178   6.923   6.147  0.0410 -0.1677  0.0681
 5527POPC   NC367105  10.833  21.588   3.682  0.2883 -0.0176 -0.0373
 5527POPC   PO467106  10.490  21.566   3.916 -0.0952  0.1191 -0.4168
 5527POPC   GL167107  10.468  21.300   4.244 -0.0034 -0.2139 -0.1384
 5527POPC   GL267108  10.374  21.446   4.428 -0.0390  0.2823  0.1309
 5527POPC   C1A67109  10.846  21.131   4.486  0.6017 -0.1950 -0.1064
 5527POPC   D2A67110  11.022  21.095   4.885 -0.0521 -0.4196  0.1817
 5527POPC   C3A67111  10.912  21.403   5.227  0.1218 -0.2226 -0.0308
 5527POPC   C4A67112  10.975  21.508   5.682  0.3029 -0.2682 -0.2712
 5527POPC   C1B67113  10.265  21.686   4.776  0.4501  0.0355  0.1373
 5527POPC   C2B67114   9.943  21.722   5.103 -0.1995  0.1071 -0.5192
 5527POPC   C3B67115   9.560  21.845   5.373 -0.0971 -0.1135  0.2938
 5527POPC   C4B67116   9.352  22.037   5.753 -0.1058 -0.0059  0.1528
 5528POPC   NC367117  10.041  28.138   4.034 -0.0687 -0.0253  0.3001
 5528POPC   PO467118  10.483  28.201   3.940 -0.2159  0.0496 -0.1645
 5528POPC   GL167119  10.475  28.189   4.311 -0.0631  0.2057  0.3074
 5528POPC   GL267120  10.298  28.493   4.296  0.2093  0.3158  0.0257
 5528POPC   C1A67121  10.223  27.952   4.592  0.4892  0.0456 -0.3468
 5528POPC   D2A67122   9.827  27.842   4.811  0.1932 -0.1357 -0.3270
 5528POPC   C3A67123   9.561  27.861   5.190  0.0858 -0.0648  0.0660
 5528POPC   C4A67124   9.514  27.844   5.645 -0.0711 -0.0882  0.0450
 5528POPC   C1B67125  10.405  28.435   4.731 -0.1193  0.1129 -0.1926
 5528POPC   C2B67126  10.334  28.191   5.096 -0.1275  0.1001 -0.0768
 5528POPC   C3B67127  10.032  27.880   5.341  0.1591  0.1487  0.0010
 5528POPC   C4B67128  10.037  27.735   5.816 -0.2162  0.2702  0.0878
 5529POPC   NC367129   2.939  21.239   3.799  0.0919  0.0136 -0.1026
 5529POPC   PO467130   3.253  21.036   3.786  0.0649 -0.0001  0.2114
 5529POPC   GL167131   3.528  21.234   3.992  0.1510 -0.0005  0.1038
 5529POPC   GL267132   3.315  21.425   4.113 -0.2613  0.0235  0.1371
 5529POPC   C1A67133   3.811  21.009   4.305  0.2530  0.1587  0.1113
 5529POPC   D2A67134   3.957  20.992   4.742 -0.0140 -0.0888 -0.0553
 5529POPC   C3A67135   3.560  20.912   4.981 -0.3746 -0.0491  0.1559
 5529POPC   C4A67136   3.387  20.796   5.392 -0.0058 -0.0801 -0.0909
 5529POPC   C1B67137   3.432  21.261   4.498  0.1565 -0.1342  0.2828
 5529POPC   C2B67138   3.418  21.371   4.939 -0.2153  0.0874 -0.1409
 5529POPC   C3B67139   3.537  21.274   5.382 -0.1804 -0.0607  0.0038
 5529POPC   C4B67140   3.790  21.012   5.669  0.0659 -0.0352  0.2406
 5530POPC   NC367141  21.034  22.187   3.518  0.2819 -0.0702 -0.3916
 5530POPC   PO467142  20.675  22.098   3.544 -0.0647 -0.1785 -0.1105
 5530POPC   GL167143  20.774  21.807   3.787 -0.0194 -0.2653 -0.0144
 5530POPC   GL267144  20.874  21.996   4.002  0.1375 -0.1798 -0.2971
 5530POPC   C1A67145  20.732  21.388   3.984  0.0075  0.0866  0.1351
 5530POPC   D2A67146  20.585  20.960   4.174  0.0745  0.1357  0.0459
 5530POPC   C3A67147  20.306  20.878   4.506  0.1007 -0.0184 -0.1075
 5530POPC   C4A67148  20.148  21.039   4.888 -0.0166 -0.0605 -0.0833
 5530POPC   C1B67149  20.745  21.731   4.348  0.0344 -0.2667 -0.0011
 5530POPC   C2B67150  20.757  21.658   4.833 -0.0017  0.0678 -0.0953
 5530POPC   C3B67151  20.483  21.443   5.098 -0.0520 -0.0859  0.2703
 5530POPC   C4B67152  20.202  21.220   5.421  0.1023 -0.2805 -0.1060
 5531POPC   NC367153  29.336  30.817   3.266  0.1210  0.2868 -0.2216
 5531POPC   PO467154  29.111  31.139   3.332  0.1941 -0.0412  0.1130
 5531POPC   GL167155  29.118  31.075   3.671  0.1630 -0.3900 -0.1977
 5531POPC   GL267156  29.000  31.291   3.814 -0.1018 -0.0595 -0.1978
 5531POPC   C1A67157  28.949  30.823   4.033  0.1584 -0.2703  0.1167
 5531POPC   D2A67158  28.992  30.627   4.441  0.2200 -0.2204 -0.4246
 5531POPC   C3A67159  28.942  30.915   4.783 -0.2132 -0.0619  0.0646
 5531POPC   C4A67160  29.064  31.261   4.920 -0.1597 -0.0818  0.0866
 5531POPC   C1B67161  29.022  31.346   4.285 -0.3703 -0.0117 -0.1042
 5531POPC   C2B67162  29.163  31.601   4.603  0.2851  0.0899 -0.1592
 5531POPC   C3B67163  29.153  31.768   5.019 -0.1828  0.1489  0.0658
 5531POPC   C4B67164  29.137  31.819   5.538  0.2344 -0.1004  0.0306
 5532POPC   NC367165  29.370  28.389   3.621 -0.1119 -0.2655  0.0869
 5532POPC   PO467166  29.542  28.261   3.953  0.0342 -0.2502  0.0219
 5532POPC   GL167167  29.390  28.369   4.258 -0.0306  0.3720 -0.2368
 5532POPC   GL267168  29.286  28.178   4.389 -0.2252  0.0475  0.3321
 5532POPC   C1A67169  29.608  28.433   4.728  0.1434 -0.1976 -0.2721
 5532POPC   D2A67170  29.761  28.328   5.123 -0.0042 -0.0215  0.3842
 5532POPC   C3A67171  29.537  28.674   5.371 -0.2355 -0.3529 -0.0187
 5532POPC   C4A67172  29.294  28.907   5.669  0.1126 -0.0390 -0.2365
 5532POPC   C1B67173  29.043  28.048   4.741  0.0327 -0.1282  0.0739
 5532POPC   C2B67174  28.899  27.986   5.211  0.1331 -0.1222 -0.0450
 5532POPC   C3B67175  29.062  27.845   5.608  0.1359  0.0813 -0.0816
 5532POPC   C4B67176  28.890  27.533   5.863  0.0452 -0.0905 -0.0005
 5533POPC   NC367177   6.835   0.426   3.912 -0.0222  0.4308 -0.1022
 5533POPC   PO467178   6.827   0.813   3.984 -0.1121  0.0607 -0.2379
 5533POPC   GL167179   6.820   1.064   4.253  0.2316 -0.2344 -0.3312
 5533POPC   GL267180   6.951   0.985   4.431 -0.0849 -0.3498 -0.1130
 5533POPC   C1A67181   6.534   1.110   4.606  0.4933  0.2530  0.2661
 5533POPC   D2A67182   6.404   1.068   5.071  0.1465 -0.1061  0.0147
 5533POPC   C3A67183   6.612   1.209   5.463  0.2343  0.2179 -0.1297
 5533POPC   C4A67184   6.623   1.093   5.872  0.0479  0.1664 -0.1646
 5533POPC   C1B67185   7.266   0.762   4.720  0.4120  0.1202 -0.2891
 5533POPC   C2B67186   7.468   0.738   5.122  0.0834 -0.3126 -0.4713
 5533POPC   C3B67187   7.597   0.798   5.548  0.1131 -0.3663 -0.0777
 5533POPC   C4B67188   7.659   0.803   6.019 -0.1856  0.0018  0.0080
 5534POPC   NC367189  15.933   8.401   3.620  0.0586 -0.2166 -0.2368
 5534POPC   PO467190  15.774   8.783   3.537  0.1842  0.1201 -0.0163
 5534POPC   GL167191  15.641   8.757   3.943  0.2201  0.3131 -0.3443
 5534POPC   GL267192  15.782   8.492   4.137 -0.1907  0.0251  0.2914
 5534POPC   C1A67193  15.693   8.936   4.365  0.0328 -0.2000 -0.1062
 5534POPC   D2A67194  15.491   9.272   4.627  0.1558  0.2533  0.0795
 5534POPC   C3A67195  15.021   9.279   4.614  0.1996  0.1145 -0.0405
 5534POPC   C4A67196  14.713   9.361   4.954 -0.2396 -0.4388  0.0141
 5534POPC   C1B67197  15.660   8.410   4.565 -0.6247 -0.2821 -0.0494
 5534POPC   C2B67198  15.621   8.282   4.993  0.1207 -0.0273 -0.1426
 5534POPC   C3B67199  15.698   8.114   5.416  0.0863  0.2461  0.2666
 5534POPC   C4B67200  15.765   7.991   5.876  0.0552  0.0200  0.1992
 5535POPC   NC367201  11.688  21.653   3.420  0.0334  0.1281  0.0310
 5535POPC   PO467202  11.749  21.437   3.712 -0.3764 -0.0079  0.1269
 5535POPC   GL167203  11.869  21.504   4.048  0.2623 -0.2370  0.0501
 5535POPC   GL267204  12.094  21.764   4.104 -0.1839  0.2510 -0.1308
 5535POPC   C1A67205  11.678  21.527   4.473 -0.0073 -0.1858 -0.1198
 5535POPC   D2A67206  11.238  21.673   4.561  0.0896  0.2095  0.0013
 5535POPC   C3A67207  10.793  21.585   4.711 -0.3297 -0.0706 -0.3111
 5535POPC   C4A67208  10.538  21.245   4.928  0.4148  0.1386  0.2117
 5535POPC   C1B67209  12.095  21.857   4.568 -0.1847  0.0585 -0.3219
 5535POPC   C2B67210  11.992  21.589   4.987  0.0700  0.0052 -0.2030
 5535POPC   C3B67211  11.850  21.301   5.330  0.0371 -0.3487 -0.1027
 5535POPC   C4B67212  11.805  21.187   5.795  0.1435 -0.1300 -0.0191
 5536POPC   NC367213  28.962  24.020   3.704 -0.2243  0.0125 -0.1382
 5536POPC   PO467214  28.621  23.843   3.783  0.2942  0.2993  0.3363
 5536POPC   GL167215  28.736  23.856   4.167  0.2162  0.0630  0.1622
 5536POPC   GL267216  28.815  24.070   4.239 -0.0357  0.1655 -0.0808
 5536POPC   C1A67217  28.392  24.002   4.429 -0.0724  0.1508 -0.0050
 5536POPC   D2A67218  28.061  24.255   4.390 -0.1098  0.0207 -0.0099
 5536POPC   C3A67219  27.824  24.245   4.797  0.3710 -0.3118  0.1351
 5536POPC   C4A67220  27.829  24.316   5.208  0.3899 -0.0242  0.0486
 5536POPC   C1B67221  28.844  23.973   4.728 -0.0044 -0.3918  0.0911
 5536POPC   C2B67222  28.806  23.579   4.935 -0.0180  0.0732  0.2395
 5536POPC   C3B67223  28.721  23.398   5.346 -0.2140  0.0536 -0.1876
 5536POPC   C4B67224  28.880  23.210   5.739 -0.0111 -0.0301  0.1529
 5537POPC   NC367225   4.514  21.713   3.747 -0.2059  0.0188 -0.0256
 5537POPC   PO467226   4.882  21.937   3.803  0.4042  0.1826 -0.1471
 5537POPC   GL167227   5.089  21.883   4.154  0.1439  0.3067  0.0025
 5537POPC   GL267228   4.899  21.694   4.281 -0.1355  0.0994  0.1424
 5537POPC   C1A67229   5.101  22.144   4.552  0.0720 -0.0099  0.3083
 5537POPC   D2A67230   5.208  22.311   4.917 -0.0896  0.2641 -0.2055
 5537POPC   C3A67231   5.186  22.529   5.286  0.0099 -0.2281 -0.0123
 5537POPC   C4A67232   5.154  22.554   5.738  0.2993 -0.2463 -0.2217
 5537POPC   C1B67233   4.711  21.628   4.682 -0.1110  0.0312  0.2287
 5537POPC   C2B67234   4.819  21.646   5.117  0.1203 -0.0240  0.0600
 5537POPC   C3B67235   4.595  21.690   5.572 -0.3552 -0.0249 -0.0653
 5537POPC   C4B67236   4.264  21.815   5.913  0.1915  0.0672  0.0473
 5538POPC   NC367237  22.321   8.849   3.637  0.0529 -0.1503 -0.2357
 5538POPC   PO467238  22.082   9.126   3.837  0.0792 -0.1618 -0.0871
 5538POPC   GL167239  21.784   9.064   4.099 -0.3805 -0.4876 -0.4175
 5538POPC   GL267240  21.995   9.100   4.327 -0.0883 -0.1548  0.1506
 5538POPC   C1A67241  21.542   8.825   4.406 -0.1449 -0.0657 -0.3103
 5538POPC   D2A67242  21.652   8.635   4.821  0.0984  0.0021 -0.0448
 5538POPC   C3A67243  21.415   8.376   5.115  0.5189  0.1088  0.3603
 5538POPC   C4A67244  21.509   8.281   5.517  0.0449  0.0367 -0.2152
 5538POPC   C1B67245  21.831   9.167   4.735 -0.1053 -0.1353 -0.1283
 5538POPC   C2B67246  21.927   9.287   5.174 -0.0788  0.2400  0.1018
 5538POPC   C3B67247  22.087   9.556   5.491 -0.0131 -0.0109  0.1091
 5538POPC   C4B67248  22.378   9.621   5.847  0.0449 -0.0982  0.3727
 5539POPC   NC367249   3.346  26.871   4.171  0.1581  0.1543  0.1953
 5539POPC   PO467250   3.184  26.978   3.874  0.1927  0.1310  0.0648
 5539POPC   GL167251   3.090  27.365   4.068  0.0666 -0.3622  0.0697
 5539POPC   GL267252   2.890  27.333   4.057  0.2600 -0.1290  0.1217
 5539POPC   C1A67253   3.042  27.721   4.383  0.0580 -0.0000 -0.1823
 5539POPC   D2A67254   2.975  27.800   4.828  0.1747  0.0033 -0.1047
 5539POPC   C3A67255   2.935  28.183   5.071  0.0565 -0.0840 -0.0667
 5539POPC   C4A67256   2.896  28.272   5.533  0.1981 -0.0366  0.0264
 5539POPC   C1B67257   2.753  27.335   4.486 -0.1587 -0.0218  0.4210
 5539POPC   C2B67258   2.683  27.351   4.920  0.1544 -0.1102  0.1399
 5539POPC   C3B67259   2.485  27.169   5.307  0.3731 -0.0523  0.0120
 5539POPC   C4B67260   2.106  27.125   5.611 -0.1895  0.0832 -0.0302
 5540POPC   NC367261  23.340   2.951   3.785 -0.1835  0.2746 -0.0837
 5540POPC   PO467262  23.148   2.630   3.724 -0.3066  0.2133 -0.0765
 5540POPC   GL167263  23.017   2.533   4.131  0.0421 -0.1348 -0.0347
 5540POPC   GL267264  23.271   2.382   4.239 -0.0429 -0.2367 -0.0524
 5540POPC   C1A67265  22.882   2.743   4.555 -0.1408 -0.1011  0.1050
 5540POPC   D2A67266  22.825   3.144   4.837  0.0704 -0.0112  0.0471
 5540POPC   C3A67267  22.690   3.117   5.252 -0.1049 -0.0462  0.0859
 5540POPC   C4A67268  22.935   3.057   5.600  0.0429  0.0038  0.0307
 5540POPC   C1B67269  23.012   2.127   4.467  0.1543  0.0952 -0.1329
 5540POPC   C2B67270  22.969   2.093   4.903  0.3068  0.3337 -0.0638
 5540POPC   C3B67271  22.943   2.187   5.338  0.0641  0.2680  0.4981
 5540POPC   C4B67272  22.823   2.159   5.782 -0.0673  0.0038  0.2132
 5541POPC   NC367273  20.083  22.491   3.642  0.1654  0.0492 -0.1637
 5541POPC   PO467274  20.030  22.750   3.963  0.1008  0.0717  0.2507
 5541POPC   GL167275  19.909  22.440   4.293 -0.0908  0.0294 -0.0034
 5541POPC   GL267276  19.640  22.460   4.310  0.0796  0.0857 -0.2416
 5541POPC   C1A67277  19.950  22.194   4.673 -0.2211  0.0365  0.1785
 5541POPC   D2A67278  19.741  22.220   5.112 -0.1018 -0.0803 -0.0697
 5541POPC   C3A67279  19.607  22.352   5.537 -0.0024 -0.1385 -0.1700
 5541POPC   C4A67280  19.855  22.518   5.899  0.4223  0.1759  0.3601
 5541POPC   C1B67281  19.514  22.491   4.746 -0.1778  0.3025 -0.3271
 5541POPC   C2B67282  19.487  22.684   5.165  0.2619 -0.0981 -0.2159
 5541POPC   C3B67283  19.415  22.839   5.616 -0.4181 -0.0188 -0.0703
 5541POPC   C4B67284  19.754  23.031   5.933  0.2371 -0.0666  0.2663
 5542POPC   NC367285  15.865  29.527   3.391  0.2198 -0.1772 -0.0446
 5542POPC   PO467286  15.822  29.169   3.509 -0.1964  0.2002 -0.0922
 5542POPC   GL167287  15.723  29.081   3.943  0.4898 -0.1468  0.1891
 5542POPC   GL267288  15.925  28.902   4.007  0.1443  0.0002 -0.0196
 5542POPC   C1A67289  15.803  29.471   4.171  0.0821 -0.1627  0.0988
 5542POPC   D2A67290  15.953  29.688   4.584  0.0384  0.0975 -0.0555
 5542POPC   C3A67291  16.215  29.374   4.852  0.0898  0.1180  0.2690
 5542POPC   C4A67292  16.619  29.167   4.917 -0.2383  0.1103  0.3223
 5542POPC   C1B67293  15.902  28.724   4.453  0.0712  0.0180 -0.2146
 5542POPC   C2B67294  15.759  28.737   4.903  0.2091  0.1546 -0.2764
 5542POPC   C3B67295  15.719  28.838   5.370 -0.0255 -0.0676 -0.2200
 5542POPC   C4B67296  15.441  28.634   5.655  0.3177 -0.0564  0.1274
 5543POPC   NC367297  12.041  16.329   3.246 -0.0477  0.0843 -0.2421
 5543POPC   PO467298  12.077  15.975   3.269 -0.1582 -0.0094  0.1563
 5543POPC   GL167299  11.933  16.047   3.623  0.0411 -0.0289 -0.0856
 5543POPC   GL267300  11.755  16.005   3.812 -0.0461 -0.2326 -0.0492
 5543POPC   C1A67301  12.173  16.243   3.990  0.0380 -0.0071 -0.0509
 5543POPC   D2A67302  12.367  16.127   4.431 -0.1421 -0.4150  0.2042
 5543POPC   C3A67303  12.524  15.954   4.806  0.0580 -0.1001 -0.2913
 5543POPC   C4A67304  12.556  15.736   5.225  0.0364  0.0239  0.0241
 5543POPC   C1B67305  11.852  15.863   4.207  0.0663  0.0398  0.0427
 5543POPC   C2B67306  11.924  15.635   4.560  0.1616 -0.0586  0.2238
 5543POPC   C3B67307  12.070  15.699   5.037 -0.0523 -0.1401  0.0561
 5543POPC   C4B67308  12.154  15.869   5.468  0.2174  0.2080  0.0380
 5544POPC   NC367309   4.545  12.410   3.268  0.0799 -0.1645  0.2228
 5544POPC   PO467310   4.534  12.717   3.516  0.0620  0.0132 -0.2177
 5544POPC   GL167311   4.896  12.581   3.574  0.0409 -0.1639 -0.3940
 5544POPC   GL267312   5.142  12.599   3.456 -0.0970  0.2485  0.1990
 5544POPC   C1A67313   4.864  12.377   3.974  0.4439  0.0016 -0.2413
 5544POPC   D2A67314   4.671  11.950   4.193 -0.1135 -0.4503 -0.1492
 5544POPC   C3A67315   4.695  11.856   4.641 -0.0286  0.1287  0.3698
 5544POPC   C4A67316   5.096  11.922   4.928  0.0192 -0.0178  0.1874
 5544POPC   C1B67317   5.233  12.220   3.697  0.0422  0.2058  0.3494
 5544POPC   C2B67318   5.254  12.062   4.087 -0.1680  0.1375 -0.0261
 5544POPC   C3B67319   5.167  11.787   4.409  0.1385 -0.0918 -0.0837
 5544POPC   C4B67320   5.545  11.764   4.763 -0.0404  0.1187 -0.0703
 5545POPC   NC367321  30.644  24.675   3.854  0.0420  0.0330 -0.0116
 5545POPC   PO467322  30.317  24.650   4.012  0.3809  0.1729  0.4218
 5545POPC   GL167323  30.393  24.420   4.300 -0.1181  0.0093  0.0401
 5545POPC   GL267324  30.499  24.600   4.556  0.0650 -0.1872  0.2392
 5545POPC   C1A67325  30.765  24.154   4.336  0.0124 -0.0460 -0.0823
 5545POPC   D2A67326  31.239  24.125   4.259 -0.1595 -0.2102  0.0411
 5545POPC   C3A67327  31.485  24.470   4.218 -0.4181  0.3007  0.0910
 5545POPC   C4A67328  31.354  24.876   4.375 -0.2257 -0.2081  0.0574
 5545POPC   C1B67329  30.723  24.427   4.981 -0.4834  0.1032  0.0519
 5545POPC   C2B67330  30.698  24.079   5.242  0.0339  0.0264  0.0467
 5545POPC   C3B67331  30.677  23.851   5.645 -0.1102 -0.1678 -0.1674
 5545POPC   C4B67332  30.830  23.630   5.976  0.0956  0.0463 -0.0218
 5546POPC   NC367333  16.265  28.868   3.573  0.1156  0.1920  0.1441
 5546POPC   PO467334  16.668  28.925   3.558  0.3163  0.1798 -0.2098
 5546POPC   GL167335  16.391  29.033   3.940 -0.0194 -0.2490 -0.0446
 5546POPC   GL267336  16.490  28.843   4.045 -0.2784 -0.0621  0.2507
 5546POPC   C1A67337  16.193  29.147   4.338  0.0887 -0.1371 -0.0588
 5546POPC   D2A67338  15.824  29.178   4.558  0.4124 -0.1863  0.2562
 5546POPC   C3A67339  15.704  29.223   4.973  0.1849  0.2348  0.0239
 5546POPC   C4A67340  15.439  29.417   5.298  0.2147  0.1528  0.1151
 5546POPC   C1B67341  16.635  28.864   4.451  0.0491 -0.2125 -0.0876
 5546POPC   C2B67342  16.752  28.709   4.812 -0.2811  0.0653  0.3510
 5546POPC   C3B67343  16.623  28.756   5.210  0.0060  0.3197  0.0658
 5546POPC   C4B67344  16.344  28.709   5.567 -0.0246 -0.0560 -0.1486
 5547POPC   NC367345   6.277  17.874   3.775 -0.0742 -0.0140 -0.1913
 5547POPC   PO467346   6.467  17.523   3.702  0.4614  0.1092 -0.3501
 5547POPC   GL167347   6.612  17.603   4.075  0.0698  0.0726  0.1191
 5547POPC   GL267348   6.312  17.465   4.242 -0.2235 -0.0838  0.2349
 5547POPC   C1A67349   6.955  17.592   4.414 -0.0976 -0.0578  0.2165
 5547POPC   D2A67350   6.900  17.729   4.820 -0.1851 -0.0471 -0.3361
 5547POPC   C3A67351   6.525  17.945   5.029 -0.0914 -0.1325 -0.0503
 5547POPC   C4A67352   6.117  18.066   5.050  0.3529 -0.1191  0.2470
 5547POPC   C1B67353   6.089  17.248   4.592  0.1376  0.0802  0.0290
 5547POPC   C2B67354   5.800  17.218   4.967  0.0450 -0.0386 -0.2024
 5547POPC   C3B67355   5.900  17.334   5.417 -0.2820 -0.1733 -0.0018
 5547POPC   C4B67356   6.035  17.763   5.439 -0.0162  0.0114  0.0883
 5548POPC   NC367357  28.269  21.326   4.063 -0.3521 -0.4179  0.0616
 5548POPC   PO467358  28.628  21.324   3.909  0.1829 -0.0420 -0.0824
 5548POPC   GL167359  28.640  21.407   4.371  0.1544  0.1653 -0.1161
 5548POPC   GL267360  28.320  21.350   4.568  0.0467 -0.0902 -0.2279
 5548POPC   C1A67361  28.723  21.670   4.772 -0.2340 -0.2399 -0.0411
 5548POPC   D2A67362  28.755  21.782   5.188 -0.2119 -0.2097 -0.1307
 5548POPC   C3A67363  28.527  21.986   5.565  0.1590  0.1769 -0.1583
 5548POPC   C4A67364  28.138  21.878   5.768 -0.1054  0.4917 -0.1288
 5548POPC   C1B67365  28.366  21.420   4.986  0.2197  0.1331 -0.1862
 5548POPC   C2B67366  28.436  21.088   5.306  0.0432  0.1845 -0.0582
 5548POPC   C3B67367  28.474  20.846   5.702 -0.0099  0.3205 -0.0348
 5548POPC   C4B67368  28.814  20.723   5.974 -0.4634  0.0299  0.2273
 5549POPC   NC367369  13.117  25.872   3.512  0.1558  0.2087  0.2126
 5549POPC   PO467370  13.178  25.625   3.786 -0.0433  0.0329  0.1720
 5549POPC   GL167371  13.195  25.513   4.203  0.0346  0.2809 -0.1403
 5549POPC   GL267372  12.922  25.487   4.330 -0.4498  0.0168  0.1592
 5549POPC   C1A67373  13.390  25.629   4.657 -0.0359 -0.3666  0.1415
 5549POPC   D2A67374  13.499  25.726   5.092 -0.0454 -0.3625  0.0164
 5549POPC   C3A67375  13.794  25.701   5.410 -0.2453  0.1042  0.2251
 5549POPC   C4A67376  14.038  25.584   5.783 -0.0722  0.1385 -0.2001
 5549POPC   C1B67377  12.559  25.259   4.496 -0.1677 -0.2751  0.2488
 5549POPC   C2B67378  12.381  24.902   4.694 -0.2009  0.1899  0.1120
 5549POPC   C3B67379  12.158  24.845   5.132 -0.1837 -0.2651 -0.1493
 5549POPC   C4B67380  12.213  25.114   5.576  0.0821  0.3055 -0.1858
 5550POPC   NC367381  29.923  29.135   3.886  0.1173  0.1842 -0.0300
 5550POPC   PO467382  29.680  28.897   3.690  0.3034 -0.2776 -0.4074
 5550POPC   GL167383  29.617  28.855   4.094 -0.2241  0.0164  0.0260
 5550POPC   GL267384  29.859  28.672   4.140  0.2002 -0.2655  0.3362
 5550POPC   C1A67385  29.379  28.873   4.427  0.1373 -0.0833 -0.2641
 5550POPC   D2A67386  29.399  28.839   4.857  0.1043 -0.1398 -0.2969
 5550POPC   C3A67387  29.058  29.000   5.119 -0.1874 -0.1843 -0.0446
 5550POPC   C4A67388  28.808  28.988   5.447  0.1115 -0.2899  0.1084
 5550POPC   C1B67389  30.101  28.549   4.504 -0.2750 -0.0162  0.0073
 5550POPC   C2B67390  30.298  28.494   4.914  0.1267  0.0635  0.3070
 5550POPC   C3B67391  30.322  28.509   5.369 -0.1841 -0.2190 -0.1772
 5550POPC   C4B67392  30.413  28.406   5.756 -0.1095  0.1261 -0.1162
 5551POPC   NC367393   5.073  26.862   3.916  0.0802  0.1853  0.0447
 5551POPC   PO467394   4.949  27.241   3.732  0.1304  0.2412 -0.0036
 5551POPC   GL167395   4.790  27.115   4.146  0.1036  0.1709  0.1369
 5551POPC   GL267396   5.024  27.288   4.250  0.0626 -0.4353  0.0813
 5551POPC   C1A67397   4.842  26.770   4.417  0.2694  0.2940 -0.0530
 5551POPC   D2A67398   4.814  26.455   4.752 -0.1063  0.1349  0.0159
 5551POPC   C3A67399   4.933  26.500   5.255 -0.3771  0.2279 -0.3132
 5551POPC   C4A67400   4.991  26.604   5.685  0.2458  0.1297  0.0448
 5551POPC   C1B67401   5.051  27.354   4.738 -0.4210  0.1913 -0.0794
 5551POPC   C2B67402   5.266  27.303   5.165 -0.2027 -0.2189 -0.1730
 5551POPC   C3B67403   5.579  27.265   5.422 -0.0351 -0.0348 -0.0946
 5551POPC   C4B67404   5.835  27.030   5.788 -0.0390  0.0868 -0.0773
 5552POPC   NC367405  10.187  25.065   3.226  0.1224 -0.1483 -0.2359
 5552POPC   PO467406  10.412  25.109   3.566  0.0447  0.1327 -0.0836
 5552POPC   GL167407  10.193  25.182   3.984 -0.0928  0.0864 -0.0223
 5552POPC   GL267408  10.250  24.859   4.050 -0.3172  0.2401  0.0993
 5552POPC   C1A67409  10.431  25.304   4.408  0.2730 -0.3921 -0.1085
 5552POPC   D2A67410  10.581  25.692   4.622 -0.1362  0.0623  0.3366
 5552POPC   C3A67411  10.461  25.746   5.093  0.0455 -0.1935  0.0207
 5552POPC   C4A67412  10.483  25.757   5.565 -0.0502  0.0338  0.0233
 5552POPC   C1B67413  10.580  24.793   4.342  0.0261 -0.2111  0.0207
 5552POPC   C2B67414  10.553  24.887   4.765 -0.1147 -0.0195  0.1092
 5552POPC   C3B67415  10.741  24.794   5.166  0.0675 -0.1346  0.0409
 5552POPC   C4B67416  10.877  24.878   5.608 -0.2657 -0.1578  0.1114
 5553POPC   NC367417  20.236  26.336   4.016  0.1009 -0.3937 -0.3662
 5553POPC   PO467418  20.337  25.956   4.026  0.0198  0.0256 -0.1764
 5553POPC   GL167419  20.147  25.981   4.399 -0.0583  0.0033 -0.2574
 5553POPC   GL267420  20.101  25.650   4.414 -0.0050  0.2012  0.0868
 5553POPC   C1A67421  20.104  26.014   4.846 -0.1727 -0.0246  0.2416
 5553POPC   D2A67422  19.876  26.164   5.216  0.0860 -0.0269 -0.2647
 5553POPC   C3A67423  19.924  26.139   5.649  0.1905 -0.0326 -0.0174
 5553POPC   C4A67424  20.005  26.296   6.058  0.0355  0.1983  0.0488
 5553POPC   C1B67425  20.117  25.433   4.859  0.0987  0.1183 -0.1535
 5553POPC   C2B67426  20.061  25.361   5.311  0.0009 -0.1627 -0.2131
 5553POPC   C3B67427  20.198  25.202   5.707 -0.0685 -0.1977 -0.1928
 5553POPC   C4B67428  20.038  24.943   6.026  0.0682  0.1824  0.0088
 5554POPC   NC367429  18.659  19.043   3.928  0.2139 -0.1115 -0.0517
 5554POPC   PO467430  18.516  19.373   3.937 -0.0907  0.0573 -0.1025
 5554POPC   GL167431  18.764  19.266   4.333 -0.6239 -0.0401  0.1000
 5554POPC   GL267432  18.976  19.496   4.385  0.1350 -0.3401 -0.0551
 5554POPC   C1A67433  18.709  19.013   4.685 -0.0051  0.2917  0.0432
 5554POPC   D2A67434  18.755  18.846   5.138  0.0604  0.2234  0.1263
 5554POPC   C3A67435  18.738  18.822   5.571  0.0077  0.0313  0.1808
 5554POPC   C4A67436  18.735  18.561   5.947 -0.4815  0.2370  0.1376
 5554POPC   C1B67437  19.053  19.366   4.819  0.2105 -0.0758  0.3846
 5554POPC   C2B67438  18.857  19.291   5.234  0.1269  0.0912  0.0503
 5554POPC   C3B67439  18.649  19.320   5.654 -0.1466 -0.3692  0.1471
 5554POPC   C4B67440  18.585  19.597   6.047  0.0584 -0.2596 -0.1275
 5555POPC   NC367441  17.001   0.819   3.449  0.3869  0.0579  0.1293
 5555POPC   PO467442  17.338   0.807   3.695  0.0402 -0.3525 -0.1537
 5555POPC   GL167443  17.004   0.627   3.896 -0.0049 -0.2032  0.1616
 5555POPC   GL267444  16.798   0.736   3.995 -0.1729  0.0002  0.0288
 5555POPC   C1A67445  17.024   0.394   4.309 -0.1734  0.1319  0.1564
 5555POPC   D2A67446  17.077   0.317   4.720  0.0216  0.0367  0.0587
 5555POPC   C3A67447  16.961   0.001   5.041 -0.2012  0.0516 -0.1934
 5555POPC   C4A67448  16.600  -0.248   5.255  0.1306 -0.3159  0.1572
 5555POPC   C1B67449  16.709   1.095   4.294 -0.0412 -0.6345  0.0433
 5555POPC   C2B67450  17.039   1.289   4.594 -0.1654 -0.1113 -0.0385
 5555POPC   C3B67451  17.205   1.237   5.065  0.1950 -0.1575 -0.3442
 5555POPC   C4B67452  17.066   1.503   5.424 -0.2357 -0.0619 -0.0603
 5556POPC   NC367453   3.386  18.248   3.288 -0.3062  0.0559 -0.0896
 5556POPC   PO467454   3.036  18.433   3.292 -0.1116 -0.0243 -0.1941
 5556POPC   GL167455   2.824  18.276   3.653  0.1319 -0.0330 -0.0895
 5556POPC   GL267456   3.059  18.153   3.734 -0.2039 -0.1073  0.1119
 5556POPC   C1A67457   2.604  18.131   4.048  0.1944  0.0691 -0.0897
 5556POPC   D2A67458   2.304  17.955   4.368  0.2038 -0.0703 -0.2193
 5556POPC   C3A67459   2.373  17.765   4.808 -0.2842 -0.0027 -0.1450
 5556POPC   C4A67460   2.608  17.844   5.195 -0.3210  0.0334  0.1475
 5556POPC   C1B67461   3.213  18.280   4.183 -0.0130  0.0023 -0.1637
 5556POPC   C2B67462   3.240  18.636   4.489 -0.4093 -0.2315 -0.2278
 5556POPC   C3B67463   3.276  18.968   4.772  0.1799 -0.1482  0.2134
 5556POPC   C4B67464   3.259  19.197   5.153  0.1550  0.1267 -0.2216
 5557POPC   NC367465  20.987  28.042   3.551 -0.0223  0.2079  0.2496
 5557POPC   PO467466  21.152  28.324   3.781  0.0111  0.2808  0.0060
 5557POPC   GL167467  21.024  28.480   3.985 -0.3366 -0.1988 -0.0319
 5557POPC   GL267468  21.259  28.530   4.236  0.1897 -0.1540  0.0582
 5557POPC   C1A67469  20.739  28.326   4.333 -0.1925 -0.2347  0.2882
 5557POPC   D2A67470  20.717  28.204   4.761  0.1322  0.1939 -0.3107
 5557POPC   C3A67471  20.571  28.271   5.188  0.1808  0.2924 -0.1053
 5557POPC   C4A67472  20.555  28.469   5.591  0.0431  0.0295 -0.0657
 5557POPC   C1B67473  21.101  28.603   4.664  0.3132  0.0613 -0.0277
 5557POPC   C2B67474  21.410  28.702   5.024 -0.0419  0.1538 -0.3094
 5557POPC   C3B67475  21.722  28.710   5.319  0.2999  0.1656 -0.0687
 5557POPC   C4B67476  21.903  28.753   5.747  0.2000  0.0843  0.0840
 5558POPC   NC367477  13.723  15.967   3.813 -0.1337 -0.0845  0.3323
 5558POPC   PO467478  13.842  16.221   3.504  0.3255  0.1633 -0.1638
 5558POPC   GL167479  13.876  16.419   3.859  0.0593 -0.1935 -0.1306
 5558POPC   GL267480  13.655  16.643   3.910  0.2269 -0.0629  0.2582
 5558POPC   C1A67481  13.854  16.217   4.286 -0.0805 -0.0769 -0.0343
 5558POPC   D2A67482  13.609  16.354   4.641  0.2934  0.1614  0.0142
 5558POPC   C3A67483  13.857  16.303   5.014 -0.0367  0.0614  0.1693
 5558POPC   C4A67484  14.080  16.156   5.372  0.0477  0.1219 -0.2656
 5558POPC   C1B67485  13.813  16.725   4.356 -0.0932 -0.0827  0.2638
 5558POPC   C2B67486  13.934  16.834   4.805  0.1446  0.1230 -0.1103
 5558POPC   C3B67487  14.073  16.800   5.277 -0.1939  0.2433 -0.0305
 5558POPC   C4B67488  13.911  16.917   5.671  0.1235  0.0153  0.1155
 5559POPC   NC367489  19.777   5.177   3.817  0.0838  0.2628 -0.2276
 5559POPC   PO467490  19.781   5.562   3.805  0.1914 -0.2903  0.0688
 5559POPC   GL167491  19.473   5.528   4.072 -0.2313 -0.2186 -0.2804
 5559POPC   GL267492  19.644   5.773   4.229  0.0411  0.0524  0.0836
 5559POPC   C1A67493  19.237   5.443   4.494  0.0615 -0.1782  0.0301
 5559POPC   D2A67494  19.036   5.266   4.889  0.1124 -0.0436  0.1066
 5559POPC   C3A67495  18.751   5.523   5.115 -0.2447 -0.0934  0.0998
 5559POPC   C4A67496  18.353   5.757   5.152 -0.2233  0.0147  0.1201
 5559POPC   C1B67497  19.511   5.866   4.621  0.0322  0.1769 -0.1309
 5559POPC   C2B67498  19.685   5.957   4.969  0.3342  0.0451 -0.0416
 5559POPC   C3B67499  19.723   5.917   5.438 -0.1366 -0.0651 -0.0078
 5559POPC   C4B67500  19.794   5.609   5.752 -0.0338  0.1958 -0.1535
 5560POPC   NC367501  28.229  25.652   3.700  0.0385 -0.2229 -0.3002
 5560POPC   PO467502  28.070  25.969   3.681  0.0997  0.0469 -0.3621
 5560POPC   GL167503  28.212  25.968   4.089  0.2047  0.3192  0.0750
 5560POPC   GL267504  28.465  25.901   4.154  0.2048  0.0663  0.0964
 5560POPC   C1A67505  27.979  25.892   4.467  0.1225 -0.4404  0.0104
 5560POPC   D2A67506  27.929  26.026   4.950  0.1025  0.2401 -0.2291
 5560POPC   C3A67507  27.644  26.293   5.131  0.4091  0.1108 -0.1932
 5560POPC   C4A67508  27.746  26.613   5.452  0.3619  0.0594  0.1726
 5560POPC   C1B67509  28.454  25.754   4.591 -0.1118 -0.1238 -0.2203
 5560POPC   C2B67510  28.208  25.630   4.968 -0.0073 -0.2338  0.0012
 5560POPC   C3B67511  27.896  25.716   5.357 -0.0859  0.0811  0.0307
 5560POPC   C4B67512  27.625  26.056   5.586 -0.0283  0.1865  0.0001
 5561POPC   NC367513  21.207  10.187   3.577  0.0063 -0.0989 -0.0087
 5561POPC   PO467514  21.497  10.398   3.666  0.0773  0.0820 -0.0558
 5561POPC   GL167515  21.290  10.687   4.008 -0.1793 -0.1014 -0.1618
 5561POPC   GL267516  21.585  10.601   4.137 -0.2282 -0.2620  0.3415
 5561POPC   C1A67517  21.292  10.808   4.445  0.1441 -0.0700  0.1665
 5561POPC   D2A67518  21.443  10.668   4.817 -0.0931  0.0233  0.0780
 5561POPC   C3A67519  21.375  10.549   5.246  0.2803 -0.0825  0.1298
 5561POPC   C4A67520  21.388  10.285   5.593 -0.3660  0.0198  0.0855
 5561POPC   C1B67521  21.427  10.318   4.372  0.1854 -0.1040 -0.1099
 5561POPC   C2B67522  21.559  10.187   4.763 -0.1653  0.0020  0.0594
 5561POPC   C3B67523  21.743  10.142   5.179 -0.1542  0.0557 -0.1589
 5561POPC   C4B67524  21.792   9.983   5.651 -0.0739  0.1959  0.2894
 5562POPC   NC367525  17.222  20.277   3.444  0.1022 -0.3559 -0.1125
 5562POPC   PO467526  17.111  20.665   3.586  0.0664  0.1205  0.1366
 5562POPC   GL167527  16.970  20.698   3.925 -0.1405  0.0770  0.0566
 5562POPC   GL267528  16.871  20.980   3.950 -0.0996  0.1749 -0.2471
 5562POPC   C1A67529  17.071  20.417   4.308  0.2559 -0.0763 -0.0698
 5562POPC   D2A67530  17.177  20.043   4.537 -0.1934 -0.1450 -0.3439
 5562POPC   C3A67531  17.100  20.289   4.993  0.0170  0.3312 -0.1114
 5562POPC   C4A67532  16.782  20.291   5.297  0.0343  0.0982 -0.2846
 5562POPC   C1B67533  16.898  20.978   4.427 -0.1339  0.0952 -0.2062
 5562POPC   C2B67534  16.648  21.008   4.851 -0.1201  0.0400 -0.0030
 5562POPC   C3B67535  16.443  21.193   5.203  0.2338  0.1242  0.1367
 5562POPC   C4B67536  16.341  21.314   5.615  0.2022 -0.1628  0.2197
 5563POPC   NC367537  23.217  12.663   3.319 -0.1552 -0.0389  0.1459
 5563POPC   PO467538  22.945  12.328   3.298  0.2272 -0.0312 -0.0761
 5563POPC   GL167539  22.801  12.394   3.602  0.0249 -0.1225  0.0432
 5563POPC   GL267540  23.055  12.556   3.792  0.1291 -0.2824 -0.1130
 5563POPC   C1A67541  22.822  12.201   3.996  0.0869 -0.0709 -0.3331
 5563POPC   D2A67542  23.101  12.207   4.432  0.1917  0.3462 -0.1322
 5563POPC   C3A67543  23.472  11.930   4.390  0.0418 -0.1385 -0.0110
 5563POPC   C4A67544  23.816  11.580   4.307  0.2565 -0.1919 -0.1381
 5563POPC   C1B67545  23.096  12.705   4.193 -0.0607  0.3610 -0.0824
 5563POPC   C2B67546  23.390  12.641   4.538 -0.1230  0.1962 -0.3322
 5563POPC   C3B67547  23.484  12.244   4.772 -0.1332 -0.1034  0.1611
 5563POPC   C4B67548  23.565  11.863   5.034  0.2243 -0.1909  0.0781
 5564POPC   NC367549  15.751  13.061   3.606  0.0915 -0.2018 -0.2433
 5564POPC   PO467550  16.098  12.962   3.780  0.1975 -0.2721 -0.0024
 5564POPC   GL167551  15.930  13.070   4.150 -0.0149 -0.1278  0.0334
 5564POPC   GL267552  15.694  13.203   4.124  0.2653 -0.0636 -0.1740
 5564POPC   C1A67553  15.904  12.794   4.488 -0.0965 -0.5604  0.0369
 5564POPC   D2A67554  16.122  12.424   4.645  0.0522  0.0069 -0.2439
 5564POPC   C3A67555  16.052  12.400   5.082  0.2158  0.1096 -0.2193
 5564POPC   C4A67556  15.766  12.450   5.420 -0.1337  0.3183 -0.0585
 5564POPC   C1B67557  15.622  13.149   4.577 -0.1128 -0.0564 -0.5119
 5564POPC   C2B67558  15.611  13.271   5.016 -0.0525 -0.0883 -0.0770
 5564POPC   C3B67559  15.525  13.417   5.470 -0.0457 -0.3804  0.2490
 5564POPC   C4B67560  15.639  13.331   5.898 -0.2475  0.0376  0.1553
 5565POPC   NC367561  25.530   6.912   3.208 -0.2186  0.2682 -0.1158
 5565POPC   PO467562  25.747   6.771   3.543 -0.2812 -0.2764 -0.1144
 5565POPC   GL167563  25.605   6.474   3.674 -0.2714  0.2815  0.1075
 5565POPC   GL267564  25.748   6.234   3.796  0.3228  0.2160  0.0779
 5565POPC   C1A67565  25.392   6.488   4.065  0.1794 -0.4088 -0.0887
 5565POPC   D2A67566  25.250   6.283   4.474 -0.0605 -0.0908 -0.2807
 5565POPC   C3A67567  25.538   6.206   4.828  0.0286  0.0111 -0.2197
 5565POPC   C4A67568  25.514   5.874   5.177 -0.4807  0.1217 -0.0052
 5565POPC   C1B67569  25.790   6.243   4.261 -0.0434  0.1958 -0.1351
 5565POPC   C2B67570  26.009   6.158   4.667  0.4018  0.1513 -0.0770
 5565POPC   C3B67571  26.141   6.179   5.107 -0.0971 -0.0913  0.1547
 5565POPC   C4B67572  26.005   6.172   5.570 -0.1956 -0.3696  0.0941
 5566POPC   NC367573  20.632  12.774   3.340 -0.1465 -0.2119 -0.1455
 5566POPC   PO467574  20.895  12.873   3.607 -0.0911 -0.0776  0.1673
 5566POPC   GL167575  20.809  13.044   3.918 -0.0438  0.2150  0.1263
 5566POPC   GL267576  20.727  13.252   4.039  0.1671  0.0063 -0.0535
 5566POPC   C1A67577  20.822  12.869   4.322  0.0412 -0.1844  0.1971
 5566POPC   D2A67578  20.558  12.888   4.683  0.0061 -0.1384  0.0748
 5566POPC   C3A67579  20.582  13.235   5.003 -0.0565 -0.0169  0.0638
 5566POPC   C4A67580  20.576  13.558   5.392  0.0281 -0.3008 -0.0155
 5566POPC   C1B67581  20.582  13.363   4.480  0.1361  0.1632  0.0692
 5566POPC   C2B67582  20.764  13.641   4.817  0.0118  0.0119 -0.0957
 5566POPC   C3B67583  20.567  14.040   5.038 -0.1249 -0.1456 -0.0259
 5566POPC   C4B67584  20.288  14.381   5.257 -0.0393 -0.0297 -0.1375
 5567POPC   NC367585  18.293  23.869   3.311  0.2699 -0.1801 -0.0776
 5567POPC   PO467586  17.969  23.948   3.491  0.1554  0.0147 -0.0423
 5567POPC   GL167587  17.877  23.857   3.875  0.1765 -0.5791 -0.0085
 5567POPC   GL267588  17.778  23.624   3.866  0.1373 -0.1509 -0.2191
 5567POPC   C1A67589  18.101  23.754   4.249  0.3206 -0.1544  0.1162
 5567POPC   D2A67590  18.061  23.608   4.628  0.0070 -0.0302  0.0741
 5567POPC   C3A67591  18.312  23.728   4.972 -0.2590  0.0015  0.1898
 5567POPC   C4A67592  18.530  24.089   5.128  0.1163 -0.1846 -0.1667
 5567POPC   C1B67593  17.458  23.876   4.072  0.0979  0.0817  0.1857
 5567POPC   C2B67594  17.315  24.088   4.484 -0.0797  0.3785  0.1660
 5567POPC   C3B67595  17.584  24.111   4.856 -0.0973  0.1362  0.1662
 5567POPC   C4B67596  17.823  23.803   5.011 -0.0644 -0.3362 -0.0330
 5568POPC   NC367597   6.224  16.705   3.639 -0.0041 -0.2495  0.2413
 5568POPC   PO467598   6.462  16.995   3.769  0.2891  0.1995  0.1441
 5568POPC   GL167599   6.735  17.112   4.009  0.0545 -0.1305 -0.0155
 5568POPC   GL267600   6.637  17.065   4.290  0.1549  0.0051 -0.0328
 5568POPC   C1A67601   7.188  17.068   4.108  0.0027  0.1228 -0.2526
 5568POPC   D2A67602   7.659  17.064   4.184 -0.5063 -0.1040  0.1925
 5568POPC   C3A67603   7.889  16.761   4.459 -0.2284 -0.0950  0.1045
 5568POPC   C4A67604   8.342  16.647   4.585 -0.0932  0.1825 -0.1474
 5568POPC   C1B67605   6.571  17.267   4.674  0.0216  0.1191  0.0435
 5568POPC   C2B67606   6.323  17.455   5.024 -0.2827 -0.2398 -0.1614
 5568POPC   C3B67607   6.513  17.574   5.430 -0.1803 -0.3206 -0.0055
 5568POPC   C4B67608   6.873  17.674   5.687 -0.0987  0.0475  0.0248
 5569POPC   NC367609   1.206  21.399   3.789  0.2405 -0.1732 -0.2646
 5569POPC   PO467610   1.366  21.087   3.565 -0.0450  0.2699 -0.2371
 5569POPC   GL167611   1.631  21.123   3.842  0.3142  0.0775 -0.0957
 5569POPC   GL267612   1.825  21.051   3.969  0.2342  0.1257 -0.1358
 5569POPC   C1A67613   1.431  21.161   4.287 -0.3713  0.0797  0.0813
 5569POPC   D2A67614   1.428  21.161   4.737 -0.1425 -0.1252  0.1053
 5569POPC   C3A67615   1.194  20.943   5.132 -0.2383 -0.0092 -0.0488
 5569POPC   C4A67616   1.139  20.617   5.459  0.1465  0.3874  0.0316
 5569POPC   C1B67617   1.719  20.725   4.310  0.2250  0.2555  0.2505
 5569POPC   C2B67618   1.815  20.823   4.785 -0.2352  0.3896  0.0418
 5569POPC   C3B67619   1.721  21.096   5.136 -0.0754  0.0563 -0.4249
 5569POPC   C4B67620   1.790  21.494   5.394 -0.1810 -0.1978 -0.0335
 5570POPC   NC367621  24.442  28.056   3.545 -0.4287 -0.0957 -0.2168
 5570POPC   PO467622  24.574  27.785   3.748 -0.1874  0.5010 -0.1329
 5570POPC   GL167623  24.288  27.710   4.088 -0.1442 -0.2099  0.1102
 5570POPC   GL267624  24.032  27.623   4.104  0.0174 -0.1894 -0.1771
 5570POPC   C1A67625  24.470  27.946   4.480  0.0363 -0.0914  0.0208
 5570POPC   D2A67626  24.750  28.222   4.677 -0.2011  0.0346 -0.2158
 5570POPC   C3A67627  25.107  27.947   4.891  0.4097  0.2909 -0.0106
 5570POPC   C4A67628  25.230  27.849   5.368  0.0699 -0.4215  0.1118
 5570POPC   C1B67629  24.118  27.571   4.528  0.1281 -0.1662 -0.0953
 5570POPC   C2B67630  24.352  27.493   4.957  0.0429  0.0154  0.1942
 5570POPC   C3B67631  24.106  27.431   5.349 -0.2201 -0.2207  0.2569
 5570POPC   C4B67632  24.162  27.594   5.763  0.1112  0.1750  0.3518
 5571POPC   NC367633   7.078  17.368   3.244  0.2104 -0.1838  0.2642
 5571POPC   PO467634   6.963  17.764   3.323  0.2274 -0.1329 -0.2001
 5571POPC   GL167635   6.955  17.665   3.727  0.2321  0.2824 -0.2533
 5571POPC   GL267636   6.953  17.401   3.742  0.2584  0.2595 -0.0279
 5571POPC   C1A67637   6.914  17.928   4.059  0.1458 -0.1569 -0.1088
 5571POPC   D2A67638   6.982  18.259   4.338 -0.3994  0.1071 -0.0820
 5571POPC   C3A67639   6.767  18.263   4.739 -0.3147 -0.2075  0.0842
 5571POPC   C4A67640   7.002  18.259   5.134  0.2861  0.2016  0.0389
 5571POPC   C1B67641   7.312  17.535   4.045  0.0617 -0.1845  0.1294
 5571POPC   C2B67642   7.465  17.445   4.445  0.0560 -0.1936 -0.1980
 5571POPC   C3B67643   7.525  17.180   4.824 -0.0513  0.0226  0.0511
 5571POPC   C4B67644   7.907  16.937   4.921  0.1254 -0.1261 -0.0089
 5572POPC   NC367645  24.431  18.811   4.068  0.1076 -0.1433 -0.0071
 5572POPC   PO467646  24.213  19.151   3.939  0.1063 -0.2610 -0.0371
 5572POPC   GL167647  24.180  19.199   4.339  0.2998  0.1489 -0.0524
 5572POPC   GL267648  24.103  19.436   4.332  0.3316  0.1200 -0.0010
 5572POPC   C1A67649  24.142  19.311   4.832 -0.0777  0.1154 -0.1457
 5572POPC   D2A67650  24.312  19.501   5.247 -0.1795 -0.0019  0.1095
 5572POPC   C3A67651  24.070  19.724   5.540 -0.0663 -0.0285 -0.2285
 5572POPC   C4A67652  24.144  19.792   5.988  0.1089  0.0243  0.1505
 5572POPC   C1B67653  23.855  19.717   4.616  0.0463  0.1756  0.0550
 5572POPC   C2B67654  23.421  19.599   4.757 -0.0836  0.2764 -0.0959
 5572POPC   C3B67655  23.176  19.248   4.588 -0.0434  0.0608 -0.1079
 5572POPC   C4B67656  22.738  19.342   4.400  0.0333 -0.2713  0.0424
 5573POPC   NC367657  12.560  23.269   3.813  0.1813  0.1248 -0.0183
 5573POPC   PO467658  12.851  23.137   4.042  0.2107  0.0917 -0.1574
 5573POPC   GL167659  12.971  23.059   4.463 -0.1068 -0.2932 -0.1884
 5573POPC   GL267660  13.091  23.342   4.414  0.3634 -0.0305  0.0111
 5573POPC   C1A67661  13.311  22.944   4.710  0.1898 -0.1146 -0.2907
 5573POPC   D2A67662  13.408  22.854   5.160 -0.1553 -0.2051  0.5239
 5573POPC   C3A67663  13.095  22.647   5.358 -0.1145 -0.0546 -0.1199
 5573POPC   C4A67664  13.034  22.256   5.611  0.0897  0.0350  0.2286
 5573POPC   C1B67665  13.151  23.710   4.620 -0.3922 -0.1062 -0.0107
 5573POPC   C2B67666  13.160  23.870   5.049  0.2120  0.0881 -0.0231
 5573POPC   C3B67667  13.289  23.800   5.467 -0.0256 -0.1154  0.1366
 5573POPC   C4B67668  13.303  23.760   5.951  0.0407 -0.0665  0.2693
 5574POPC   NC367669  20.192  20.255   3.862 -0.1908 -0.2106  0.1494
 5574POPC   PO467670  20.529  20.148   3.709  0.0322 -0.4508  0.4031
 5574POPC   GL167671  20.488  19.946   3.997  0.4367  0.2750 -0.1091
 5574POPC   GL267672  20.724  19.997   4.174  0.1030 -0.2547  0.3794
 5574POPC   C1A67673  20.454  19.536   4.226  0.0562  0.1650 -0.0250
 5574POPC   D2A67674  20.385  19.485   4.640  0.1135  0.0116 -0.2008
 5574POPC   C3A67675  20.749  19.226   4.834 -0.0951 -0.1522 -0.0095
 5574POPC   C4A67676  20.997  19.339   5.261  0.2318  0.2473 -0.0509
 5574POPC   C1B67677  20.762  19.724   4.529  0.0451  0.0659  0.2113
 5574POPC   C2B67678  20.914  19.742   4.969 -0.2031  0.0373 -0.0195
 5574POPC   C3B67679  20.794  20.140   5.192 -0.1531  0.1385 -0.3177
 5574POPC   C4B67680  20.555  20.156   5.591 -0.0140 -0.1114 -0.0403
 5575POPC   NC367681  25.790  27.145   3.579  0.0408 -0.1328 -0.0437
 5575POPC   PO467682  25.841  27.527   3.691 -0.1452 -0.3535 -0.0733
 5575POPC   GL167683  25.724  27.649   4.104 -0.1120  0.0786 -0.1383
 5575POPC   GL267684  25.879  27.844   4.149  0.0909 -0.2938  0.0072
 5575POPC   C1A67685  25.806  27.551   4.584 -0.3794  0.1342  0.1378
 5575POPC   D2A67686  25.813  27.521   5.029 -0.2028 -0.0860  0.0684
 5575POPC   C3A67687  25.368  27.441   5.093 -0.2335  0.0707  0.1394
 5575POPC   C4A67688  25.098  27.334   5.499 -0.3345 -0.2353  0.1862
 5575POPC   C1B67689  26.072  27.975   4.554  0.0447  0.0267  0.2538
 5575POPC   C2B67690  26.127  28.058   5.018 -0.0520 -0.1892  0.0418
 5575POPC   C3B67691  25.906  28.306   5.335 -0.1911 -0.1303  0.0231
 5575POPC   C4B67692  25.508  28.297   5.639  0.1385 -0.1848  0.1577
 5576POPC   NC367693  30.762  14.013   3.726  0.1742  0.0617  0.2357
 5576POPC   PO467694  31.107  13.868   3.852 -0.0316 -0.0159 -0.2085
 5576POPC   GL167695  31.233  13.709   4.197 -0.0328  0.1289  0.1239
 5576POPC   GL267696  31.381  13.949   4.294  0.1475 -0.1487 -0.4712
 5576POPC   C1A67697  30.889  13.636   4.467 -0.0323  0.0905  0.2494
 5576POPC   D2A67698  30.782  13.636   4.929 -0.2225  0.2229 -0.0837
 5576POPC   C3A67699  31.049  13.689   5.304  0.1336 -0.2105  0.4792
 5576POPC   C4A67700  31.210  13.836   5.668  0.1079  0.1166  0.1836
 5576POPC   C1B67701  31.165  14.016   4.673  0.1833 -0.0055  0.1412
 5576POPC   C2B67702  30.980  14.123   5.098 -0.2655  0.0403 -0.0016
 5576POPC   C3B67703  30.894  14.225   5.572 -0.3485  0.1214 -0.0066
 5576POPC   C4B67704  30.985  14.508   5.949  0.0953 -0.1566 -0.1865
 5577POPC   NC367705  30.791  31.423   3.713  0.0576  0.1774  0.0579
 5577POPC   PO467706  31.138  31.439   3.859 -0.1364 -0.1111 -0.1128
 5577POPC   GL167707  31.017  31.462   4.220  0.1879 -0.3597 -0.0090
 5577POPC   GL267708  30.740  31.310   4.254 -0.0338  0.3289 -0.0081
 5577POPC   C1A67709  31.130  31.741   4.584  0.1417  0.3075  0.1179
 5577POPC   D2A67710  31.367  32.094   4.740  0.0793 -0.0019  0.1457
 5577POPC   C3A67711  31.490  32.095   5.190 -0.0346 -0.1554 -0.2144
 5577POPC   C4A67712  31.632  32.375   5.576 -0.0948 -0.1485  0.0369
 5577POPC   C1B67713  30.809  31.344   4.738 -0.1698 -0.3783 -0.0796
 5577POPC   C2B67714  30.882  31.417   5.201  0.3201 -0.3104  0.2159
 5577POPC   C3B67715  30.849  31.769   5.524 -0.1088  0.1505  0.0827
 5577POPC   C4B67716  31.197  32.072   5.652  0.0327 -0.1226 -0.1329
 5578POPC   NC367717   9.266  31.461   4.077 -0.0136 -0.1229 -0.1783
 5578POPC   PO467718   9.341  31.120   3.961 -0.0150  0.1568 -0.0214
 5578POPC   GL167719   9.434  31.028   4.230 -0.1017 -0.0169 -0.3881
 5578POPC   GL267720   9.679  31.197   4.340  0.3812 -0.1198  0.0236
 5578POPC   C1A67721   9.272  30.683   4.475 -0.0924  0.1047  0.0933
 5578POPC   D2A67722   8.829  30.776   4.654  0.0932 -0.1891  0.2997
 5578POPC   C3A67723   8.514  30.444   4.694 -0.0499 -0.0165 -0.0899
 5578POPC   C4A67724   8.429  30.097   5.005 -0.1044 -0.5653 -0.0998
 5578POPC   C1B67725   9.766  31.173   4.768 -0.0367  0.2266  0.1736
 5578POPC   C2B67726  10.066  31.086   5.130  0.3471  0.0667 -0.0360
 5578POPC   C3B67727  10.072  30.976   5.564 -0.0808 -0.1902 -0.3911
 5578POPC   C4B67728  10.351  31.127   5.883  0.0183 -0.0482  0.2698
 5579POPC   NC367729  30.097   1.670   3.495 -0.0679  0.0447 -0.0957
 5579POPC   PO467730  30.133   1.960   3.751  0.0758  0.3167 -0.0558
 5579POPC   GL167731  30.122   2.020   4.093 -0.4651  0.1676 -0.1820
 5579POPC   GL267732  29.920   2.174   4.180  0.3007 -0.0182  0.2118
 5579POPC   C1A67733  30.308   2.154   4.494  0.0682  0.1417  0.0115
 5579POPC   D2A67734  30.169   1.964   4.877 -0.1148 -0.1955  0.1278
 5579POPC   C3A67735  30.014   1.510   4.934  0.1342 -0.4114  0.3771
 5579POPC   C4A67736  30.033   1.101   5.100 -0.1434  0.0373  0.3131
 5579POPC   C1B67737  29.789   2.091   4.594 -0.2877 -0.4640 -0.0447
 5579POPC   C2B67738  29.753   2.163   5.012  0.1421  0.3079 -0.0379
 5579POPC   C3B67739  30.014   1.933   5.345 -0.0844 -0.0992  0.1538
 5579POPC   C4B67740  30.415   1.665   5.341 -0.2609  0.0365  0.2109
 5580POPC   NC367741  26.367   4.950   3.969 -0.0349  0.0584 -0.3140
 5580POPC   PO467742  26.686   4.738   3.940 -0.0417 -0.1509  0.0588
 5580POPC   GL167743  26.749   4.722   4.301 -0.2348  0.2134  0.0235
 5580POPC   GL267744  26.540   4.807   4.414 -0.3337  0.2264 -0.1158
 5580POPC   C1A67745  27.072   4.548   4.542  0.0237 -0.0272  0.2741
 5580POPC   D2A67746  26.996   4.393   4.928  0.0146 -0.2147 -0.1566
 5580POPC   C3A67747  27.113   4.616   5.330 -0.3823 -0.0215 -0.0384
 5580POPC   C4A67748  27.433   4.581   5.642 -0.1495 -0.0923 -0.0472
 5580POPC   C1B67749  26.951   5.062   4.516 -0.2590  0.1382 -0.2086
 5580POPC   C2B67750  27.174   5.352   4.846  0.1268 -0.0489 -0.1544
 5580POPC   C3B67751  27.366   5.476   5.224  0.0306  0.1771 -0.1534
 5580POPC   C4B67752  27.433   5.816   5.511 -0.1433  0.1727  0.3003
 5581POPC   NC367753   2.386  24.334   3.482 -0.0705  0.1218  0.1330
 5581POPC   PO467754   2.153  24.628   3.393 -0.2150 -0.0779  0.1663
 5581POPC   GL167755   2.131  24.583   3.775 -0.3200 -0.0842 -0.1161
 5581POPC   GL267756   1.880  24.551   3.832 -0.1414  0.2737  0.0360
 5581POPC   C1A67757   2.117  24.474   4.228 -0.0769 -0.1581 -0.1946
 5581POPC   D2A67758   2.340  24.133   4.486 -0.0098 -0.2046  0.2765
 5581POPC   C3A67759   2.368  24.297   4.913 -0.0286 -0.2471  0.2244
 5581POPC   C4A67760   2.331  24.169   5.350  0.0446 -0.4284  0.0069
 5581POPC   C1B67761   1.705  24.829   4.124 -0.0305  0.0727  0.4546
 5581POPC   C2B67762   1.708  24.798   4.561 -0.1857 -0.0628  0.1243
 5581POPC   C3B67763   1.817  24.762   5.053  0.0049  0.0940 -0.2415
 5581POPC   C4B67764   2.007  24.530   5.455 -0.0185 -0.2397  0.1984
 5582POPC   NC367765   6.325  28.251   3.904 -0.2892 -0.0811  0.1427
 5582POPC   PO467766   6.548  28.031   3.677  0.2305  0.0317 -0.1835
 5582POPC   GL167767   6.807  28.197   3.851 -0.0725  0.4436  0.0969
 5582POPC   GL267768   6.812  28.107   4.166 -0.0412 -0.0178 -0.1350
 5582POPC   C1A67769   7.202  27.894   3.940  0.1967  0.3267  0.3244
 5582POPC   D2A67770   7.454  27.598   4.245 -0.3484  0.3393  0.1632
 5582POPC   C3A67771   7.403  27.519   4.653 -0.2752  0.1228 -0.0412
 5582POPC   C4A67772   7.423  27.630   5.042 -0.0692  0.0648 -0.2512
 5582POPC   C1B67773   6.757  28.271   4.554 -0.0373  0.1961 -0.0688
 5582POPC   C2B67774   6.456  28.300   4.941 -0.4041 -0.2657 -0.0862
 5582POPC   C3B67775   6.372  28.080   5.365 -0.0478  0.1166 -0.2976
 5582POPC   C4B67776   5.938  28.197   5.520  0.0722  0.0281 -0.0359
 5583POPC   NC367777   1.142   6.919   3.435 -0.0891 -0.2307 -0.0928
 5583POPC   PO467778   1.435   6.733   3.278 -0.2466 -0.0361  0.0944
 5583POPC   GL167779   1.428   6.606   3.699  0.0237  0.0637  0.1683
 5583POPC   GL267780   1.277   6.745   3.901 -0.0694  0.0299  0.2530
 5583POPC   C1A67781   1.795   6.689   3.964 -0.3009 -0.1606 -0.0084
 5583POPC   D2A67782   2.084   6.802   4.337 -0.0087 -0.2509  0.1933
 5583POPC   C3A67783   2.138   7.109   4.680  0.2010  0.2925 -0.0873
 5583POPC   C4A67784   1.925   7.447   4.903  0.3164 -0.3713  0.1832
 5583POPC   C1B67785   1.418   6.874   4.303 -0.2593  0.1080 -0.2339
 5583POPC   C2B67786   1.466   7.024   4.782  0.2203  0.5117  0.5229
 5583POPC   C3B67787   1.513   7.366   5.155  0.0566 -0.0925  0.1875
 5583POPC   C4B67788   1.701   7.778   5.207 -0.3436  0.0112  0.0084
 5584POPC   NC367789   0.675  13.568   3.570 -0.0762 -0.2082  0.1885
 5584POPC   PO467790   0.937  13.481   3.860 -0.7151  0.1188  0.1924
 5584POPC   GL167791   0.998  13.569   4.276 -0.2612  0.4343  0.0399
 5584POPC   GL267792   1.072  13.835   4.293 -0.1365 -0.1674 -0.2638
 5584POPC   C1A67793   0.704  13.657   4.651 -0.1300  0.1471 -0.3107
 5584POPC   D2A67794   0.363  13.835   4.864 -0.1329 -0.1203 -0.0445
 5584POPC   C3A67795   0.324  13.996   5.342  0.1647  0.1195  0.0681
 5584POPC   C4A67796   0.022  14.001   5.718  0.4077 -0.2460 -0.0342
 5584POPC   C1B67797   1.205  13.734   4.694 -0.1335 -0.2055 -0.1892
 5584POPC   C2B67798   1.231  13.860   5.105 -0.1769 -0.0376 -0.1849
 5584POPC   C3B67799   1.433  14.019   5.484 -0.0343 -0.0467  0.1126
 5584POPC   C4B67800   1.680  14.097   5.854 -0.1766  0.0422 -0.1073
 5585POPC   NC367801   2.264   3.563   4.085  0.6043  0.1008 -0.0486
 5585POPC   PO467802   2.505   3.852   4.132 -0.1249 -0.1066 -0.1409
 5585POPC   GL167803   2.517   3.877   4.443 -0.1779 -0.2497  0.3207
 5585POPC   GL267804   2.481   3.620   4.617 -0.4514 -0.0200 -0.4882
 5585POPC   C1A67805   2.563   3.997   4.880  0.1612 -0.0961 -0.1486
 5585POPC   D2A67806   2.571   3.911   5.367  0.0079 -0.0439  0.2083
 5585POPC   C3A67807   2.396   4.250   5.583  0.1067 -0.1125 -0.0989
 5585POPC   C4A67808   2.321   4.666   5.669  0.0310 -0.0108  0.1397
 5585POPC   C1B67809   2.728   3.414   4.981  0.0771  0.0992 -0.0136
 5585POPC   C2B67810   2.751   3.337   5.404 -0.0601  0.0604 -0.1960
 5585POPC   C3B67811   2.717   3.508   5.828  0.0334  0.4280 -0.1199
 5585POPC   C4B67812   2.585   3.892   6.064  0.0658  0.1948  0.1623
 5586POPC   NC367813  21.810   3.953   3.884 -0.1627 -0.3305  0.1323
 5586POPC   PO467814  21.941   3.690   3.651 -0.1505  0.0327  0.2282
 5586POPC   GL167815  21.714   3.474   3.989  0.0805  0.1215 -0.2512
 5586POPC   GL267816  21.944   3.381   4.044 -0.2344 -0.1649  0.0450
 5586POPC   C1A67817  21.894   3.690   4.363  0.1581  0.0845  0.0603
 5586POPC   D2A67818  21.757   3.717   4.811  0.1719  0.2998 -0.0976
 5586POPC   C3A67819  21.792   3.464   5.199 -0.4023  0.2283  0.4810
 5586POPC   C4A67820  21.925   3.151   5.502  0.0460 -0.0229  0.1683
 5586POPC   C1B67821  22.171   3.056   4.289 -0.0789  0.1191 -0.0115
 5586POPC   C2B67822  22.308   2.763   4.622  0.1002  0.0328  0.1257
 5586POPC   C3B67823  22.576   2.694   5.000 -0.1999  0.0336 -0.0110
 5586POPC   C4B67824  22.655   2.646   5.446  0.0659  0.3623  0.1425
 5587POPC   NC367825  14.053   1.429   3.662 -0.1706 -0.0781  0.0692
 5587POPC   PO467826  14.317   1.723   3.637  0.1476  0.0085  0.2258
 5587POPC   GL167827  14.298   1.664   4.047 -0.0694  0.0052  0.0132
 5587POPC   GL267828  14.287   1.340   4.092 -0.1907 -0.3185 -0.2040
 5587POPC   C1A67829  14.415   1.933   4.370 -0.3444 -0.0038 -0.1113
 5587POPC   D2A67830  14.358   2.012   4.840 -0.0319 -0.0412  0.0701
 5587POPC   C3A67831  14.072   1.806   5.193 -0.0687  0.1570  0.1836
 5587POPC   C4A67832  13.885   2.025   5.598  0.0823 -0.2190  0.1202
 5587POPC   C1B67833  14.173   1.040   4.422  0.0619  0.0794 -0.1624
 5587POPC   C2B67834  14.281   0.797   4.832 -0.3411  0.2309 -0.2187
 5587POPC   C3B67835  14.219   0.531   5.180  0.3208  0.3116 -0.3465
 5587POPC   C4B67836  14.120   0.468   5.605  0.1974  0.0409 -0.0103
 5588POPC   NC367837   2.983  13.714   4.138 -0.1725 -0.1185  0.0159
 5588POPC   PO467838   3.394  13.855   4.207  0.3853  0.0462 -0.0434
 5588POPC   GL167839   3.469  13.650   4.553  0.0754 -0.5231 -0.2716
 5588POPC   GL267840   3.162  13.698   4.676  0.0791 -0.1372 -0.0874
 5588POPC   C1A67841   3.547  13.668   4.997  0.0402 -0.2135  0.0659
 5588POPC   D2A67842   3.793  13.761   5.372 -0.1715 -0.3692  0.1591
 5588POPC   C3A67843   3.746  13.441   5.723  0.0161  0.1869  0.0602
 5588POPC   C4A67844   3.980  13.289   6.068 -0.1909 -0.0596 -0.1681
 5588POPC   C1B67845   2.984  13.732   5.164  0.5058  0.0647 -0.1609
 5588POPC   C2B67846   2.746  13.797   5.550  0.2017 -0.4913  0.0008
 5588POPC   C3B67847   2.574  13.613   5.929  0.1656  0.0065 -0.2212
 5588POPC   C4B67848   2.798  13.607   6.402  0.1367 -0.3748  0.1583
 5589POPC   NC367849   7.482  23.346   3.151  0.1679  0.0422 -0.0964
 5589POPC   PO467850   7.487  23.345   3.517 -0.0506  0.0832 -0.1928
 5589POPC   GL167851   7.624  23.251   3.965  0.1656  0.1086  0.1111
 5589POPC   GL267852   7.794  23.523   4.005 -0.0585 -0.1767  0.0291
 5589POPC   C1A67853   7.359  23.256   4.347  0.1831 -0.1388  0.0051
 5589POPC   D2A67854   6.930  23.348   4.527 -0.1292  0.3979  0.0642
 5589POPC   C3A67855   6.901  23.436   4.956  0.2634  0.0837  0.2376
 5589POPC   C4A67856   6.758  23.474   5.383 -0.1336 -0.0958  0.0558
 5589POPC   C1B67857   7.932  23.383   4.474 -0.4230 -0.1978 -0.0940
 5589POPC   C2B67858   8.009  23.307   4.943 -0.0540 -0.1801  0.2307
 5589POPC   C3B67859   8.027  23.128   5.409 -0.2638 -0.1228 -0.0552
 5589POPC   C4B67860   8.224  22.820   5.637 -0.1796 -0.1563 -0.1512
 5590POPC   NC367861  17.609  16.417   4.061 -0.1332 -0.3254  0.0274
 5590POPC   PO467862  17.474  16.054   4.101 -0.1521  0.2719 -0.0895
 5590POPC   GL167863  17.581  15.929   4.445  0.2962 -0.1356 -0.1180
 5590POPC   GL267864  17.845  16.037   4.526 -0.1109 -0.1380 -0.0998
 5590POPC   C1A67865  17.632  15.622   4.779  0.0305 -0.2819  0.0269
 5590POPC   D2A67866  17.776  15.747   5.222 -0.1105  0.0445  0.0354
 5590POPC   C3A67867  17.971  15.365   5.474 -0.2411 -0.0643  0.2198
 5590POPC   C4A67868  18.041  14.973   5.675 -0.0668  0.0343 -0.0797
 5590POPC   C1B67869  17.820  16.161   4.940 -0.3373 -0.0602  0.0034
 5590POPC   C2B67870  17.889  16.208   5.361 -0.0159 -0.1045 -0.0822
 5590POPC   C3B67871  18.268  16.215   5.647  0.0667  0.1698  0.3770
 5590POPC   C4B67872  18.525  16.368   6.008  0.0109 -0.0195  0.0892
 5591POPC   NC367873  18.733  25.775   4.011 -0.0508 -0.0406  0.0331
 5591POPC   PO467874  18.714  26.180   4.048 -0.0504  0.1882 -0.1079
 5591POPC   GL167875  18.796  26.234   4.402  0.2521  0.4105  0.3625
 5591POPC   GL267876  18.896  25.963   4.529 -0.2818  0.1657 -0.1389
 5591POPC   C1A67877  18.643  26.576   4.682 -0.2729  0.0882  0.1690
 5591POPC   D2A67878  18.605  26.663   5.147  0.1842  0.0558 -0.2764
 5591POPC   C3A67879  18.751  26.278   5.414 -0.0566  0.2150 -0.0817
 5591POPC   C4A67880  18.551  26.077   5.763 -0.1394 -0.0595 -0.1015
 5591POPC   C1B67881  19.048  26.287   4.783 -0.0162  0.0397  0.1154
 5591POPC   C2B67882  19.106  26.533   5.180 -0.1189 -0.0163  0.0006
 5591POPC   C3B67883  19.052  26.621   5.649 -0.3625 -0.0385  0.0314
 5591POPC   C4B67884  19.028  26.749   6.048 -0.1679 -0.2150 -0.1871
 5592POPC   NC367885  25.058  17.696   3.912  0.1981  0.3491 -0.1353
 5592POPC   PO467886  25.449  17.621   4.009 -0.0131 -0.0024 -0.0709
 5592POPC   GL167887  25.634  17.632   4.350 -0.1160 -0.0315  0.2391
 5592POPC   GL267888  25.535  17.757   4.605  0.1788 -0.0981  0.1043
 5592POPC   C1A67889  25.863  17.389   4.651 -0.1831 -0.2581 -0.2528
 5592POPC   D2A67890  25.939  17.242   5.088 -0.0112  0.0372 -0.3553
 5592POPC   C3A67891  25.751  17.339   5.483 -0.0684  0.2119  0.0011
 5592POPC   C4A67892  25.372  17.398   5.738  0.1804 -0.1060  0.0358
 5592POPC   C1B67893  25.562  17.578   5.022  0.0184 -0.1265  0.0401
 5592POPC   C2B67894  25.537  17.811   5.416 -0.0113 -0.1674  0.0297
 5592POPC   C3B67895  25.575  17.867   5.860  0.0070 -0.1998 -0.1948
 5592POPC   C4B67896  25.408  17.578   6.212  0.3006 -0.1360  0.0117
 5593POPC   NC367897  15.907   2.169   3.713  0.0036  0.1273  0.1229
 5593POPC   PO467898  16.165   2.051   3.963  0.0436  0.0418 -0.1453
 5593POPC   GL167899  15.958   2.201   4.288  0.0777  0.1764 -0.1418
 5593POPC   GL267900  16.058   2.427   4.404 -0.3341 -0.0571 -0.1711
 5593POPC   C1A67901  15.998   2.117   4.767  0.0695 -0.1857  0.2282
 5593POPC   D2A67902  16.102   2.012   5.215  0.0189 -0.0270 -0.2546
 5593POPC   C3A67903  16.328   2.274   5.545  0.0147 -0.0176  0.0999
 5593POPC   C4A67904  16.702   2.301   5.804  0.1088 -0.0950 -0.1801
 5593POPC   C1B67905  16.263   2.552   4.829  0.1116 -0.2255 -0.2912
 5593POPC   C2B67906  16.234   2.708   5.277  0.3697 -0.2839  0.3406
 5593POPC   C3B67907  15.903   2.585   5.626 -0.0911  0.1275  0.3560
 5593POPC   C4B67908  15.432   2.318   5.706 -0.0112  0.1377 -0.0085
 5594POPC   NC367909   9.687  18.009   3.398 -0.4808 -0.0768 -0.0176
 5594POPC   PO467910   9.988  18.047   3.652 -0.3168 -0.1962 -0.1072
 5594POPC   GL167911  10.069  18.125   4.052  0.0590 -0.0507 -0.0756
 5594POPC   GL267912   9.792  18.188   4.145 -0.1681  0.1563 -0.1174
 5594POPC   C1A67913  10.151  18.193   4.508  0.0331  0.2294  0.0115
 5594POPC   D2A67914  10.353  18.275   4.890  0.2113  0.3232  0.1048
 5594POPC   C3A67915  10.292  18.387   5.329 -0.0919  0.0049 -0.2193
 5594POPC   C4A67916  10.537  18.717   5.615  0.1661  0.0031  0.0321
 5594POPC   C1B67917   9.882  18.595   4.327  0.3828 -0.1269 -0.2350
 5594POPC   C2B67918  10.206  18.728   4.655 -0.1168  0.2338 -0.1484
 5594POPC   C3B67919  10.510  18.747   5.062  0.0176  0.1550 -0.0777
 5594POPC   C4B67920  10.901  18.732   5.274 -0.2760  0.2561  0.0694
 5595POPC   NC367921  14.056   3.484   3.489  0.1112 -0.1559 -0.4308
 5595POPC   PO467922  13.677   3.404   3.612 -0.2347  0.2500  0.2651
 5595POPC   GL167923  13.598   3.663   3.904 -0.0116 -0.0706 -0.0732
 5595POPC   GL267924  13.883   3.804   3.818  0.0184 -0.2168 -0.0021
 5595POPC   C1A67925  13.291   3.928   4.235  0.0034  0.2086  0.1189
 5595POPC   D2A67926  12.896   3.762   4.467 -0.1082  0.0534 -0.2175
 5595POPC   C3A67927  12.880   3.693   4.981  0.0280  0.2421 -0.1373
 5595POPC   C4A67928  12.693   3.345   5.188  0.3044  0.4368  0.0540
 5595POPC   C1B67929  13.845   3.666   4.270 -0.0207 -0.0089 -0.0444
 5595POPC   C2B67930  13.810   3.403   4.666  0.0606 -0.1629 -0.2557
 5595POPC   C3B67931  14.128   3.315   5.033  0.1030  0.0287  0.2193
 5595POPC   C4B67932  14.438   3.094   5.249  0.0016  0.0178 -0.0837
 5596POPC   NC367933   9.759   6.362   3.704  0.2996 -0.1100 -0.2602
 5596POPC   PO467934   9.888   6.053   3.548 -0.3541 -0.1137  0.1160
 5596POPC   GL167935   9.828   5.834   3.936  0.3318 -0.1519 -0.0541
 5596POPC   GL267936   9.999   6.064   4.050  0.0372  0.1190 -0.1256
 5596POPC   C1A67937   9.911   5.661   4.347 -0.0202  0.0180 -0.0139
 5596POPC   D2A67938   9.955   5.281   4.740  0.0279  0.0254  0.2769
 5596POPC   C3A67939  10.302   5.254   5.053  0.0565 -0.3930  0.0464
 5596POPC   C4A67940  10.618   5.097   5.362 -0.0097 -0.2547  0.1541
 5596POPC   C1B67941  10.118   6.104   4.528 -0.2661  0.1362  0.0084
 5596POPC   C2B67942  10.223   6.212   5.003 -0.0773  0.0565 -0.0263
 5596POPC   C3B67943  10.576   6.170   5.260 -0.1251 -0.0201  0.2833
 5596POPC   C4B67944  11.039   6.149   5.285  0.1663  0.1573 -0.2010
 5597POPC   NC367945  28.515  10.497   3.766 -0.1084  0.2319 -0.0485
 5597POPC   PO467946  28.894  10.428   3.714 -0.4694 -0.3988 -0.1921
 5597POPC   GL167947  29.073  10.548   3.984  0.0448  0.2158 -0.2587
 5597POPC   GL267948  28.857  10.582   4.173  0.1732 -0.0288  0.0158
 5597POPC   C1A67949  29.247  10.444   4.418 -0.3718  0.0305  0.3608
 5597POPC   D2A67950  29.227  10.202   4.808 -0.2379 -0.1363  0.2510
 5597POPC   C3A67951  29.423  10.239   5.221 -0.0476 -0.1186  0.0165
 5597POPC   C4A67952  29.853  10.366   5.396 -0.2001  0.1282 -0.0597
 5597POPC   C1B67953  28.419  10.464   4.303 -0.1171 -0.0769 -0.1697
 5597POPC   C2B67954  28.108  10.327   4.652  0.1806 -0.2110  0.0562
 5597POPC   C3B67955  28.116  10.254   5.133  0.3587 -0.1091  0.0688
 5597POPC   C4B67956  28.067  10.461   5.566  0.2693  0.1195 -0.2908
 5598POPC   NC367957   7.108   2.734   3.525  0.1244  0.0060 -0.0887
 5598POPC   PO467958   6.741   2.698   3.716  0.0564 -0.0697  0.1364
 5598POPC   GL167959   6.842   2.674   4.082 -0.0125 -0.1735  0.3705
 5598POPC   GL267960   7.021   2.520   4.191  0.2067 -0.0601  0.4913
 5598POPC   C1A67961   6.669   2.918   4.495 -0.0151  0.0972  0.1185
 5598POPC   D2A67962   6.745   3.179   4.846  0.1205  0.0009  0.1574
 5598POPC   C3A67963   6.407   3.442   5.013  0.1013 -0.4094  0.0791
 5598POPC   C4A67964   6.230   3.847   5.189 -0.2025  0.3951 -0.1528
 5598POPC   C1B67965   7.258   2.444   4.572 -0.1056  0.0471 -0.1371
 5598POPC   C2B67966   7.392   2.312   4.985  0.1430 -0.3465 -0.2791
 5598POPC   C3B67967   7.277   2.436   5.429 -0.0402 -0.0783 -0.0849
 5598POPC   C4B67968   7.508   2.676   5.834  0.2203 -0.2798  0.0787
 5599POPC   NC367969   9.440  20.326   3.597 -0.2136  0.1984  0.0990
 5599POPC   PO467970   9.053  20.349   3.740 -0.2436 -0.2244 -0.1294
 5599POPC   GL167971   8.987  20.061   4.031  0.1053  0.3367 -0.0735
 5599POPC   GL267972   8.735  19.994   3.917 -0.0401 -0.1359 -0.1466
 5599POPC   C1A67973   9.102  19.686   4.298 -0.1067  0.1013  0.0449
 5599POPC   D2A67974   9.356  19.328   4.421 -0.0113 -0.2481 -0.1671
 5599POPC   C3A67975   9.552  19.514   4.821  0.1062  0.2161  0.0940
 5599POPC   C4A67976   9.767  19.355   5.165  0.0618  0.3434 -0.2361
 5599POPC   C1B67977   8.535  19.759   4.272 -0.1968  0.0363  0.0591
 5599POPC   C2B67978   8.786  19.565   4.615 -0.3896 -0.0819  0.2071
 5599POPC   C3B67979   9.055  19.458   4.920  0.0402  0.1214 -0.0613
 5599POPC   C4B67980   9.293  19.269   5.272  0.0324  0.1050  0.0646
 5600POPC   NC367981  15.507  31.231   3.460  0.3420 -0.2100 -0.1777
 5600POPC   PO467982  15.680  30.882   3.540  0.0627 -0.0219 -0.0613
 5600POPC   GL167983  15.624  31.039   3.906 -0.0453  0.2165  0.1195
 5600POPC   GL267984  15.851  30.957   4.034 -0.0156 -0.1296 -0.0940
 5600POPC   C1A67985  15.483  31.107   4.369  0.0591 -0.0465  0.1558
 5600POPC   D2A67986  15.190  30.968   4.661 -0.2327  0.2134  0.1667
 5600POPC   C3A67987  15.298  30.679   5.033  0.1295 -0.2878 -0.1309
 5600POPC   C4A67988  15.284  30.388   5.407 -0.1775  0.2630 -0.1125
 5600POPC   C1B67989  16.257  31.168   4.055  0.2024  0.2168  0.0001
 5600POPC   C2B67990  16.591  31.480   4.243 -0.1606  0.0676 -0.0209
 5600POPC   C3B67991  16.555  31.876   4.405  0.0944  0.1639  0.3504
 5600POPC   C4B67992  16.537  32.056   4.806  0.0154 -0.1608 -0.0266
 5601POPC   NC367993  16.504   2.976   3.939  0.4964 -0.0797 -0.0772
 5601POPC   PO467994  16.232   3.291   3.753  0.0271  0.3292 -0.2250
 5601POPC   GL167995  16.432   3.445   4.099  0.1537 -0.3258 -0.1343
 5601POPC   GL267996  16.267   3.353   4.230  0.1604  0.1089  0.1857
 5601POPC   C1A67997  16.771   3.636   4.347 -0.1499  0.0579 -0.2573
 5601POPC   D2A67998  16.986   3.892   4.665 -0.0934  0.0971 -0.2905
 5601POPC   C3A67999  17.423   3.833   4.856 -0.0390  0.2496 -0.3557
 5601POPC   C4A68000  17.713   4.109   5.133  0.0360  0.0577 -0.2037
 5601POPC   C1B68001  16.238   3.533   4.645 -0.0048 -0.0058 -0.0549
 5601POPC   C2B68002  16.129   3.539   5.120 -0.1655  0.1508  0.0457
 5601POPC   C3B68003  15.848   3.862   5.263  0.0003  0.1055 -0.1290
 5601POPC   C4B68004  15.522   4.038   5.548  0.0479 -0.3770  0.0803
 5602POPC   NC368005   2.623  29.285   3.737 -0.1518 -0.3184 -0.3053
 5602POPC   PO468006   2.251  29.224   3.662 -0.0221  0.1509 -0.2516
 5602POPC   GL168007   2.225  29.099   3.988 -0.0645 -0.0844  0.0013
 5602POPC   GL268008   1.932  29.071   4.055 -0.1419 -0.0172 -0.2845
 5602POPC   C1A68009   2.334  28.997   4.422  0.1291  0.1385  0.1635
 5602POPC   D2A68010   2.375  29.233   4.821  0.1063  0.0426  0.0384
 5602POPC   C3A68011   2.777  29.316   5.077 -0.0043  0.3194 -0.3420
 5602POPC   C4A68012   3.023  29.307   5.437 -0.0573  0.4454 -0.0363
 5602POPC   C1B68013   2.044  29.491   4.317 -0.1867  0.0372  0.2878
 5602POPC   C2B68014   1.989  29.590   4.795  0.1294  0.4743 -0.1147
 5602POPC   C3B68015   2.159  29.606   5.211  0.2650  0.1372  0.0100
 5602POPC   C4B68016   2.373  29.752   5.586  0.1096  0.0561 -0.2664
 5603POPC   NC368017  28.740  30.813   3.567 -0.3195 -0.1517  0.1554
 5603POPC   PO468018  28.957  30.501   3.391  0.1643 -0.0277 -0.1561
 5603POPC   GL168019  29.011  30.325   3.814  0.0681 -0.2094  0.0676
 5603POPC   GL268020  28.752  30.429   3.834  0.0558  0.1593 -0.0391
 5603POPC   C1A68021  28.964  30.156   4.219 -0.0140 -0.0797  0.1184
 5603POPC   D2A68022  29.053  30.165   4.646 -0.0519  0.0849  0.1809
 5603POPC   C3A68023  28.894  30.433   5.017 -0.1188  0.3791 -0.0922
 5603POPC   C4A68024  28.761  30.761   5.308  0.1307  0.1038 -0.2940
 5603POPC   C1B68025  28.572  30.453   4.210 -0.0462 -0.2393 -0.1502
 5603POPC   C2B68026  28.367  30.439   4.603 -0.0979 -0.0050 -0.1689
 5603POPC   C3B68027  27.952  30.374   4.814 -0.2920 -0.0008  0.0887
 5603POPC   C4B68028  27.627  30.009   4.815  0.4269  0.1853  0.1999
 5604POPC   NC368029   5.257  12.584   2.716 -0.0476  0.0784 -0.0106
 5604POPC   PO468030   5.455  12.658   3.053  0.0882 -0.2084  0.1592
 5604POPC   GL168031   5.735  12.588   3.229 -0.2821 -0.0836  0.1851
 5604POPC   GL268032   5.622  12.537   3.510  0.2567 -0.1146 -0.0182
 5604POPC   C1A68033   6.185  12.596   3.125  0.2235  0.1068  0.1046
 5604POPC   D2A68034   6.504  12.286   2.951  0.0845 -0.1044 -0.1684
 5604POPC   C3A68035   6.381  11.946   3.249  0.1808 -0.0722  0.1485
 5604POPC   C4A68036   6.105  11.669   3.451 -0.2499  0.0077 -0.2976
 5604POPC   C1B68037   5.718  12.262   3.829 -0.1606  0.3403  0.0502
 5604POPC   C2B68038   5.764  12.078   4.276 -0.0711 -0.0646 -0.1760
 5604POPC   C3B68039   5.972  11.742   4.539  0.1253 -0.2896 -0.0606
 5604POPC   C4B68040   5.744  11.356   4.742  0.1799 -0.2719  0.2788
 5605POPC   NC368041  31.276  29.187   3.643  0.1334 -0.2777 -0.0300
 5605POPC   PO468042  31.345  28.888   3.891  0.2171  0.1409 -0.0243
 5605POPC   GL168043  31.726  28.916   3.946  0.3036 -0.4881 -0.0372
 5605POPC   GL268044  31.790  28.714   4.074 -0.5257  0.5238  0.0694
 5605POPC   C1A68045  32.053  29.109   4.213 -0.1803  0.2418 -0.2754
 5605POPC   D2A68046  32.366  29.298   4.468  0.1594  0.0223 -0.0885
 5605POPC   C3A68047  32.649  29.003   4.694 -0.1259 -0.2780  0.1892
 5605POPC   C4A68048  33.106  28.943   4.797  0.2148  0.1300  0.1644
 5605POPC   C1B68049  31.586  28.630   4.499 -0.2773  0.0072  0.1242
 5605POPC   C2B68050  31.440  28.516   4.928  0.0397  0.2480 -0.0121
 5605POPC   C3B68051  31.376  28.402   5.322 -0.1032 -0.0693  0.0450
 5605POPC   C4B68052  31.329  28.078   5.661  0.0842  0.0781 -0.3987
 5606POPC   NC368053  17.482  14.696   4.154  0.0418 -0.1586 -0.0193
 5606POPC   PO468054  17.238  14.530   3.935 -0.0917 -0.0076 -0.2091
 5606POPC   GL168055  17.274  14.297   4.236 -0.2362 -0.0083  0.1505
 5606POPC   GL268056  17.151  14.487   4.490  0.3223  0.1409  0.0153
 5606POPC   C1A68057  17.254  13.853   4.384 -0.2917  0.1743  0.3591
 5606POPC   D2A68058  17.264  13.538   4.694  0.3504  0.2794 -0.2142
 5606POPC   C3A68059  17.554  13.490   5.029 -0.0792 -0.0783 -0.1867
 5606POPC   C4A68060  17.628  13.297   5.457 -0.4280 -0.0995 -0.2997
 5606POPC   C1B68061  17.252  14.206   4.797 -0.0960  0.5576  0.0048
 5606POPC   C2B68062  17.326  13.958   5.197  0.2796  0.1886  0.1801
 5606POPC   C3B68063  17.297  13.648   5.529 -0.2080  0.0974  0.1351
 5606POPC   C4B68064  17.100  13.374   5.846 -0.2026  0.1575  0.0285
 5607POPC   NC368065  23.845   4.253   3.395 -0.1697  0.0348 -0.0868
 5607POPC   PO468066  24.028   3.928   3.371 -0.0168  0.0082  0.1918
 5607POPC   GL168067  24.168   3.921   3.845  0.0707  0.0881 -0.0955
 5607POPC   GL268068  24.305   4.190   3.900 -0.1393 -0.2695 -0.2640
 5607POPC   C1A68069  23.892   3.890   4.238  0.0219 -0.0119 -0.2262
 5607POPC   D2A68070  23.865   4.000   4.676 -0.1921 -0.0287 -0.4431
 5607POPC   C3A68071  24.062   3.784   5.061 -0.2326  0.0238 -0.0407
 5607POPC   C4A68072  24.279   3.588   5.377  0.0666  0.0505  0.0615
 5607POPC   C1B68073  24.285   4.572   4.229 -0.1255 -0.1005  0.0681
 5607POPC   C2B68074  24.015   4.840   4.554  0.0646  0.1668  0.1813
 5607POPC   C3B68075  23.979   4.769   4.983 -0.1397 -0.0927  0.1570
 5607POPC   C4B68076  23.938   4.607   5.426 -0.1680 -0.0294 -0.4154
 5608POPC   NC368077   3.301   0.254   3.894 -0.0409  0.0094 -0.2683
 5608POPC   PO468078   3.498   0.443   4.199  0.1100  0.1180  0.0720
 5608POPC   GL168079   3.262   0.478   4.561 -0.1712  0.0039  0.2041
 5608POPC   GL268080   3.560   0.396   4.705 -0.0368 -0.2955 -0.3017
 5608POPC   C1A68081   3.087   0.789   4.867 -0.1453  0.2345  0.2268
 5608POPC   D2A68082   3.138   1.175   5.116  0.2337  0.1018 -0.2071
 5608POPC   C3A68083   2.994   1.326   5.506  0.0444  0.0214  0.2465
 5608POPC   C4A68084   2.944   1.624   5.862 -0.0824 -0.0866  0.5591
 5608POPC   C1B68085   3.403   0.097   5.009 -0.0806 -0.0012  0.1468
 5608POPC   C2B68086   3.383  -0.054   5.454 -0.2967 -0.2948  0.1574
 5608POPC   C3B68087   3.073   0.090   5.800  0.2454 -0.2203 -0.0100
 5608POPC   C4B68088   2.785   0.434   5.902 -0.0524 -0.0176 -0.0246
 5609POPC   NC368089   8.685  30.116   3.503  0.0042 -0.0747 -0.2949
 5609POPC   PO468090   8.480  30.428   3.446  0.0925  0.1461  0.1033
 5609POPC   GL168091   8.633  30.419   3.863 -0.1078 -0.3155 -0.0015
 5609POPC   GL268092   8.680  30.165   4.051 -0.1215  0.2889  0.1915
 5609POPC   C1A68093   8.546  30.669   4.204 -0.0612 -0.1430  0.1953
 5609POPC   D2A68094   8.354  30.926   4.510  0.0079  0.2268 -0.0215
 5609POPC   C3A68095   8.429  30.827   4.946 -0.0586  0.2084 -0.0795
 5609POPC   C4A68096   8.683  30.584   5.187 -0.0474  0.2005 -0.0726
 5609POPC   C1B68097   8.645  29.999   4.502  0.0817  0.0885  0.0330
 5609POPC   C2B68098   8.501  29.626   4.742 -0.3063  0.1966 -0.1586
 5609POPC   C3B68099   8.458  29.556   5.157  0.0576  0.2478 -0.3141
 5609POPC   C4B68100   8.578  29.375   5.574  0.2506  0.0687  0.1359
 5610POPC   NC368101   8.800   1.331   3.810 -0.0340 -0.2545  0.2804
 5610POPC   PO468102   8.480   1.214   3.960 -0.0577 -0.1861  0.2207
 5610POPC   GL168103   8.512   1.334   4.355  0.1353  0.3848  0.0825
 5610POPC   GL268104   8.489   1.594   4.423  0.2120 -0.1306 -0.0976
 5610POPC   C1A68105   8.148   1.236   4.673  0.0123 -0.2044  0.2180
 5610POPC   D2A68106   7.772   1.279   4.935 -0.0697 -0.1172  0.1609
 5610POPC   C3A68107   7.646   1.269   5.326  0.1422 -0.0583  0.0100
 5610POPC   C4A68108   7.559   1.250   5.821  0.0868  0.2301 -0.2721
 5610POPC   C1B68109   8.645   1.844   4.821  0.2577 -0.1480  0.0232
 5610POPC   C2B68110   8.723   2.140   5.156  0.0522 -0.1973  0.0995
 5610POPC   C3B68111   8.857   2.068   5.609  0.3472 -0.2188  0.2228
 5610POPC   C4B68112   9.036   2.127   6.029 -0.1968 -0.0323 -0.2205
 5611POPC   NC368113   4.394  10.199   3.613  0.2195  0.2531 -0.1329
 5611POPC   PO468114   4.131  10.484   3.600 -0.5080 -0.0429 -0.2587
 5611POPC   GL168115   4.274  10.605   3.962 -0.2328 -0.1644  0.0082
 5611POPC   GL268116   4.208  10.400   4.143  0.0319 -0.1927  0.3096
 5611POPC   C1A68117   4.636  10.563   4.284 -0.3022 -0.1711  0.1784
 5611POPC   D2A68118   4.404  10.419   4.583 -0.0051  0.2038  0.1474
 5611POPC   C3A68119   4.726  10.479   4.869  0.0689  0.0027  0.0727
 5611POPC   C4A68120   4.834  10.141   5.208 -0.1966  0.2688  0.0713
 5611POPC   C1B68121   3.981  10.596   4.468 -0.0790  0.0427 -0.1254
 5611POPC   C2B68122   3.850  10.708   4.923  0.4336 -0.2398 -0.0187
 5611POPC   C3B68123   4.136  10.870   5.250 -0.1005 -0.1763  0.2032
 5611POPC   C4B68124   4.080  10.855   5.713  0.0789  0.1298  0.0781
 5612POPC   NC368125  19.406  21.503   4.074 -0.2149  0.0481  0.0019
 5612POPC   PO468126  19.705  21.720   4.146 -0.0270 -0.1404  0.1237
 5612POPC   GL168127  19.658  21.899   4.490  0.2170  0.5148 -0.0204
 5612POPC   GL268128  19.507  21.614   4.582 -0.4946  0.0470 -0.0070
 5612POPC   C1A68129  19.347  22.038   4.792 -0.0740 -0.1617  0.0399
 5612POPC   D2A68130  19.150  22.272   5.093  0.0455  0.0151 -0.1456
 5612POPC   C3A68131  19.044  22.275   5.575 -0.0151 -0.2434 -0.3905
 5612POPC   C4A68132  18.898  22.390   6.039 -0.1457 -0.0042  0.1436
 5612POPC   C1B68133  19.497  21.593   5.056  0.0748 -0.0076 -0.3682
 5612POPC   C2B68134  19.551  21.853   5.478  0.1496 -0.3368 -0.0956
 5612POPC   C3B68135  19.753  21.991   5.857 -0.1744 -0.0479 -0.0271
 5612POPC   C4B68136  20.009  22.127   6.239 -0.3381  0.2748  0.1607
 5613POPC   NC368137   7.918  15.812   3.637  0.1024 -0.3579  0.0413
 5613POPC   PO468138   7.786  16.127   3.834  0.0781 -0.1818  0.0610
 5613POPC   GL168139   7.932  15.992   4.192  0.1520 -0.3591  0.1112
 5613POPC   GL268140   7.834  15.831   4.336  0.0345  0.0741  0.0289
 5613POPC   C1A68141   7.878  16.211   4.623 -0.0542 -0.0105 -0.1159
 5613POPC   D2A68142   7.647  16.338   5.015 -0.0094 -0.1250  0.1944
 5613POPC   C3A68143   7.697  16.675   5.313  0.2987  0.2106 -0.1110
 5613POPC   C4A68144   7.797  17.100   5.382  0.1311  0.1595 -0.0618
 5613POPC   C1B68145   7.668  15.624   4.688  0.1064  0.0901 -0.2440
 5613POPC   C2B68146   7.766  15.298   5.034  0.0386 -0.2522  0.2312
 5613POPC   C3B68147   7.894  15.314   5.432  0.3079  0.0194 -0.1443
 5613POPC   C4B68148   8.096  15.328   5.872  0.2274  0.2116 -0.1789
 5614POPC   NC368149  15.110   8.217   3.436 -0.3403 -0.2535  0.0124
 5614POPC   PO468150  14.956   8.302   3.803 -0.0135  0.0108  0.0321
 5614POPC   GL168151  15.012   8.435   4.138 -0.3316  0.3770 -0.3976
 5614POPC   GL268152  15.296   8.548   4.162  0.0846  0.1703 -0.2502
 5614POPC   C1A68153  14.680   8.380   4.460  0.1834 -0.1238 -0.0126
 5614POPC   D2A68154  14.333   8.609   4.669  0.1653 -0.0581  0.1402
 5614POPC   C3A68155  14.309   8.742   5.161 -0.3790 -0.0184 -0.3083
 5614POPC   C4A68156  14.332   8.941   5.545  0.3013  0.2593 -0.0381
 5614POPC   C1B68157  15.245   8.788   4.508 -0.1461 -0.0096  0.0196
 5614POPC   C2B68158  15.311   8.901   4.963  0.2406  0.1722 -0.2944
 5614POPC   C3B68159  15.115   8.951   5.388  0.1625 -0.0431 -0.0826
 5614POPC   C4B68160  14.807   9.164   5.678 -0.1537  0.0846  0.0472
 5615POPC   NC368161  13.020  13.612   3.161  0.0146 -0.1106 -0.1130
 5615POPC   PO468162  13.106  13.954   3.358  0.3114  0.1758  0.1260
 5615POPC   GL168163  13.282  14.006   3.590 -0.6074 -0.0777 -0.1385
 5615POPC   GL268164  13.194  13.849   3.866 -0.3057  0.0323 -0.0107
 5615POPC   C1A68165  13.089  14.379   3.842 -0.0466  0.2980 -0.1623
 5615POPC   D2A68166  13.348  14.610   4.150  0.1282  0.0252 -0.0093
 5615POPC   C3A68167  13.479  14.953   4.432 -0.1409 -0.4179 -0.1743
 5615POPC   C4A68168  13.528  15.056   4.862  0.0606  0.3116 -0.1795
 5615POPC   C1B68169  12.880  13.660   4.176  0.0217  0.1234  0.1233
 5615POPC   C2B68170  12.730  13.467   4.611  0.3243  0.0520 -0.1362
 5615POPC   C3B68171  12.581  13.255   5.011  0.0848  0.3143  0.0725
 5615POPC   C4B68172  12.484  12.932   5.316  0.2128 -0.2438  0.1025
 5616POPC   NC368173  20.765   6.451   3.831 -0.1609  0.1327 -0.1454
 5616POPC   PO468174  21.102   6.370   3.926  0.2817  0.0025 -0.2637
 5616POPC   GL168175  21.010   6.475   4.269 -0.1592  0.0631  0.0753
 5616POPC   GL268176  20.734   6.343   4.335 -0.1651 -0.1046 -0.1741
 5616POPC   C1A68177  21.094   6.241   4.635 -0.1119 -0.1117  0.1836
 5616POPC   D2A68178  20.977   5.872   4.858 -0.1795 -0.0218  0.0127
 5616POPC   C3A68179  21.109   5.764   5.314  0.4053 -0.0228 -0.2213
 5616POPC   C4A68180  20.979   5.528   5.724  0.2467 -0.4338  0.1169
 5616POPC   C1B68181  20.567   6.140   4.693  0.1107  0.0824 -0.4721
 5616POPC   C2B68182  20.165   6.029   4.924 -0.0151  0.3317 -0.4243
 5616POPC   C3B68183  19.909   6.306   5.238 -0.1075 -0.0606  0.2155
 5616POPC   C4B68184  19.618   6.506   5.492  0.1867 -0.0968 -0.0779
 5617POPC   NC368185  25.278  10.108   3.514  0.0114 -0.2443 -0.3265
 5617POPC   PO468186  25.302   9.914   3.874 -0.1625  0.1236  0.1230
 5617POPC   GL168187  25.332  10.172   4.100 -0.2045  0.0505 -0.1304
 5617POPC   GL268188  25.323  10.420   3.922 -0.0497 -0.0461  0.1130
 5617POPC   C1A68189  25.676  10.320   4.378 -0.1848  0.1703  0.0613
 5617POPC   D2A68190  25.786  10.151   4.876 -0.0729  0.2959 -0.1356
 5617POPC   C3A68191  26.164  10.403   4.761  0.2520  0.1445  0.3024
 5617POPC   C4A68192  26.341  10.748   5.008  0.0010  0.3800 -0.2368
 5617POPC   C1B68193  25.299  10.672   4.338  0.0469 -0.0026 -0.1227
 5617POPC   C2B68194  25.423  11.006   4.570  0.2515  0.0276  0.0990
 5617POPC   C3B68195  25.676  11.325   4.849  0.0052  0.0323 -0.1077
 5617POPC   C4B68196  25.989  11.601   5.128 -0.0333 -0.1937  0.0891
 5618POPC   NC368197  18.027  28.742   3.941 -0.3451  0.0451  0.2769
 5618POPC   PO468198  18.349  28.928   3.748 -0.0571 -0.3189  0.1037
 5618POPC   GL168199  18.302  29.211   4.011 -0.0156 -0.1322 -0.0485
 5618POPC   GL268200  18.105  29.380   3.947 -0.0896 -0.0542 -0.1194
 5618POPC   C1A68201  18.501  29.358   4.380  0.0645  0.0795 -0.0891
 5618POPC   D2A68202  18.834  29.086   4.635  0.1009 -0.1332 -0.0815
 5618POPC   C3A68203  19.007  28.927   5.040  0.0112 -0.2847 -0.0118
 5618POPC   C4A68204  19.252  28.792   5.393  0.1608  0.1805  0.0371
 5618POPC   C1B68205  17.982  29.185   4.330 -0.1754 -0.0157 -0.0356
 5618POPC   C2B68206  17.715  29.130   4.710  0.0391  0.0048  0.1463
 5618POPC   C3B68207  17.347  29.277   4.981 -0.4130 -0.2182  0.2177
 5618POPC   C4B68208  17.029  29.144   5.231  0.1714  0.2010  0.0571
 5619POPC   NC368209   7.152  21.084   4.059 -0.1712  0.1779  0.1481
 5619POPC   PO468210   7.472  21.120   3.853 -0.4707 -0.1626  0.2254
 5619POPC   GL168211   7.701  21.173   4.331  0.0161 -0.1891  0.1607
 5619POPC   GL268212   7.994  21.152   4.283 -0.0394  0.1368  0.0559
 5619POPC   C1A68213   7.678  21.591   4.429  0.1469 -0.1425  0.1371
 5619POPC   D2A68214   7.785  22.056   4.533  0.2991 -0.0226 -0.0671
 5619POPC   C3A68215   7.945  22.179   5.000 -0.2881  0.2529 -0.0551
 5619POPC   C4A68216   8.319  22.289   5.267  0.0400 -0.1427 -0.2107
 5619POPC   C1B68217   7.914  21.214   4.795  0.2071 -0.6678  0.1320
 5619POPC   C2B68218   8.005  21.432   5.270 -0.2716 -0.2337 -0.1472
 5619POPC   C3B68219   7.943  21.320   5.701  0.0998 -0.2861 -0.1714
 5619POPC   C4B68220   7.820  21.172   6.143 -0.1440 -0.0297  0.2779
 5620POPC   NC368221  24.965  30.639   3.810 -0.1848 -0.2964  0.0057
 5620POPC   PO468222  24.819  30.277   3.759  0.2018 -0.3398 -0.3138
 5620POPC   GL168223  24.868  30.133   4.083 -0.2583  0.1625 -0.2361
 5620POPC   GL268224  25.081  30.150   4.263  0.2039  0.1714 -0.1093
 5620POPC   C1A68225  24.725  30.112   4.531  0.2665  0.2971  0.2109
 5620POPC   D2A68226  24.968  30.183   4.903  0.0578 -0.0802 -0.1093
 5620POPC   C3A68227  24.729  30.228   5.307 -0.0605  0.2812 -0.1199
 5620POPC   C4A68228  24.517  30.509   5.638  0.2217 -0.2376  0.0088
 5620POPC   C1B68229  25.031  29.755   4.604 -0.1535 -0.0472 -0.2496
 5620POPC   C2B68230  25.340  29.732   4.946  0.0535 -0.0974 -0.2208
 5620POPC   C3B68231  25.292  29.982   5.332 -0.1168 -0.3301  0.0698
 5620POPC   C4B68232  25.204  30.267   5.730  0.1108 -0.2242  0.1260
 5621POPC   NC368233  15.855   5.560   3.578 -0.0690  0.2529  0.1246
 5621POPC   PO468234  15.695   5.487   3.199  0.0872  0.5395 -0.1766
 5621POPC   GL168235  15.785   5.103   3.490  0.0723  0.1334 -0.0617
 5621POPC   GL268236  15.571   5.135   3.653 -0.1208  0.1397 -0.1405
 5621POPC   C1A68237  16.210   4.868   3.488 -0.0847  0.4287  0.1534
 5621POPC   D2A68238  16.525   4.697   3.243 -0.1527 -0.1139  0.1117
 5621POPC   C3A68239  16.800   4.323   3.092  0.1393 -0.0166 -0.2666
 5621POPC   C4A68240  17.212   4.135   3.218 -0.2510 -0.1054  0.0692
 5621POPC   C1B68241  15.903   5.157   3.910 -0.0306  0.0429 -0.1043
 5621POPC   C2B68242  16.178   5.328   4.229  0.0112  0.0467 -0.0963
 5621POPC   C3B68243  16.268   5.179   4.681 -0.0650  0.2392 -0.1675
 5621POPC   C4B68244  16.322   5.253   5.177  0.0903 -0.0094  0.0358
 5622POPC   NC368245  22.190  13.063   3.681 -0.0815  0.0815  0.1596
 5622POPC   PO468246  21.961  13.365   3.609  0.2496 -0.0487 -0.1910
 5622POPC   GL168247  21.609  13.557   3.690 -0.1051  0.2103  0.0685
 5622POPC   GL268248  21.676  13.811   3.772  0.2287 -0.1275  0.1067
 5622POPC   C1A68249  21.221  13.577   3.966  0.0128 -0.0907 -0.2676
 5622POPC   D2A68250  21.114  13.322   4.321  0.2148  0.0437 -0.0960
 5622POPC   C3A68251  21.168  13.331   4.825 -0.3364  0.5206 -0.0344
 5622POPC   C4A68252  21.182  13.638   5.228  0.0598 -0.1846  0.2822
 5622POPC   C1B68253  21.422  14.225   3.858  0.0036 -0.1264  0.0139
 5622POPC   C2B68254  21.291  14.611   4.110  0.0379  0.2769  0.0485
 5622POPC   C3B68255  20.996  15.036   4.255  0.0779 -0.1765  0.5187
 5622POPC   C4B68256  21.066  15.407   4.498  0.1713  0.1715  0.1558
 5623POPC   NC368257  11.650   6.317   3.763  0.1104  0.0448  0.1315
 5623POPC   PO468258  11.661   6.713   3.784  0.1581  0.2463 -0.2818
 5623POPC   GL168259  11.500   6.526   4.124  0.1925  0.2425 -0.1877
 5623POPC   GL268260  11.739   6.555   4.267  0.0738 -0.3750 -0.1061
 5623POPC   C1A68261  11.373   6.868   4.458  0.0192 -0.1886 -0.1154
 5623POPC   D2A68262  11.565   6.961   4.843 -0.0759 -0.1094  0.1954
 5623POPC   C3A68263  11.903   7.165   5.021 -0.3527  0.2699 -0.0771
 5623POPC   C4A68264  12.213   7.493   5.207 -0.0764 -0.0689  0.3907
 5623POPC   C1B68265  11.657   6.410   4.709  0.0112  0.0384 -0.0848
 5623POPC   C2B68266  11.726   6.552   5.160  0.0505  0.0302  0.0912
 5623POPC   C3B68267  11.913   6.863   5.421  0.2053 -0.0427  0.0552
 5623POPC   C4B68268  12.107   6.822   5.869  0.1778  0.2791  0.0640
 5624POPC   NC368269  22.208  17.167   3.012  0.0360 -0.1290 -0.2804
 5624POPC   PO468270  22.366  16.841   3.165 -0.3434  0.0183  0.0057
 5624POPC   GL168271  22.023  16.795   3.304 -0.0161 -0.0363 -0.2061
 5624POPC   GL268272  22.016  16.922   3.555  0.1069  0.1862  0.2048
 5624POPC   C1A68273  21.679  17.007   3.073  0.0982 -0.0549  0.4159
 5624POPC   D2A68274  21.378  17.200   2.697 -0.0659  0.1204  0.0183
 5624POPC   C3A68275  20.999  16.948   2.673 -0.0138  0.2137  0.0888
 5624POPC   C4A68276  20.613  16.958   2.982 -0.2341  0.2320  0.1999
 5624POPC   C1B68277  21.719  17.244   3.591  0.0451 -0.0455  0.1377
 5624POPC   C2B68278  21.504  17.552   3.885  0.1260  0.0668 -0.0600
 5624POPC   C3B68279  21.368  17.655   4.306  0.0815 -0.1654  0.1151
 5624POPC   C4B68280  21.156  17.488   4.680  0.1375  0.1591 -0.0372
 5625POPC   NC368281  26.538  21.594   4.108 -0.0770  0.2323 -0.1578
 5625POPC   PO468282  26.158  21.595   4.265 -0.1178  0.1602  0.0574
 5625POPC   GL168283  26.074  21.600   4.649 -0.1038 -0.1046 -0.1136
 5625POPC   GL268284  26.001  21.865   4.685 -0.0410 -0.1440 -0.2786
 5625POPC   C1A68285  26.162  21.582   5.114  0.3727  0.2226 -0.1002
 5625POPC   D2A68286  26.281  21.576   5.536 -0.0947 -0.3923 -0.7478
 5625POPC   C3A68287  26.604  21.515   5.886  0.3605  0.0627 -0.0875
 5625POPC   C4A68288  26.615  21.515   6.350  0.1656 -0.0570  0.0026
 5625POPC   C1B68289  25.861  22.122   5.018  0.3216  0.2810  0.0398
 5625POPC   C2B68290  25.843  22.404   5.345 -0.0438  0.1190 -0.1618
 5625POPC   C3B68291  25.989  22.409   5.753  0.1048  0.0175 -0.3269
 5625POPC   C4B68292  26.343  22.206   5.998  0.3821  0.2347 -0.2320
 5626POPC   NC368293  10.600   9.190   3.887  0.2748 -0.2510  0.1211
 5626POPC   PO468294  10.292   9.429   3.872 -0.3349 -0.2224 -0.1207
 5626POPC   GL168295  10.063   9.370   4.172  0.1566 -0.0609 -0.0696
 5626POPC   GL268296  10.185   9.608   4.363 -0.0642  0.1367  0.1539
 5626POPC   C1A68297  10.171   9.099   4.529 -0.5476 -0.0934 -0.1830
 5626POPC   D2A68298  10.212   8.956   4.965  0.1199  0.0955  0.1634
 5626POPC   C3A68299  10.128   9.289   5.249  0.0977  0.2189 -0.2830
 5626POPC   C4A68300  10.055   9.351   5.727 -0.0521  0.1306 -0.0215
 5626POPC   C1B68301   9.856   9.530   4.637 -0.0832 -0.0249  0.0125
 5626POPC   C2B68302   9.593   9.737   4.982  0.1429  0.3392  0.2479
 5626POPC   C3B68303   9.534   9.866   5.417  0.0365 -0.1109 -0.0547
 5626POPC   C4B68304   9.772   9.893   5.851  0.0781  0.0830  0.0310
 5627POPC   NC368305  27.098   6.249   3.738 -0.0952 -0.0575  0.2511
 5627POPC   PO468306  26.871   5.969   3.907  0.0969 -0.1076 -0.1267
 5627POPC   GL168307  26.768   6.176   4.264  0.2427  0.0331  0.1219
 5627POPC   GL268308  26.895   6.475   4.199  0.4918  0.0728  0.0912
 5627POPC   C1A68309  27.013   6.266   4.640  0.1418  0.1435 -0.0616
 5627POPC   D2A68310  26.941   6.518   4.964  0.0261  0.6208  0.1430
 5627POPC   C3A68311  26.609   6.359   5.187  0.0692 -0.0285  0.3105
 5627POPC   C4A68312  26.531   6.002   5.514  0.1146  0.0040  0.0627
 5627POPC   C1B68313  26.792   6.746   4.544 -0.0279  0.0840 -0.0193
 5627POPC   C2B68314  26.599   7.116   4.773  0.0330  0.4977  0.0500
 5627POPC   C3B68315  26.636   7.312   5.170 -0.3956 -0.4042 -0.1440
 5627POPC   C4B68316  26.936   7.456   5.520 -0.0677 -0.0392  0.3983
 5628POPC   NC368317  17.142  28.797   3.433 -0.1428 -0.0825 -0.0390
 5628POPC   PO468318  17.566  28.708   3.415 -0.0087  0.2200  0.2224
 5628POPC   GL168319  17.596  28.545   3.736  0.1812 -0.1505 -0.1195
 5628POPC   GL268320  17.752  28.320   3.702 -0.1859  0.1267 -0.2222
 5628POPC   C1A68321  17.257  28.488   3.997  0.2095 -0.3329  0.1205
 5628POPC   D2A68322  16.772  28.426   4.118 -0.1284 -0.1027  0.0328
 5628POPC   C3A68323  16.690  28.257   4.580 -0.0805 -0.3883 -0.0915
 5628POPC   C4A68324  16.611  28.268   5.006 -0.1935 -0.1165 -0.5752
 5628POPC   C1B68325  17.692  28.262   4.169 -0.0635  0.2165 -0.2189
 5628POPC   C2B68326  17.658  28.210   4.626  0.0599  0.2346 -0.1190
 5628POPC   C3B68327  17.543  28.389   5.045 -0.0328 -0.0285  0.0006
 5628POPC   C4B68328  17.252  28.174   5.395 -0.1811  0.3089  0.2028
 5629POPC   NC368329  31.222   4.218   3.670 -0.0987  0.0754 -0.2222
 5629POPC   PO468330  31.514   4.239   3.878  0.0338 -0.1258  0.2697
 5629POPC   GL168331  31.532   4.160   4.248  0.2470  0.1456  0.1550
 5629POPC   GL268332  31.477   3.843   4.231  0.1405 -0.0803 -0.1132
 5629POPC   C1A68333  31.242   4.113   4.592 -0.2228  0.2200 -0.0772
 5629POPC   D2A68334  31.011   3.946   4.869 -0.0572 -0.3463  0.2541
 5629POPC   C3A68335  30.905   4.199   5.170 -0.1769  0.1430  0.1005
 5629POPC   C4A68336  30.687   4.354   5.498  0.2200 -0.3012 -0.0412
 5629POPC   C1B68337  31.551   3.766   4.690 -0.1268 -0.1587  0.0228
 5629POPC   C2B68338  31.365   3.747   5.132  0.0272 -0.2296 -0.2279
 5629POPC   C3B68339  31.125   3.502   5.491 -0.2908 -0.2368  0.0444
 5629POPC   C4B68340  30.697   3.298   5.492 -0.0740  0.0201 -0.1696
 5630POPC   NC368341  24.361  13.451   3.899  0.0647 -0.1020 -0.0723
 5630POPC   PO468342  24.156  13.491   3.576  0.1520  0.0308 -0.3317
 5630POPC   GL168343  23.848  13.470   3.911  0.1950  0.1548  0.0238
 5630POPC   GL268344  23.922  13.316   4.157  0.0924 -0.0290  0.0086
 5630POPC   C1A68345  23.628  13.666   4.363 -0.1126  0.2522 -0.0396
 5630POPC   D2A68346  23.549  13.909   4.717 -0.4744 -0.0157  0.2250
 5630POPC   C3A68347  23.300  13.810   5.065 -0.1805 -0.0476  0.2105
 5630POPC   C4A68348  23.045  13.582   5.418  0.1601 -0.0767 -0.1357
 5630POPC   C1B68349  24.183  13.247   4.496 -0.2198 -0.0799  0.0757
 5630POPC   C2B68350  24.114  13.050   4.913  0.0157 -0.0242  0.1957
 5630POPC   C3B68351  24.194  12.882   5.357  0.1213 -0.0047  0.0999
 5630POPC   C4B68352  24.037  12.545   5.614  0.2087  0.1092  0.0753
 5631POPC   NC368353   4.390   6.901   3.628 -0.0998 -0.1900  0.1597
 5631POPC   PO468354   4.543   6.556   3.494  0.0600 -0.3688  0.1227
 5631POPC   GL168355   4.552   6.428   3.851 -0.0108  0.0728  0.2878
 5631POPC   GL268356   4.741   6.125   3.888  0.1611  0.1271 -0.1337
 5631POPC   C1A68357   4.535   6.613   4.258 -0.0791 -0.2012 -0.2582
 5631POPC   D2A68358   4.294   6.883   4.455  0.2844 -0.0491  0.3016
 5631POPC   C3A68359   4.088   6.848   4.857 -0.2419 -0.3804 -0.1125
 5631POPC   C4A68360   3.916   6.805   5.303 -0.1603  0.0915  0.1735
 5631POPC   C1B68361   4.698   6.002   4.305 -0.0355 -0.0213 -0.2178
 5631POPC   C2B68362   4.573   5.979   4.728 -0.2086  0.3468 -0.0611
 5631POPC   C3B68363   4.653   6.049   5.173 -0.3118 -0.1561 -0.2349
 5631POPC   C4B68364   4.566   6.109   5.640 -0.2729  0.1288  0.2055
 5632POPC   NC368365  31.213   8.913   3.721  0.2035  0.2875 -0.1292
 5632POPC   PO468366  31.202   8.520   3.597 -0.1435 -0.2612  0.1484
 5632POPC   GL168367  31.238   8.343   3.944 -0.0982  0.3199 -0.0617
 5632POPC   GL268368  31.002   8.239   3.999  0.3305 -0.2125  0.0414
 5632POPC   C1A68369  31.463   8.319   4.362  0.2870 -0.4326  0.1074
 5632POPC   D2A68370  31.452   8.378   4.854 -0.2838  0.3861 -0.0469
 5632POPC   C3A68371  31.723   8.164   5.104  0.0968 -0.2140 -0.1470
 5632POPC   C4A68372  32.043   8.093   5.404  0.2789  0.2947  0.1736
 5632POPC   C1B68373  30.923   8.219   4.503 -0.1688 -0.1179 -0.0837
 5632POPC   C2B68374  30.976   8.070   4.913 -0.0103  0.4668 -0.0804
 5632POPC   C3B68375  31.270   8.199   5.240  0.0130 -0.0360 -0.3346
 5632POPC   C4B68376  31.532   8.588   5.363 -0.0179  0.1778  0.0965
 5633POPC   NC368377   1.935  25.090   3.693  0.4224 -0.1651  0.0607
 5633POPC   PO468378   1.611  25.272   3.600 -0.3391 -0.1181  0.1161
 5633POPC   GL168379   1.385  25.441   3.912 -0.3346  0.2340  0.0500
 5633POPC   GL268380   1.179  25.503   3.722  0.0550  0.0829 -0.0080
 5633POPC   C1A68381   1.379  25.291   4.302 -0.5883 -0.0835 -0.0330
 5633POPC   D2A68382   1.151  25.178   4.687 -0.4934  0.0418  0.0206
 5633POPC   C3A68383   0.863  25.198   5.035 -0.1435 -0.0706 -0.1440
 5633POPC   C4A68384   0.507  24.950   5.254  0.0655  0.1718  0.3372
 5633POPC   C1B68385   0.962  25.560   4.106 -0.0086  0.1841 -0.1002
 5633POPC   C2B68386   0.816  25.510   4.553 -0.0225 -0.0434  0.1381
 5633POPC   C3B68387   0.666  25.703   4.881  0.1272 -0.0974  0.0526
 5633POPC   C4B68388   0.481  25.816   5.263  0.0170  0.1203  0.0356
 5634POPC   NC368389   1.769  28.685   3.857  0.2600 -0.0516  0.1778
 5634POPC   PO468390   2.087  28.707   3.680  0.0661  0.0354 -0.0104
 5634POPC   GL168391   2.178  28.687   4.112 -0.1299 -0.1792  0.2232
 5634POPC   GL268392   2.196  28.353   4.129 -0.0933  0.0721  0.0741
 5634POPC   C1A68393   1.896  28.652   4.480 -0.0787 -0.1402 -0.1562
 5634POPC   D2A68394   2.080  28.768   4.843 -0.1735  0.1620 -0.0956
 5634POPC   C3A68395   2.054  28.595   5.345  0.2398 -0.0225 -0.0248
 5634POPC   C4A68396   1.993  28.831   5.767 -0.2388  0.0666 -0.1051
 5634POPC   C1B68397   2.551  28.517   4.421  0.0803 -0.4432 -0.2338
 5634POPC   C2B68398   2.976  28.405   4.459 -0.2096 -0.1109  0.2396
 5634POPC   C3B68399   3.319  28.311   4.786 -0.0525  0.0738 -0.1404
 5634POPC   C4B68400   3.357  28.442   5.190  0.0507 -0.2497 -0.2685
 5635POPC   NC368401  21.958  24.461   3.804 -0.1651  0.1965  0.0196
 5635POPC   PO468402  21.805  24.158   3.605 -0.3189  0.2926 -0.1952
 5635POPC   GL168403  22.008  23.888   3.841 -0.1884  0.0345 -0.3578
 5635POPC   GL268404  21.899  23.941   4.085 -0.0645  0.2002  0.1306
 5635POPC   C1A68405  22.248  23.691   4.248  0.0442  0.2637  0.1129
 5635POPC   D2A68406  22.607  23.454   4.467  0.1145  0.0626 -0.1602
 5635POPC   C3A68407  22.722  23.544   4.912  0.2998  0.1605  0.1688
 5635POPC   C4A68408  22.699  23.981   5.126  0.0377 -0.3645 -0.2515
 5635POPC   C1B68409  21.866  24.091   4.484  0.1505  0.0443  0.0133
 5635POPC   C2B68410  21.787  24.079   4.887 -0.1976 -0.0730  0.1832
 5635POPC   C3B68411  21.574  23.945   5.278 -0.1197  0.3465  0.3651
 5635POPC   C4B68412  21.486  23.820   5.683 -0.2659  0.0312 -0.0376
 5636POPC   NC368413  11.064   9.204   3.660  0.0297 -0.0077  0.0401
 5636POPC   PO468414  11.359   9.345   3.914  0.0233  0.0469  0.1355
 5636POPC   GL168415  11.430   9.272   4.268 -0.1581 -0.2632  0.3344
 5636POPC   GL268416  11.591   9.023   4.209 -0.4008 -0.1272  0.1368
 5636POPC   C1A68417  11.481   9.174   4.709  0.1071 -0.1635 -0.0832
 5636POPC   D2A68418  11.430   9.221   5.143  0.2650  0.1126 -0.1581
 5636POPC   C3A68419  11.594   9.119   5.524  0.1561 -0.2126  0.0984
 5636POPC   C4A68420  11.780   9.394   5.835 -0.1643  0.2471 -0.0763
 5636POPC   C1B68421  11.999   9.210   4.384  0.3778  0.1499  0.0498
 5636POPC   C2B68422  12.324   9.428   4.570  0.0487  0.1579  0.0330
 5636POPC   C3B68423  12.585   9.583   4.915  0.3519 -0.0282 -0.0809
 5636POPC   C4B68424  12.944   9.833   4.923 -0.2126  0.0736  0.3106
 5637POPC   NC368425   2.165  27.331   4.177  0.0680  0.0942 -0.0122
 5637POPC   PO468426   2.413  27.494   3.879 -0.0945  0.1994  0.0787
 5637POPC   GL168427   2.543  27.752   4.140 -0.3662 -0.0850 -0.0920
 5637POPC   GL268428   2.696  28.007   4.105 -0.1071 -0.0394 -0.1582
 5637POPC   C1A68429   2.362  27.602   4.528  0.1283 -0.2783  0.1758
 5637POPC   D2A68430   2.276  27.787   4.886  0.1573  0.0103 -0.1296
 5637POPC   C3A68431   2.569  27.830   5.209 -0.1665 -0.1257  0.0116
 5637POPC   C4A68432   2.850  27.698   5.565  0.2028  0.0226  0.0413
 5637POPC   C1B68433   2.662  28.081   4.516 -0.1515  0.1852  0.1340
 5637POPC   C2B68434   2.474  28.268   4.869 -0.0707  0.1193 -0.1613
 5637POPC   C3B68435   2.454  28.313   5.306  0.1805  0.0640 -0.0505
 5637POPC   C4B68436   2.439  28.046   5.666 -0.0245  0.1337  0.0165
 5638POPC   NC368437  29.459   8.054   3.482  0.2239  0.3036  0.1647
 5638POPC   PO468438  29.183   7.849   3.675  0.2106  0.2176  0.1672
 5638POPC   GL168439  29.009   7.736   4.066 -0.1650  0.2810  0.1770
 5638POPC   GL268440  29.164   7.991   4.130 -0.1484  0.1445  0.0165
 5638POPC   C1A68441  29.262   7.458   4.350  0.0784 -0.2306  0.0157
 5638POPC   D2A68442  29.350   7.030   4.240 -0.0255  0.2410 -0.2136
 5638POPC   C3A68443  29.416   6.823   4.678 -0.1428 -0.1521  0.1005
 5638POPC   C4A68444  29.388   6.620   5.105  0.0045 -0.0056 -0.2035
 5638POPC   C1B68445  29.200   7.895   4.576  0.1543  0.0597 -0.1396
 5638POPC   C2B68446  29.395   7.853   4.975 -0.0521  0.2638  0.1226
 5638POPC   C3B68447  29.722   7.575   5.159 -0.0181 -0.0283  0.1461
 5638POPC   C4B68448  29.960   7.646   5.500  0.2339  0.0784  0.2270
 5639POPC   NC368449  29.665  13.646   3.934 -0.1062  0.0918  0.1487
 5639POPC   PO468450  29.464  13.920   4.101  0.2830  0.1702 -0.0643
 5639POPC   GL168451  29.289  13.766   4.404  0.0123  0.2284 -0.0704
 5639POPC   GL268452  29.104  13.594   4.293 -0.0695 -0.0730 -0.0990
 5639POPC   C1A68453  29.202  13.688   4.825  0.1940 -0.3101 -0.2394
 5639POPC   D2A68454  29.087  13.715   5.283  0.0947  0.3453  0.1382
 5639POPC   C3A68455  28.724  13.976   5.453 -0.0037  0.1323 -0.3133
 5639POPC   C4A68456  28.236  14.017   5.483  0.1973 -0.1029 -0.2349
 5639POPC   C1B68457  28.740  13.584   4.588  0.0786 -0.0534 -0.2317
 5639POPC   C2B68458  28.638  13.598   5.015  0.0791 -0.0160 -0.0524
 5639POPC   C3B68459  28.518  13.503   5.458 -0.1509 -0.3693 -0.2076
 5639POPC   C4B68460  28.079  13.600   5.705 -0.1598 -0.1172 -0.1732
 5640POPC   NC368461  19.545  12.204   3.841 -0.1276  0.1234  0.0823
 5640POPC   PO468462  19.334  11.871   3.832  0.3088  0.2770  0.0472
 5640POPC   GL168463  19.271  12.096   4.226 -0.2566 -0.2358 -0.0762
 5640POPC   GL268464  18.954  12.038   4.195 -0.4100 -0.2351  0.0124
 5640POPC   C1A68465  19.215  12.093   4.678 -0.0439  0.1529  0.2154
 5640POPC   D2A68466  19.241  11.830   5.071  0.2459 -0.1221 -0.0012
 5640POPC   C3A68467  19.545  12.044   5.360  0.2306  0.2210 -0.0288
 5640POPC   C4A68468  19.471  12.178   5.793  0.2907  0.0051  0.3073
 5640POPC   C1B68469  18.703  12.192   4.551  0.0604 -0.0505 -0.2818
 5640POPC   C2B68470  18.737  12.225   5.021 -0.3671 -0.1339  0.0424
 5640POPC   C3B68471  18.464  12.423   5.298 -0.2596 -0.0734 -0.0141
 5640POPC   C4B68472  18.408  12.483   5.750 -0.0223 -0.1524  0.2019
 5641POPC   NC368473  30.884  26.763   3.116  0.3549 -0.1389  0.0982
 5641POPC   PO468474  30.653  26.555   3.376 -0.0755 -0.0807 -0.4796
 5641POPC   GL168475  30.822  26.469   3.700 -0.0445  0.0146  0.1556
 5641POPC   GL268476  30.720  26.428   4.018  0.1090 -0.2188 -0.0537
 5641POPC   C1A68477  31.184  26.349   3.937 -0.1332 -0.1682  0.0504
 5641POPC   D2A68478  31.587  26.172   4.010  0.3041 -0.1843  0.2727
 5641POPC   C3A68479  31.893  26.037   3.729  0.1254  0.1237 -0.0459
 5641POPC   C4A68480  32.228  26.233   3.426  0.0872 -0.0307 -0.0813
 5641POPC   C1B68481  30.715  26.567   4.448 -0.1372 -0.2555 -0.0124
 5641POPC   C2B68482  30.797  26.544   4.898  0.0885 -0.0712 -0.0158
 5641POPC   C3B68483  30.998  26.616   5.296 -0.1945  0.2845 -0.1264
 5641POPC   C4B68484  31.383  26.781   5.440 -0.0460  0.0547 -0.0376
 5642POPC   NC368485  17.234  12.649   3.942  0.1451 -0.0040 -0.1921
 5642POPC   PO468486  17.437  12.360   3.774  0.0941  0.0771 -0.2297
 5642POPC   GL168487  17.414  12.250   4.195  0.2186  0.1383 -0.1345
 5642POPC   GL268488  17.129  12.237   4.251  0.0990  0.0445 -0.1469
 5642POPC   C1A68489  17.369  12.497   4.579 -0.0156 -0.3247  0.1718
 5642POPC   D2A68490  17.627  12.376   4.930  0.0414  0.2184  0.0518
 5642POPC   C3A68491  17.357  12.140   5.305  0.1890 -0.1054 -0.3167
 5642POPC   C4A68492  17.149  12.180   5.719  0.0813 -0.0059 -0.0373
 5642POPC   C1B68493  16.912  12.627   4.345  0.1917 -0.2035  0.0685
 5642POPC   C2B68494  16.545  12.832   4.539 -0.0078  0.0933  0.0249
 5642POPC   C3B68495  16.295  12.814   4.933 -0.2964  0.2086  0.0353
 5642POPC   C4B68496  15.882  12.858   5.150  0.1317  0.1137  0.1434
 5643POPC   NC368497  23.885  17.082   4.117  0.1249  0.0135  0.0421
 5643POPC   PO468498  23.735  17.361   4.369 -0.2237  0.1970 -0.0168
 5643POPC   GL168499  23.643  17.292   4.708 -0.0156  0.1546  0.3737
 5643POPC   GL268500  23.322  17.343   4.748  0.0693  0.1798 -0.0486
 5643POPC   C1A68501  23.481  16.976   5.043 -0.0728  0.1430 -0.0444
 5643POPC   D2A68502  23.739  16.620   5.199 -0.0540  0.0248 -0.2082
 5643POPC   C3A68503  23.831  16.612   5.670  0.0388  0.0010  0.4775
 5643POPC   C4A68504  23.592  16.709   6.053 -0.4158  0.0295  0.0101
 5643POPC   C1B68505  23.474  17.539   5.132 -0.0754  0.0802  0.1058
 5643POPC   C2B68506  23.586  17.635   5.552 -0.2974 -0.2888 -0.0142
 5643POPC   C3B68507  23.406  17.851   5.924  0.1041 -0.1444 -0.0753
 5643POPC   C4B68508  23.131  18.065   6.236  0.0250 -0.1612 -0.1134
 5644POPC   NC368509  17.283   0.968   4.197 -0.1746  0.1747 -0.0034
 5644POPC   PO468510  17.242   1.298   4.001 -0.1085 -0.1067  0.1150
 5644POPC   GL168511  17.393   1.362   4.315 -0.1360 -0.0314 -0.0280
 5644POPC   GL268512  17.586   1.586   4.343 -0.3752 -0.0406 -0.1072
 5644POPC   C1A68513  17.484   1.141   4.671 -0.1569 -0.0312  0.2770
 5644POPC   D2A68514  17.695   0.993   5.002 -0.1017  0.0167  0.1877
 5644POPC   C3A68515  17.868   0.689   5.301  0.0706 -0.1571  0.3152
 5644POPC   C4A68516  17.876   0.348   5.622 -0.1438 -0.2497  0.1492
 5644POPC   C1B68517  17.349   1.673   4.733  0.3093  0.0293  0.0888
 5644POPC   C2B68518  17.163   1.934   5.066 -0.1288 -0.0362 -0.0829
 5644POPC   C3B68519  17.147   2.098   5.525 -0.1296  0.0066 -0.2167
 5644POPC   C4B68520  17.157   2.104   5.991 -0.0767  0.0323 -0.0072
 5645POPC   NC368521  17.039  24.732   3.951 -0.0625  0.1819 -0.0340
 5645POPC   PO468522  17.048  24.363   3.876  0.1833  0.0120 -0.0412
 5645POPC   GL168523  16.873  24.340   4.186 -0.0045 -0.1434  0.2274
 5645POPC   GL268524  16.754  24.069   4.218 -0.1733  0.1189 -0.1443
 5645POPC   C1A68525  16.854  24.728   4.432 -0.0339  0.2662 -0.1489
 5645POPC   D2A68526  16.644  25.004   4.737  0.0162  0.0941 -0.1677
 5645POPC   C3A68527  16.717  24.873   5.163  0.0740 -0.0402 -0.2886
 5645POPC   C4A68528  16.790  24.460   5.404 -0.0962  0.1128 -0.0206
 5645POPC   C1B68529  16.787  23.999   4.666  0.1368  0.0045  0.2221
 5645POPC   C2B68530  16.794  23.919   5.135 -0.0293  0.0864 -0.1626
 5645POPC   C3B68531  16.971  23.904   5.533 -0.1844 -0.2896 -0.2512
 5645POPC   C4B68532  17.161  23.625   5.838  0.1559  0.0859  0.0504
 5646POPC   NC368533  16.572  17.550   3.887  0.0398  0.1340  0.0264
 5646POPC   PO468534  16.258  17.807   3.818 -0.2511 -0.0615  0.1235
 5646POPC   GL168535  16.255  17.689   4.204  0.0344 -0.2460  0.0629
 5646POPC   GL268536  16.437  17.487   4.349  0.2531  0.2929  0.1817
 5646POPC   C1A68537  16.145  17.941   4.589  0.1242  0.3108 -0.1208
 5646POPC   D2A68538  16.158  17.923   5.021 -0.1008 -0.1363 -0.1725
 5646POPC   C3A68539  16.394  17.736   5.370  0.0478 -0.0047  0.2762
 5646POPC   C4A68540  16.398  17.767   5.823 -0.1136  0.0318 -0.2190
 5646POPC   C1B68541  16.564  17.666   4.765 -0.0908  0.3412 -0.0604
 5646POPC   C2B68542  16.830  17.756   5.115  0.1494 -0.1667  0.1502
 5646POPC   C3B68543  16.938  17.985   5.527 -0.0458 -0.2306  0.0363
 5646POPC   C4B68544  17.043  18.351   5.817  0.1115  0.3617  0.1187
 5647POPC   NC368545  10.953   7.265   3.807 -0.3537 -0.3908 -0.2346
 5647POPC   PO468546  10.615   7.365   3.629  0.1101  0.3341 -0.0963
 5647POPC   GL168547  10.604   7.246   4.106  0.0517  0.1833  0.2205
 5647POPC   GL268548  10.587   7.490   4.165  0.0599  0.0281 -0.1675
 5647POPC   C1A68549  10.984   7.192   4.326 -0.0672  0.1626 -0.0972
 5647POPC   D2A68550  11.167   7.231   4.698  0.0258  0.0586 -0.0430
 5647POPC   C3A68551  11.018   7.160   5.108 -0.1070  0.2191 -0.2439
 5647POPC   C4A68552  11.121   7.331   5.540  0.3266 -0.2536  0.2323
 5647POPC   C1B68553  10.771   7.598   4.578  0.1438 -0.2148 -0.0171
 5647POPC   C2B68554  11.098   7.740   4.908 -0.2136 -0.0612  0.3637
 5647POPC   C3B68555  11.401   7.568   5.171 -0.1036 -0.1630 -0.1207
 5647POPC   C4B68556  11.583   7.251   5.361 -0.0622  0.3085 -0.2867
 5648POPC   NC368557  15.342   0.932   3.288  0.1128 -0.0344  0.1826
 5648POPC   PO468558  15.647   0.981   3.528 -0.0348  0.2767  0.0833
 5648POPC   GL168559  15.788   1.055   3.894 -0.0794  0.1280 -0.2279
 5648POPC   GL268560  15.528   0.967   4.030  0.2435 -0.0893 -0.1898
 5648POPC   C1A68561  15.734   1.313   4.340  0.1457  0.3808  0.2408
 5648POPC   D2A68562  15.826   1.309   4.796  0.0585 -0.1481  0.0485
 5648POPC   C3A68563  15.899   0.920   5.127  0.1316 -0.0822  0.3028
 5648POPC   C4A68564  16.011   0.646   5.479 -0.1008 -0.2212  0.0799
 5648POPC   C1B68565  15.415   0.607   4.215 -0.2101 -0.2749  0.0614
 5648POPC   C2B68566  15.564   0.365   4.563 -0.0904 -0.2825  0.1231
 5648POPC   C3B68567  15.708   0.072   4.878  0.1488  0.2067  0.1663
 5648POPC   C4B68568  15.885  -0.284   5.165  0.1205 -0.1058  0.0275
 5649POPC   NC368569  26.714  10.820   3.734  0.0104 -0.1846  0.1041
 5649POPC   PO468570  26.830  10.452   3.740 -0.4934 -0.2608 -0.0996
 5649POPC   GL168571  26.716  10.633   4.162 -0.1277  0.2032  0.1771
 5649POPC   GL268572  26.980  10.617   4.241 -0.0431 -0.0493 -0.1370
 5649POPC   C1A68573  26.351  10.919   4.148 -0.0517 -0.0756 -0.0458
 5649POPC   D2A68574  26.246  11.304   4.388 -0.2033  0.0564 -0.0413
 5649POPC   C3A68575  26.224  11.288   4.850 -0.3311  0.3486 -0.0395
 5649POPC   C4A68576  26.373  11.397   5.290 -0.2495 -0.1525  0.0854
 5649POPC   C1B68577  26.803  10.767   4.655 -0.0862  0.0118  0.2208
 5649POPC   C2B68578  26.714  11.087   4.989 -0.0584  0.2036 -0.3456
 5649POPC   C3B68579  26.953  11.224   5.340  0.0678 -0.1090 -0.1244
 5649POPC   C4B68580  27.067  11.416   5.712  0.2563  0.0007 -0.0595
 5650POPC   NC368581   3.739  20.843   3.848  0.4463  0.1927  0.1358
 5650POPC   PO468582   3.573  20.554   3.631 -0.1657  0.4083 -0.1984
 5650POPC   GL168583   3.323  20.555   4.074  0.0975 -0.1133  0.1030
 5650POPC   GL268584   3.347  20.797   4.205 -0.1152  0.0670 -0.1435
 5650POPC   C1A68585   3.010  20.436   4.358 -0.0498  0.1199  0.4875
 5650POPC   D2A68586   2.685  20.757   4.486  0.3171  0.0373 -0.0934
 5650POPC   C3A68587   2.542  20.620   4.938 -0.0693 -0.1853 -0.1516
 5650POPC   C4A68588   2.587  20.487   5.433  0.0890 -0.1604 -0.0123
 5650POPC   C1B68589   3.537  20.612   4.597  0.0650 -0.3817  0.2629
 5650POPC   C2B68590   3.932  20.538   4.918  0.0864 -0.1861  0.0531
 5650POPC   C3B68591   4.036  20.487   5.349 -0.3677 -0.0856  0.1487
 5650POPC   C4B68592   4.044  20.363   5.822 -0.4057  0.2472  0.2462
 5651POPC   NC368593  15.480   1.414   3.738 -0.2956  0.1846  0.0464
 5651POPC   PO468594  15.152   1.253   3.759 -0.2906  0.0560  0.2590
 5651POPC   GL168595  15.100   1.193   4.118 -0.0444  0.0406  0.0568
 5651POPC   GL268596  15.222   1.453   4.294 -0.1727  0.0849  0.2769
 5651POPC   C1A68597  15.266   1.008   4.511  0.2049 -0.0454 -0.0312
 5651POPC   D2A68598  15.164   0.658   4.783 -0.0513  0.0235 -0.0255
 5651POPC   C3A68599  15.052   0.705   5.237  0.0574  0.2566 -0.1290
 5651POPC   C4A68600  15.102   0.384   5.592  0.2336  0.0700 -0.1331
 5651POPC   C1B68601  15.244   1.387   4.746  0.1183  0.1400  0.1207
 5651POPC   C2B68602  14.975   1.315   5.125  0.2192 -0.2428 -0.1610
 5651POPC   C3B68603  14.800   1.516   5.496 -0.0652  0.0529  0.2254
 5651POPC   C4B68604  14.675   1.422   5.927  0.0547 -0.4321  0.2854
 5652POPC   NC368605   9.186  16.147   3.724  0.0131 -0.2885  0.2134
 5652POPC   PO468606   9.027  16.572   3.614 -0.0984  0.5459  0.0978
 5652POPC   GL168607   9.260  16.671   3.946  0.0500 -0.0829 -0.0360
 5652POPC   GL268608   9.115  16.875   4.154 -0.0312  0.0078 -0.2774
 5652POPC   C1A68609   9.588  16.746   4.314 -0.2031  0.1925  0.1567
 5652POPC   D2A68610   9.571  16.856   4.775  0.3363 -0.2109 -0.2565
 5652POPC   C3A68611   9.867  17.158   4.992  0.2335  0.1187  0.1029
 5652POPC   C4A68612   9.974  17.311   5.422  0.4472  0.1221  0.0924
 5652POPC   C1B68613   9.225  17.085   4.525  0.1038 -0.0514  0.0047
 5652POPC   C2B68614   9.246  17.193   4.973  0.2104  0.2319  0.3594
 5652POPC   C3B68615   9.414  17.403   5.373 -0.0608 -0.0062 -0.1998
 5652POPC   C4B68616   9.663  17.771   5.373 -0.3144  0.0159 -0.0103
 5653POPC   NC368617   0.164  15.582   3.603 -0.1080 -0.0386  0.2792
 5653POPC   PO468618   0.376  15.932   3.649 -0.0839 -0.1025 -0.2177
 5653POPC   GL168619   0.366  16.044   4.022  0.2392  0.0713 -0.1587
 5653POPC   GL268620   0.647  15.946   4.046 -0.1488 -0.2534  0.1583
 5653POPC   C1A68621  -0.048  16.087   4.282  0.2887 -0.3346 -0.1256
 5653POPC   D2A68622  -0.461  16.033   4.489  0.1489 -0.4803  0.2952
 5653POPC   C3A68623  -0.676  15.915   4.867 -0.2235  0.1373 -0.1284
 5653POPC   C4A68624  -0.840  15.867   5.294  0.0108 -0.0229 -0.0488
 5653POPC   C1B68625   0.841  16.005   4.458 -0.2287  0.4332  0.1663
 5653POPC   C2B68626   1.000  16.386   4.736  0.4086  0.4134  0.0184
 5653POPC   C3B68627   1.463  16.457   4.942  0.1317  0.1261 -0.3331
 5653POPC   C4B68628   1.888  16.359   5.248  0.1939  0.0460  0.0717
 5654POPC   NC368629  15.935  13.667   3.988 -0.1328  0.2283 -0.1591
 5654POPC   PO468630  15.671  13.502   3.739  0.0083 -0.1694 -0.3387
 5654POPC   GL168631  15.471  13.614   4.026 -0.0962  0.0990  0.1514
 5654POPC   GL268632  15.241  13.455   4.171  0.1037  0.1743  0.2486
 5654POPC   C1A68633  15.598  13.857   4.369  0.2362 -0.3249  0.1314
 5654POPC   D2A68634  15.533  13.983   4.854  0.0925 -0.1136  0.0391
 5654POPC   C3A68635  15.754  14.286   5.083 -0.2053 -0.0613 -0.2699
 5654POPC   C4A68636  15.737  14.520   5.509  0.2323 -0.3261  0.1212
 5654POPC   C1B68637  15.262  13.471   4.628  0.0818  0.0175  0.0915
 5654POPC   C2B68638  15.164  13.589   5.076  0.1415 -0.1111  0.1390
 5654POPC   C3B68639  14.862  13.702   5.359  0.1530 -0.1664 -0.1308
 5654POPC   C4B68640  14.709  14.060   5.546 -0.1336  0.2592 -0.0547
 5655POPC   NC368641  13.668   8.731   3.772 -0.2112  0.0205 -0.0397
 5655POPC   PO468642  13.359   8.467   3.729  0.1491  0.0008 -0.0398
 5655POPC   GL168643  13.385   8.636   4.088 -0.1511  0.2560  0.0778
 5655POPC   GL268644  13.247   8.889   4.005  0.1631  0.1878 -0.0633
 5655POPC   C1A68645  13.339   8.602   4.549  0.1284  0.0619 -0.2168
 5655POPC   D2A68646  13.266   8.503   4.947 -0.2454 -0.1905 -0.0025
 5655POPC   C3A68647  13.173   8.766   5.315 -0.3880  0.0855  0.2393
 5655POPC   C4A68648  13.411   8.828   5.678  0.0538 -0.1131  0.0939
 5655POPC   C1B68649  13.332   9.115   4.385  0.0330 -0.1860  0.0349
 5655POPC   C2B68650  13.319   8.993   4.901  0.0920 -0.2669 -0.1197
 5655POPC   C3B68651  13.398   9.251   5.282  0.0566  0.1580  0.1454
 5655POPC   C4B68652  13.372   9.528   5.684 -0.1356  0.0267  0.2945
 5656POPC   NC368653  15.429  14.451   3.152 -0.1176 -0.1714 -0.3079
 5656POPC   PO468654  15.274  14.216   3.417  0.3016  0.1258  0.1111
 5656POPC   GL168655  15.167  14.180   3.816 -0.2303  0.1761  0.0629
 5656POPC   GL268656  15.320  14.073   4.030 -0.0032  0.0563  0.0050
 5656POPC   C1A68657  14.788  14.232   4.121 -0.2001  0.1260  0.0157
 5656POPC   D2A68658  14.649  14.189   4.572 -0.2234 -0.1338  0.3140
 5656POPC   C3A68659  14.533  14.210   5.034  0.1999 -0.1699 -0.5476
 5656POPC   C4A68660  14.423  14.497   5.389  0.0324 -0.2024 -0.1492
 5656POPC   C1B68661  15.137  14.086   4.459 -0.1109  0.3600 -0.1315
 5656POPC   C2B68662  14.998  14.091   4.928 -0.2900  0.1729  0.0765
 5656POPC   C3B68663  15.285  14.052   5.287  0.1726  0.1481  0.0294
 5656POPC   C4B68664  15.736  14.012   5.488  0.0401 -0.2030 -0.0055
 5657POPC   NC368665   9.089   2.321   3.572 -0.3112 -0.0545  0.0737
 5657POPC   PO468666   9.193   2.689   3.450  0.1740  0.0552 -0.1250
 5657POPC   GL168667   9.387   2.856   3.730  0.2132  0.3795 -0.2554
 5657POPC   GL268668   9.325   2.636   3.922 -0.4111 -0.0656 -0.4198
 5657POPC   C1A68669   9.412   3.053   4.154  0.0393 -0.1097 -0.1396
 5657POPC   D2A68670   9.372   3.239   4.640  0.2156  0.1478 -0.1703
 5657POPC   C3A68671   9.355   3.092   5.111 -0.0037 -0.1758  0.1826
 5657POPC   C4A68672   9.488   2.999   5.497  0.3875 -0.2266 -0.0446
 5657POPC   C1B68673   9.190   2.603   4.347 -0.0459 -0.1409 -0.0078
 5657POPC   C2B68674   9.112   2.698   4.811  0.0380  0.2684  0.0498
 5657POPC   C3B68675   9.038   2.639   5.255  0.1881  0.1592 -0.0955
 5657POPC   C4B68676   9.179   2.487   5.700  0.1543  0.2048 -0.1545
 5658POPC   NC368677  10.272   3.736   3.256  0.0266 -0.1069  0.2226
 5658POPC   PO468678   9.971   3.494   3.137  0.2200 -0.2871 -0.1365
 5658POPC   GL168679   9.823   3.363   3.501  0.0403 -0.1404  0.1551
 5658POPC   GL268680  10.051   3.299   3.679 -0.0413  0.0867  0.4044
 5658POPC   C1A68681   9.692   3.458   3.977 -0.3660 -0.1885  0.0475
 5658POPC   D2A68682   9.602   3.713   4.349  0.1083 -0.0824  0.2103
 5658POPC   C3A68683   9.909   4.117   4.271  0.0426  0.1609  0.0433
 5658POPC   C4A68684   9.893   4.472   3.981 -0.1737 -0.1409  0.3066
 5658POPC   C1B68685   9.908   3.061   4.078  0.1324  0.0352  0.1265
 5658POPC   C2B68686   9.924   3.155   4.540  0.1845 -0.2383  0.1310
 5658POPC   C3B68687   9.835   3.475   4.880 -0.0496 -0.4220  0.2574
 5658POPC   C4B68688   9.691   3.922   4.809 -0.2369  0.3062  0.0254
 5659POPC   NC368689  29.275  12.032   3.720  0.1564 -0.1167 -0.0414
 5659POPC   PO468690  29.517  11.707   3.695 -0.3708  0.2451  0.2728
 5659POPC   GL168691  29.394  11.601   4.039  0.1767 -0.0075  0.0209
 5659POPC   GL268692  29.158  11.432   4.007 -0.2492 -0.0245 -0.2364
 5659POPC   C1A68693  29.483  11.302   4.384 -0.1627 -0.3435 -0.0622
 5659POPC   D2A68694  29.532  11.160   4.856  0.0036  0.1592 -0.1367
 5659POPC   C3A68695  29.452  11.475   5.189  0.1287 -0.0853 -0.2268
 5659POPC   C4A68696  29.466  11.691   5.587  0.2258  0.2138  0.1978
 5659POPC   C1B68697  28.941  11.502   4.389 -0.3668  0.0528 -0.4347
 5659POPC   C2B68698  28.614  11.530   4.738 -0.1279  0.0109 -0.2725
 5659POPC   C3B68699  28.376  11.487   5.157  0.1024 -0.1277  0.0881
 5659POPC   C4B68700  27.986  11.750   5.293 -0.3172 -0.0168  0.2678
 5660POPC   NC368701   8.566  14.786   3.806  0.2585  0.1391 -0.2127
 5660POPC   PO468702   8.941  14.941   3.769 -0.1138  0.0957  0.1230
 5660POPC   GL168703   8.971  14.999   4.149 -0.0880 -0.3137  0.3142
 5660POPC   GL268704   9.211  14.980   4.249  0.1995 -0.2390 -0.0996
 5660POPC   C1A68705   8.882  15.343   4.454  0.1514  0.0044  0.4182
 5660POPC   D2A68706   8.877  15.467   4.876  0.0377 -0.0192 -0.0084
 5660POPC   C3A68707   8.817  15.193   5.212  0.0133  0.2612  0.1425
 5660POPC   C4A68708   8.384  15.061   5.451  0.0257  0.2221  0.1219
 5660POPC   C1B68709   9.158  15.000   4.711 -0.0618 -0.0739 -0.2294
 5660POPC   C2B68710   9.170  14.703   5.051  0.0348 -0.2462 -0.0145
 5660POPC   C3B68711   8.995  14.305   5.307 -0.0503 -0.0365  0.0265
 5660POPC   C4B68712   8.937  14.020   5.634 -0.2996 -0.1689 -0.0054
 5661POPC   NC368713   3.281  25.467   3.584  0.1717 -0.1291  0.0729
 5661POPC   PO468714   2.952  25.688   3.606 -0.3843  0.2002  0.2766
 5661POPC   GL168715   3.180  25.580   4.010 -0.0207 -0.1138  0.0804
 5661POPC   GL268716   3.175  25.348   4.074  0.2387 -0.0307  0.1533
 5661POPC   C1A68717   3.053  25.672   4.436  0.0894  0.1135  0.1903
 5661POPC   D2A68718   2.784  25.854   4.739  0.1323 -0.1268 -0.2054
 5661POPC   C3A68719   2.583  25.805   5.137 -0.1294 -0.0044 -0.2815
 5661POPC   C4A68720   2.414  25.863   5.574 -0.1759 -0.0200  0.1382
 5661POPC   C1B68721   3.184  25.235   4.585 -0.0606  0.1687  0.0527
 5661POPC   C2B68722   3.073  25.446   4.983 -0.1182  0.0819  0.0940
 5661POPC   C3B68723   3.095  25.297   5.425 -0.0960  0.1828  0.0258
 5661POPC   C4B68724   2.818  24.927   5.618 -0.2200  0.1840  0.0709
 5662POPC   NC368725  14.437  13.173   3.596  0.3581  0.1281 -0.0299
 5662POPC   PO468726  14.811  13.257   3.380 -0.0788 -0.2025  0.0959
 5662POPC   GL168727  14.737  13.467   3.715 -0.3024  0.1289  0.1807
 5662POPC   GL268728  14.816  13.253   3.903  0.1748 -0.0772  0.0400
 5662POPC   C1A68729  14.839  13.707   4.104  0.0634  0.1860  0.3913
 5662POPC   D2A68730  14.836  13.685   4.563 -0.0564 -0.0116 -0.2431
 5662POPC   C3A68731  14.586  13.668   4.995  0.3409 -0.1312  0.3135
 5662POPC   C4A68732  14.321  13.762   5.374 -0.0812 -0.1925  0.1190
 5662POPC   C1B68733  14.820  13.237   4.348 -0.3662  0.0410 -0.0585
 5662POPC   C2B68734  14.805  13.242   4.795  0.0654  0.3652 -0.0562
 5662POPC   C3B68735  14.854  13.170   5.271  0.0435  0.0245  0.0504
 5662POPC   C4B68736  14.810  12.916   5.665  0.0359 -0.2164  0.0170
 5663POPC   NC368737   2.031   6.061   3.525  0.0671  0.1099 -0.1644
 5663POPC   PO468738   2.300   6.347   3.613  0.0725  0.2257  0.4685
 5663POPC   GL168739   2.090   6.306   4.019  0.1363  0.3095  0.1534
 5663POPC   GL268740   2.257   6.071   4.052 -0.2013 -0.0493 -0.0970
 5663POPC   C1A68741   2.240   6.319   4.458 -0.0862  0.1247  0.2477
 5663POPC   D2A68742   2.217   6.601   4.775 -0.0872  0.0326  0.0809
 5663POPC   C3A68743   2.345   6.568   5.207  0.0720  0.1200 -0.0866
 5663POPC   C4A68744   2.051   6.707   5.514  0.1352 -0.1012  0.2255
 5663POPC   C1B68745   1.915   5.945   4.303 -0.2856  0.3391 -0.0131
 5663POPC   C2B68746   1.848   6.093   4.733 -0.2419 -0.0267  0.0191
 5663POPC   C3B68747   1.607   6.179   5.085  0.2154 -0.3075 -0.1223
 5663POPC   C4B68748   1.338   5.874   5.352 -0.0031  0.0472 -0.2219
 5664POPC   NC368749   4.975  25.932   3.920  0.0187 -0.2533  0.1540
 5664POPC   PO468750   5.357  26.004   3.822  0.2015  0.0040  0.1280
 5664POPC   GL168751   5.524  25.898   4.174 -0.2180 -0.1162  0.0593
 5664POPC   GL268752   5.353  25.695   4.246  0.2372 -0.0331  0.1389
 5664POPC   C1A68753   5.538  25.891   4.643  0.1330 -0.0893  0.0354
 5664POPC   D2A68754   5.649  26.018   5.096  0.1827 -0.0088 -0.0083
 5664POPC   C3A68755   5.971  26.122   5.385 -0.1707  0.1569  0.0069
 5664POPC   C4A68756   6.379  26.252   5.496 -0.0443 -0.0440  0.0017
 5664POPC   C1B68757   5.127  25.590   4.671 -0.1866  0.3258 -0.2270
 5664POPC   C2B68758   5.332  25.527   5.065 -0.1615  0.1683 -0.3072
 5664POPC   C3B68759   5.495  25.655   5.491 -0.2255  0.3792  0.0728
 5664POPC   C4B68760   5.369  26.082   5.615 -0.2254 -0.0716 -0.2080
 5665POPC   NC368761  29.349  19.051   3.281  0.2728 -0.0433  0.0348
 5665POPC   PO468762  29.673  18.848   3.380 -0.0732 -0.2153  0.1115
 5665POPC   GL168763  29.641  18.711   3.748  0.1398 -0.2758  0.1399
 5665POPC   GL268764  29.295  18.788   3.850 -0.0672  0.0403 -0.2306
 5665POPC   C1A68765  29.649  18.424   4.114 -0.0166  0.2025 -0.2365
 5665POPC   D2A68766  29.626  18.240   4.579  0.0650  0.0269 -0.3668
 5665POPC   C3A68767  29.645  18.176   4.997  0.1368 -0.1901 -0.1668
 5665POPC   C4A68768  29.903  18.367   5.320 -0.0604 -0.0419  0.0424
 5665POPC   C1B68769  28.954  18.723   4.088  0.3061 -0.1154  0.2719
 5665POPC   C2B68770  28.591  18.518   4.287 -0.0748  0.1761  0.0387
 5665POPC   C3B68771  28.546  18.488   4.762 -0.3050  0.2826 -0.0745
 5665POPC   C4B68772  28.564  18.207   5.076 -0.1520  0.2176 -0.1855
 5666POPC   NC368773   8.900  28.566   3.340 -0.3624 -0.2166  0.0395
 5666POPC   PO468774   9.254  28.560   3.557 -0.0691  0.3172  0.0278
 5666POPC   GL168775   9.210  28.350   3.921  0.1802  0.3430  0.1516
 5666POPC   GL268776   9.555  28.343   3.888  0.1616 -0.2109  0.0078
 5666POPC   C1A68777   9.044  28.258   4.338 -0.0706  0.0747  0.3133
 5666POPC   D2A68778   8.929  28.474   4.663  0.0170 -0.1768 -0.1291
 5666POPC   C3A68779   8.477  28.709   4.788 -0.1740 -0.3607 -0.1765
 5666POPC   C4A68780   8.035  28.793   4.690  0.1414 -0.1789 -0.2246
 5666POPC   C1B68781   9.437  28.508   4.292 -0.1134 -0.3277 -0.2140
 5666POPC   C2B68782   9.395  28.541   4.723 -0.0630  0.0643 -0.1669
 5666POPC   C3B68783   9.271  28.421   5.150  0.0722 -0.0671  0.0696
 5666POPC   C4B68784   9.525  28.303   5.509 -0.2634 -0.3176 -0.0155
 5667POPC   NC368785  29.164  25.842   3.755  0.0318  0.2491  0.1882
 5667POPC   PO468786  29.513  26.059   3.799  0.0194  0.1614 -0.2322
 5667POPC   GL168787  29.306  26.212   4.120  0.1258 -0.1713 -0.1054
 5667POPC   GL268788  29.023  26.309   4.044 -0.3496 -0.0947 -0.1280
 5667POPC   C1A68789  29.340  26.166   4.559  0.2082  0.0461  0.1190
 5667POPC   D2A68790  29.459  26.223   5.003  0.2564  0.2851  0.1609
 5667POPC   C3A68791  29.673  25.901   5.327 -0.0595 -0.3160  0.0069
 5667POPC   C4A68792  29.554  25.564   5.594 -0.2042  0.3985 -0.1671
 5667POPC   C1B68793  28.658  26.333   4.334 -0.2344 -0.2426 -0.0812
 5667POPC   C2B68794  28.383  26.222   4.662 -0.0932 -0.0800 -0.0910
 5667POPC   C3B68795  28.363  26.166   5.096 -0.0903 -0.1647  0.0542
 5667POPC   C4B68796  28.110  26.257   5.443  0.2238 -0.1891  0.2690
 5668POPC   NC368797  14.659  28.260   3.627  0.0992  0.1886  0.0530
 5668POPC   PO468798  14.916  28.217   3.332 -0.2984 -0.0855  0.0151
 5668POPC   GL168799  15.085  28.145   3.624 -0.0716 -0.1511  0.3271
 5668POPC   GL268800  15.362  28.159   3.508 -0.1751  0.1263 -0.2727
 5668POPC   C1A68801  15.166  28.536   3.845  0.1195  0.2581 -0.0788
 5668POPC   D2A68802  15.430  28.626   4.186 -0.0888  0.0656 -0.2026
 5668POPC   C3A68803  15.596  28.381   4.598 -0.0654 -0.0598 -0.4211
 5668POPC   C4A68804  16.062  28.303   4.762  0.4336 -0.1527 -0.1138
 5668POPC   C1B68805  15.686  27.971   3.816 -0.1823  0.3566  0.1316
 5668POPC   C2B68806  16.079  27.828   3.995 -0.0052 -0.3647  0.2652
 5668POPC   C3B68807  16.362  27.498   4.198  0.0163  0.1179 -0.1213
 5668POPC   C4B68808  16.553  27.196   4.461 -0.0945  0.0414 -0.3473
 5669POPC   NC368809  24.244  28.947   3.708 -0.0179  0.2070  0.4268
 5669POPC   PO468810  24.547  28.843   3.950  0.1223 -0.1089 -0.2684
 5669POPC   GL168811  24.856  28.815   4.224  0.1332  0.2574  0.1109
 5669POPC   GL268812  24.814  28.514   4.267  0.1360  0.2894  0.1320
 5669POPC   C1A68813  25.279  28.866   4.375  0.3221 -0.1992 -0.0969
 5669POPC   D2A68814  25.588  28.891   4.673 -0.0930 -0.1725 -0.2348
 5669POPC   C3A68815  25.653  28.809   5.081 -0.1883 -0.1742 -0.0039
 5669POPC   C4A68816  25.716  28.759   5.540 -0.0143  0.0917 -0.2054
 5669POPC   C1B68817  24.689  28.702   4.668 -0.0104  0.3197  0.0027
 5669POPC   C2B68818  24.795  28.779   5.115  0.0082  0.0486 -0.0542
 5669POPC   C3B68819  24.485  28.847   5.466 -0.1400 -0.3039 -0.3365
 5669POPC   C4B68820  24.151  28.704   5.758  0.0081 -0.0195 -0.1254
 5670POPC   NC368821   5.385   5.798   3.416  0.0676  0.0741 -0.2168
 5670POPC   PO468822   5.112   5.895   3.634 -0.2266  0.0184 -0.0167
 5670POPC   GL168823   5.181   5.884   3.922  0.2775  0.1797  0.0280
 5670POPC   GL268824   5.059   5.680   4.088 -0.1970  0.1774 -0.2973
 5670POPC   C1A68825   5.432   6.035   4.258 -0.0432 -0.0726 -0.1783
 5670POPC   D2A68826   5.567   6.049   4.728 -0.0010 -0.0617 -0.2557
 5670POPC   C3A68827   5.552   6.131   5.168  0.3069  0.3082 -0.0296
 5670POPC   C4A68828   5.563   6.144   5.622  0.2417 -0.0781  0.0424
 5670POPC   C1B68829   5.102   5.810   4.545  0.1864  0.0635 -0.3224
 5670POPC   C2B68830   5.087   5.872   4.970 -0.0088  0.1447 -0.0476
 5670POPC   C3B68831   4.985   5.729   5.373  0.2820 -0.2765  0.1158
 5670POPC   C4B68832   5.066   5.692   5.764  0.0438  0.5059  0.1670
 5671POPC   NC368833  10.546  14.400   3.970  0.0605 -0.3479  0.2403
 5671POPC   PO468834  10.874  14.574   3.811  0.1447  0.0714  0.1586
 5671POPC   GL168835  11.084  14.407   4.144  0.2321 -0.0734  0.3073
 5671POPC   GL268836  11.238  14.187   4.029 -0.1567  0.0543 -0.2643
 5671POPC   C1A68837  10.803  14.517   4.520  0.0187 -0.1588 -0.4613
 5671POPC   D2A68838  10.378  14.414   4.629  0.0123 -0.0284  0.2336
 5671POPC   C3A68839  10.166  14.393   5.052  0.1774 -0.1770 -0.2571
 5671POPC   C4A68840  10.065  14.493   5.485 -0.1345 -0.0995  0.1539
 5671POPC   C1B68841  11.462  14.354   4.398  0.1760 -0.1967 -0.3762
 5671POPC   C2B68842  11.563  14.297   4.868  0.2199 -0.0628  0.0291
 5671POPC   C3B68843  11.746  14.205   5.279  0.0221  0.0312 -0.0892
 5671POPC   C4B68844  11.770  13.877   5.630  0.2061 -0.0355  0.1237
 5672POPC   NC368845   1.132  11.032   3.549  0.0162 -0.0730  0.3531
 5672POPC   PO468846   1.259  10.666   3.575 -0.1393 -0.0667 -0.2921
 5672POPC   GL168847   1.248  10.660   3.935  0.0344  0.3098 -0.1508
 5672POPC   GL268848   1.332  10.896   4.089  0.3949  0.4301 -0.2606
 5672POPC   C1A68849   1.186  10.383   4.281  0.0261 -0.0070 -0.3958
 5672POPC   D2A68850   1.240   9.974   4.546 -0.0903 -0.0402  0.1831
 5672POPC   C3A68851   1.283   9.859   5.035  0.0247  0.0152 -0.1242
 5672POPC   C4A68852   1.396   9.598   5.451 -0.0844 -0.2239  0.0504
 5672POPC   C1B68853   1.256  11.016   4.481 -0.0880  0.0301  0.0734
 5672POPC   C2B68854   1.381  11.056   4.901 -0.1172  0.1057 -0.3119
 5672POPC   C3B68855   1.479  10.855   5.333 -0.1665  0.1125  0.0819
 5672POPC   C4B68856   1.734  10.723   5.664  0.2656 -0.2085 -0.1809
 5673POPC   NC368857  19.827  10.588   3.795  0.0136  0.0820  0.1743
 5673POPC   PO468858  19.431  10.658   3.819  0.1340  0.1048  0.0419
 5673POPC   GL168859  19.344  10.709   4.168  0.2697 -0.1879  0.1027
 5673POPC   GL268860  19.574  10.601   4.286 -0.1651  0.0657  0.0361
 5673POPC   C1A68861  18.946  10.684   4.426  0.1586 -0.1041 -0.0651
 5673POPC   D2A68862  18.644  10.584   4.615  0.3099  0.1761 -0.1522
 5673POPC   C3A68863  18.457  10.360   4.988 -0.3133 -0.0545 -0.0268
 5673POPC   C4A68864  18.474  10.169   5.464 -0.3507  0.0408 -0.1066
 5673POPC   C1B68865  19.393  10.667   4.716 -0.1968 -0.2194  0.2652
 5673POPC   C2B68866  19.095  10.833   4.905  0.0581 -0.0497 -0.1591
 5673POPC   C3B68867  18.848  10.833   5.250  0.0978 -0.0666 -0.2671
 5673POPC   C4B68868  18.451  10.685   5.365  0.2729  0.1254 -0.0706
 5674POPC   NC368869   8.143  26.049   3.775 -0.1289  0.0908 -0.1614
 5674POPC   PO468870   7.904  26.322   3.772 -0.4235 -0.0013 -0.0553
 5674POPC   GL168871   7.878  26.189   4.181 -0.4769  0.0894 -0.4584
 5674POPC   GL268872   7.641  26.359   4.230  0.3433 -0.3436 -0.0780
 5674POPC   C1A68873   7.914  26.239   4.659  0.0237  0.1075 -0.3334
 5674POPC   D2A68874   8.012  25.927   5.004  0.1406 -0.4602  0.0430
 5674POPC   C3A68875   8.313  25.994   5.355  0.2511 -0.0101 -0.0785
 5674POPC   C4A68876   8.542  26.064   5.764  0.0498 -0.1401 -0.0190
 5674POPC   C1B68877   7.579  26.681   4.581 -0.1212 -0.2428  0.0344
 5674POPC   C2B68878   7.431  26.730   5.008 -0.1805 -0.0586  0.0162
 5674POPC   C3B68879   7.401  26.927   5.451  0.2606 -0.0863 -0.1584
 5674POPC   C4B68880   7.135  26.884   5.822  0.0177 -0.0249 -0.1021
 5675POPC   NC368881   0.404   0.231   3.363 -0.1690  0.2338  0.0787
 5675POPC   PO468882   0.260   0.067   3.684 -0.1201 -0.2166 -0.1476
 5675POPC   GL168883   0.321   0.208   3.963 -0.2458 -0.0890 -0.0024
 5675POPC   GL268884   0.270   0.070   4.273  0.3967  0.0123  0.1113
 5675POPC   C1A68885   0.521   0.583   4.037  0.2749 -0.3240 -0.0501
 5675POPC   D2A68886   0.804   0.881   3.856  0.0121  0.2563  0.0568
 5675POPC   C3A68887   1.142   1.032   4.109 -0.0615  0.0200 -0.0515
 5675POPC   C4A68888   1.349   1.014   4.525 -0.1005 -0.0857 -0.0801
 5675POPC   C1B68889   0.224   0.042   4.803 -0.2499 -0.1087 -0.1281
 5675POPC   C2B68890   0.206  -0.180   5.231 -0.2057 -0.1423 -0.2525
 5675POPC   C3B68891   0.457  -0.199   5.616  0.1328 -0.3117 -0.0827
 5675POPC   C4B68892   0.760  -0.354   5.943 -0.0798  0.1927  0.0793
 5676POPC   NC368893  20.610  29.379   4.219  0.1161 -0.0552 -0.0365
 5676POPC   PO468894  20.683  29.663   3.966  0.1270 -0.0031  0.2523
 5676POPC   GL168895  20.813  29.867   4.221 -0.2647  0.2767 -0.0173
 5676POPC   GL268896  21.093  29.786   4.170  0.0545  0.1725 -0.3612
 5676POPC   C1A68897  20.664  29.992   4.696 -0.3327  0.0023  0.1145
 5676POPC   D2A68898  20.552  30.323   5.064 -0.0191  0.1972  0.1931
 5676POPC   C3A68899  20.186  30.158   5.367  0.1071  0.1086 -0.0761
 5676POPC   C4A68900  19.759  30.336   5.540 -0.2905  0.2254  0.0310
 5676POPC   C1B68901  21.287  29.762   4.574 -0.1522 -0.0662  0.1528
 5676POPC   C2B68902  21.371  29.435   4.946  0.0068  0.1514  0.0564
 5676POPC   C3B68903  21.436  29.145   5.312  0.3615 -0.1939  0.1425
 5676POPC   C4B68904  21.435  28.849   5.670  0.1402 -0.3082 -0.0974
 5677POPC   NC368905  24.454  23.846   3.441  0.2787 -0.0824 -0.0481
 5677POPC   PO468906  24.505  23.471   3.509 -0.3888  0.0469  0.0720
 5677POPC   GL168907  24.743  23.596   3.738 -0.1025 -0.1064  0.0236
 5677POPC   GL268908  24.678  23.845   3.918  0.1204  0.0547  0.0464
 5677POPC   C1A68909  24.897  23.528   4.224  0.0025 -0.2680  0.2490
 5677POPC   D2A68910  24.725  23.786   4.568  0.2077  0.0371 -0.3126
 5677POPC   C3A68911  24.459  23.823   4.935  0.0612  0.1971 -0.0529
 5677POPC   C4A68912  24.160  23.781   5.303  0.1528  0.2165 -0.2985
 5677POPC   C1B68913  24.755  24.136   4.234  0.0143  0.0854 -0.1639
 5677POPC   C2B68914  24.482  24.228   4.593  0.0787  0.1194 -0.0457
 5677POPC   C3B68915  24.288  24.353   5.038  0.2212  0.0286 -0.0450
 5677POPC   C4B68916  24.249  24.467   5.499 -0.0751 -0.0368 -0.2451
 5678POPC   NC368917   2.742  27.130   3.658 -0.0473 -0.0999 -0.0622
 5678POPC   PO468918   2.407  26.983   3.883  0.2059 -0.1248 -0.0635
 5678POPC   GL168919   2.591  26.952   4.240  0.0634  0.2555 -0.0790
 5678POPC   GL268920   2.851  26.834   4.237  0.0377  0.1597  0.3176
 5678POPC   C1A68921   2.269  27.094   4.578  0.0518  0.0056 -0.1552
 5678POPC   D2A68922   1.919  27.272   4.804  0.0512  0.3632  0.1500
 5678POPC   C3A68923   1.979  27.490   5.270 -0.3162 -0.2030  0.3406
 5678POPC   C4A68924   2.331  27.573   5.555 -0.2333 -0.1360  0.0051
 5678POPC   C1B68925   2.835  26.843   4.671 -0.0251  0.2865 -0.1556
 5678POPC   C2B68926   2.939  26.896   5.096 -0.0331  0.0637 -0.1161
 5678POPC   C3B68927   3.304  26.878   5.420 -0.0353 -0.0831 -0.1104
 5678POPC   C4B68928   3.520  27.165   5.672 -0.2253 -0.2284 -0.1517
 5679POPC   NC368929   2.814  11.598   4.156  0.1375  0.0317  0.2067
 5679POPC   PO468930   2.558  11.588   3.883  0.1329  0.1222 -0.1133
 5679POPC   GL168931   2.362  11.636   4.253  0.0466 -0.1002 -0.2281
 5679POPC   GL268932   2.283  11.899   4.245  0.2388 -0.1350  0.1565
 5679POPC   C1A68933   1.961  11.583   4.387  0.2085 -0.0021 -0.3437
 5679POPC   D2A68934   1.815  11.427   4.817  0.0228 -0.2501  0.2574
 5679POPC   C3A68935   1.636  11.490   5.239  0.4010  0.0412  0.2120
 5679POPC   C4A68936   1.222  11.277   5.346 -0.1783 -0.1678  0.1590
 5679POPC   C1B68937   2.656  11.868   4.590  0.2291  0.1272  0.1336
 5679POPC   C2B68938   2.666  12.023   5.038  0.1917  0.0467  0.2798
 5679POPC   C3B68939   2.790  12.111   5.521 -0.2326  0.1277  0.2300
 5679POPC   C4B68940   3.227  12.104   5.654 -0.2706  0.0045  0.0675
 5680POPC   NC368941  25.767  22.839   3.387  0.0093 -0.1663 -0.0728
 5680POPC   PO468942  25.791  22.600   3.690  0.2901 -0.1367  0.0077
 5680POPC   GL168943  25.854  22.659   4.075  0.4452 -0.2016  0.3432
 5680POPC   GL268944  25.542  22.559   4.182  0.2824  0.1263 -0.2237
 5680POPC   C1A68945  26.015  23.044   4.315 -0.0713 -0.4323 -0.0204
 5680POPC   D2A68946  25.878  23.494   4.292 -0.1870  0.2021  0.1561
 5680POPC   C3A68947  26.151  23.525   4.649 -0.0077  0.0974  0.0458
 5680POPC   C4A68948  26.204  23.618   5.075  0.0050 -0.2232 -0.2121
 5680POPC   C1B68949  25.289  22.714   4.499 -0.0129 -0.0429  0.0494
 5680POPC   C2B68950  25.239  22.976   4.924  0.2131  0.0901  0.4100
 5680POPC   C3B68951  25.340  23.072   5.312 -0.1970 -0.0979 -0.1594
 5680POPC   C4B68952  25.531  23.303   5.723 -0.0593 -0.2146  0.1164
 5681POPC   NC368953  18.864  20.714   4.072 -0.1117  0.2012  0.2228
 5681POPC   PO468954  19.160  20.480   3.955  0.0880 -0.1127  0.1151
 5681POPC   GL168955  19.253  20.366   4.292 -0.2397  0.1407  0.1699
 5681POPC   GL268956  19.022  20.511   4.472 -0.2810 -0.1580  0.0672
 5681POPC   C1A68957  19.322  20.377   4.792  0.1917  0.1095  0.1578
 5681POPC   D2A68958  19.196  20.259   5.202  0.1368  0.1717 -0.1090
 5681POPC   C3A68959  18.846  20.213   5.498  0.1196  0.2288  0.1255
 5681POPC   C4A68960  18.814  20.034   5.905  0.2642 -0.0192  0.1171
 5681POPC   C1B68961  18.852  20.513   4.889  0.0479 -0.0157  0.1169
 5681POPC   C2B68962  18.876  20.745   5.255  0.3262  0.3208 -0.0462
 5681POPC   C3B68963  18.908  20.976   5.632 -0.0274 -0.0550 -0.0574
 5681POPC   C4B68964  18.856  21.323   5.924 -0.1204  0.1077 -0.0513
 5682POPC   NC368965   7.599  20.344   3.685 -0.1047  0.2321  0.0535
 5682POPC   PO468966   7.329  20.042   3.643 -0.1352  0.0515 -0.1301
 5682POPC   GL168967   7.392  19.991   4.046 -0.1750  0.0062 -0.2218
 5682POPC   GL268968   7.416  20.288   4.157  0.1190 -0.1183 -0.0868
 5682POPC   C1A68969   7.648  19.793   4.373  0.0246 -0.0667 -0.1172
 5682POPC   D2A68970   7.806  19.694   4.815 -0.2618 -0.1623  0.3009
 5682POPC   C3A68971   7.654  19.582   5.250 -0.0804  0.1588  0.5499
 5682POPC   C4A68972   7.299  19.453   5.487  0.2977  0.2152  0.1261
 5682POPC   C1B68973   7.170  20.407   4.584 -0.1675  0.0932 -0.0772
 5682POPC   C2B68974   7.104  20.678   4.914 -0.2350  0.2385 -0.0443
 5682POPC   C3B68975   7.205  20.580   5.350  0.3665  0.1162 -0.1316
 5682POPC   C4B68976   7.197  20.714   5.861  0.0269 -0.3033 -0.0686
 5683POPC   NC368977   1.613   3.744   3.873 -0.1053 -0.0644  0.4506
 5683POPC   PO468978   1.815   3.439   3.841 -0.0825  0.1497 -0.1203
 5683POPC   GL168979   1.956   3.234   4.145 -0.1031  0.1195  0.0743
 5683POPC   GL268980   2.095   3.018   4.227 -0.0347  0.2797 -0.0390
 5683POPC   C1A68981   2.008   3.448   4.545  0.1089 -0.0438  0.0360
 5683POPC   D2A68982   1.996   3.404   5.069  0.1806 -0.0499 -0.0049
 5683POPC   C3A68983   2.135   3.629   5.431  0.5131 -0.0421  0.0048
 5683POPC   C4A68984   2.178   3.896   5.803 -0.0856  0.1645 -0.0415
 5683POPC   C1B68985   2.126   2.756   4.612  0.0502  0.0588 -0.1834
 5683POPC   C2B68986   1.906   2.820   5.009  0.2783  0.2408 -0.0137
 5683POPC   C3B68987   1.788   2.798   5.446  0.0240  0.0820  0.2905
 5683POPC   C4B68988   1.749   2.767   5.910 -0.0466  0.0539  0.0487
 5684POPC   NC368989   0.538  16.928   3.389  0.0076 -0.0469  0.1106
 5684POPC   PO468990   0.536  16.531   3.385 -0.0152 -0.0255 -0.1250
 5684POPC   GL168991   0.586  16.335   3.752 -0.0526  0.1052 -0.1112
 5684POPC   GL268992   0.838  16.277   3.726  0.3564  0.1203 -0.0576
 5684POPC   C1A68993   0.502  16.405   4.243 -0.2237  0.0029 -0.1039
 5684POPC   D2A68994   0.341  16.096   4.574 -0.1705 -0.1168  0.1958
 5684POPC   C3A68995   0.336  16.230   5.044  0.1223 -0.2317  0.2703
 5684POPC   C4A68996   0.170  16.254   5.435  0.1632  0.1081 -0.3415
 5684POPC   C1B68997   1.073  16.352   4.171  0.0798  0.0985 -0.2681
 5684POPC   C2B68998   0.996  16.728   4.447 -0.2334  0.0072 -0.1460
 5684POPC   C3B68999   0.785  16.935   4.756  0.3137  0.3644  0.0877
 5684POPC   C4B69000   0.373  16.794   4.922 -0.0502  0.0354 -0.3081
 5685POPC   NC369001  22.142   6.692   3.367 -0.1272 -0.0687  0.1847
 5685POPC   PO469002  21.865   6.428   3.469  0.1466 -0.4991 -0.1853
 5685POPC   GL169003  22.021   6.435   3.852 -0.2544 -0.1229  0.0548
 5685POPC   GL269004  22.017   6.740   3.892  0.1243  0.2903 -0.1883
 5685POPC   C1A69005  21.824   6.320   4.278 -0.1774 -0.1530  0.0017
 5685POPC   D2A69006  21.629   6.256   4.682 -0.0530  0.2002  0.1333
 5685POPC   C3A69007  21.478   6.034   5.074 -0.1460  0.5032 -0.1317
 5685POPC   C4A69008  21.598   5.980   5.484  0.1807  0.0803 -0.1436
 5685POPC   C1B69009  22.078   6.703   4.373 -0.1542 -0.1019 -0.1051
 5685POPC   C2B69010  22.124   6.359   4.687  0.2361  0.0294  0.1639
 5685POPC   C3B69011  22.329   6.384   5.108 -0.0313 -0.0105 -0.0272
 5685POPC   C4B69012  22.662   6.544   5.473 -0.0078  0.1702 -0.0073
 5686POPC   NC369013  30.871  10.549   3.405  0.0860  0.0880 -0.0708
 5686POPC   PO469014  31.133  10.292   3.308 -0.0235 -0.0757  0.1394
 5686POPC   GL169015  31.109  10.091   3.687  0.2524 -0.2386 -0.1183
 5686POPC   GL269016  31.238  10.382   3.780  0.1311 -0.3409 -0.1689
 5686POPC   C1A69017  30.717   9.952   3.956  0.0795  0.1074  0.0430
 5686POPC   D2A69018  30.224   9.939   4.012 -0.0860 -0.1016 -0.1980
 5686POPC   C3A69019  30.040  10.056   4.413  0.0170 -0.0499  0.1999
 5686POPC   C4A69020  29.716  10.181   4.782 -0.0243  0.0937  0.0506
 5686POPC   C1B69021  30.820  10.408   4.088  0.1031  0.3395 -0.0990
 5686POPC   C2B69022  30.528  10.235   4.430 -0.3730 -0.1698 -0.0715
 5686POPC   C3B69023  30.380  10.163   4.903 -0.0339 -0.3952  0.0323
 5686POPC   C4B69024  30.011   9.968   5.079 -0.1728  0.0611 -0.1542
 5687POPC   NC369025  15.526  10.683   3.479 -0.1709  0.2195 -0.2827
 5687POPC   PO469026  15.367  10.643   3.126 -0.0561 -0.0945  0.2597
 5687POPC   GL169027  15.260  10.983   3.170 -0.0394  0.2533 -0.2026
 5687POPC   GL269028  14.962  11.028   3.209  0.0381  0.0654 -0.2019
 5687POPC   C1A69029  15.181  11.320   3.504  0.0587 -0.1144 -0.0464
 5687POPC   D2A69030  14.859  11.372   3.847 -0.3098  0.0310 -0.0119
 5687POPC   C3A69031  14.448  11.296   4.026  0.3114 -0.1305  0.2866
 5687POPC   C4A69032  14.039  11.148   4.173 -0.3256  0.0955  0.0125
 5687POPC   C1B69033  14.617  11.268   3.386 -0.0611  0.2027  0.3315
 5687POPC   C2B69034  14.163  11.217   3.571 -0.0318 -0.1564  0.0037
 5687POPC   C3B69035  13.818  10.923   3.768 -0.1193  0.2532  0.1217
 5687POPC   C4B69036  13.647  10.846   4.209  0.0149 -0.0858 -0.1749
 5688POPC   NC369037   9.773  26.181   3.701 -0.0142  0.1815  0.0175
 5688POPC   PO469038  10.138  26.232   3.906  0.0249  0.0584  0.2738
 5688POPC   GL169039   9.989  25.936   4.178 -0.0092 -0.2838 -0.1213
 5688POPC   GL269040  10.176  25.692   4.223  0.1825 -0.1327  0.2961
 5688POPC   C1A69041  10.269  26.050   4.528  0.1086  0.0155  0.3237
 5688POPC   D2A69042  10.444  26.221   4.898 -0.2331  0.2750 -0.0379
 5688POPC   C3A69043  10.283  26.205   5.352 -0.0046 -0.0062 -0.2602
 5688POPC   C4A69044  10.451  26.267   5.791  0.0968  0.0175 -0.2605
 5688POPC   C1B69045   9.977  25.653   4.616 -0.2896  0.1036  0.4357
 5688POPC   C2B69046   9.790  25.593   5.014 -0.0649  0.1754  0.2191
 5688POPC   C3B69047   9.582  25.516   5.437  0.0459  0.2234  0.1854
 5688POPC   C4B69048   9.245  25.446   5.753 -0.0241 -0.1284  0.1517
 5689POPC   NC369049   0.596   1.290   3.109  0.2949  0.1100  0.0492
 5689POPC   PO469050   0.519   1.312   3.517  0.0584  0.1261  0.1707
 5689POPC   GL169051   0.459   1.293   3.900 -0.0612 -0.0004  0.0320
 5689POPC   GL269052   0.330   1.050   3.988 -0.1182  0.0605 -0.2213
 5689POPC   C1A69053   0.809   1.351   4.209  0.0755  0.1116  0.1112
 5689POPC   D2A69054   0.864   1.234   4.594 -0.0971  0.1291  0.1639
 5689POPC   C3A69055   1.166   1.353   4.885 -0.0216 -0.2255 -0.4018
 5689POPC   C4A69056   1.506   1.470   5.212  0.0354  0.1715 -0.0348
 5689POPC   C1B69057   0.440   1.014   4.447 -0.2035  0.1289 -0.2327
 5689POPC   C2B69058   0.501   0.891   4.910 -0.1583  0.2960  0.2422
 5689POPC   C3B69059   0.740   1.074   5.302 -0.1714  0.2039 -0.3297
 5689POPC   C4B69060   1.156   1.207   5.476  0.0041  0.0772 -0.1504
 5690POPC   NC369061  27.967  22.877   3.950 -0.0444 -0.2369 -0.2131
 5690POPC   PO469062  28.019  22.491   3.802  0.1568 -0.1550 -0.0808
 5690POPC   GL169063  28.038  22.371   4.171  0.0074 -0.2239  0.0413
 5690POPC   GL269064  28.033  22.149   4.336 -0.0566 -0.1168 -0.2696
 5690POPC   C1A69065  28.292  22.515   4.563 -0.0785  0.0984 -0.1857
 5690POPC   D2A69066  28.265  22.919   4.830  0.0899  0.1035  0.2662
 5690POPC   C3A69067  28.383  23.018   5.280 -0.0825  0.3319 -0.1058
 5690POPC   C4A69068  28.319  23.231   5.667  0.0782  0.1495  0.2369
 5690POPC   C1B69069  27.949  22.154   4.818  0.1888  0.0873  0.3233
 5690POPC   C2B69070  28.199  22.399   5.109 -0.0977 -0.0995 -0.1047
 5690POPC   C3B69071  28.491  22.492   5.469  0.0670 -0.0439 -0.1778
 5690POPC   C4B69072  28.608  22.784   5.779 -0.1653 -0.1460 -0.1423
 5691POPC   NC369073   2.906   6.742   3.980 -0.0261 -0.5864 -0.0411
 5691POPC   PO469074   3.181   6.533   3.746 -0.0658  0.2663 -0.4198
 5691POPC   GL169075   3.320   6.722   4.103 -0.3040  0.1509  0.1162
 5691POPC   GL269076   3.236   6.552   4.356 -0.0562  0.0602 -0.1473
 5691POPC   C1A69077   3.141   7.006   4.420 -0.1717 -0.0850  0.0757
 5691POPC   D2A69078   3.032   6.922   4.836  0.1138 -0.1051  0.0514
 5691POPC   C3A69079   2.987   7.293   5.070  0.0119 -0.5472  0.0793
 5691POPC   C4A69080   3.142   7.710   5.281  0.0858  0.0661  0.0188
 5691POPC   C1B69081   3.261   6.431   4.835 -0.1499 -0.1217  0.0564
 5691POPC   C2B69082   3.423   6.518   5.285 -0.1023 -0.0167  0.1317
 5691POPC   C3B69083   3.666   6.669   5.699  0.1265  0.0085  0.2540
 5691POPC   C4B69084   3.892   7.071   5.715  0.0274 -0.0599 -0.1112
 5692POPC   NC369085  15.315  17.793   3.591  0.1291 -0.1172 -0.0381
 5692POPC   PO469086  15.124  17.553   3.856 -0.1579  0.1210  0.5057
 5692POPC   GL169087  15.055  17.518   4.238  0.1036  0.1378  0.0149
 5692POPC   GL269088  15.215  17.275   4.304  0.1883  0.0727  0.1215
 5692POPC   C1A69089  15.288  17.794   4.539  0.2904 -0.0603  0.0202
 5692POPC   D2A69090  15.586  17.840   4.905  0.4781 -0.2888  0.0363
 5692POPC   C3A69091  15.182  17.731   5.133 -0.1166  0.0409 -0.2806
 5692POPC   C4A69092  15.220  17.539   5.584  0.0744 -0.2472  0.1764
 5692POPC   C1B69093  14.958  17.448   4.690 -0.1052  0.1647  0.2086
 5692POPC   C2B69094  14.760  17.425   5.135 -0.2375 -0.2165 -0.2431
 5692POPC   C3B69095  14.729  17.427   5.602 -0.2281 -0.2623 -0.0123
 5692POPC   C4B69096  14.620  17.504   6.006 -0.1880  0.0276  0.3428
 5693POPC   NC369097  25.169   1.425   3.523  0.2290  0.0793  0.1006
 5693POPC   PO469098  25.165   1.060   3.670  0.1676  0.4694  0.1638
 5693POPC   GL169099  25.378   0.975   3.985  0.0043 -0.1561  0.1368
 5693POPC   GL269100  25.577   1.176   4.033 -0.1012 -0.1565  0.1314
 5693POPC   C1A69101  25.261   1.013   4.486  0.2086  0.0973  0.2748
 5693POPC   D2A69102  25.268   0.851   4.976  0.0985  0.1060  0.4340
 5693POPC   C3A69103  25.428   1.146   5.274  0.0347  0.2074 -0.1851
 5693POPC   C4A69104  25.393   1.551   5.447  0.0464 -0.4570 -0.0792
 5693POPC   C1B69105  25.715   0.848   4.310  0.1443 -0.0581 -0.0262
 5693POPC   C2B69106  25.493   0.566   4.628 -0.2244  0.3821 -0.2774
 5693POPC   C3B69107  25.271   0.169   4.724 -0.0349  0.1208  0.1648
 5693POPC   C4B69108  24.940  -0.043   4.997  0.1260 -0.3063 -0.1233
 5694POPC   NC369109  23.869  30.069   4.016 -0.1487  0.1662  0.0846
 5694POPC   PO469110  24.084  29.800   3.841 -0.1803 -0.1309 -0.5526
 5694POPC   GL169111  24.338  29.602   4.164 -0.1153  0.3622  0.1288
 5694POPC   GL269112  24.337  29.378   4.027  0.0874 -0.2578  0.0039
 5694POPC   C1A69113  24.356  29.779   4.588  0.0360  0.3489  0.1967
 5694POPC   D2A69114  24.429  29.979   5.040 -0.0731  0.2440 -0.1252
 5694POPC   C3A69115  24.043  30.227   5.182 -0.3766  0.0338  0.3078
 5694POPC   C4A69116  23.747  30.433   5.401 -0.1878 -0.1442  0.1846
 5694POPC   C1B69117  24.004  29.384   4.351 -0.0408  0.1655 -0.2860
 5694POPC   C2B69118  24.101  29.386   4.860 -0.1460 -0.1003  0.0044
 5694POPC   C3B69119  24.173  29.567   5.244 -0.2708  0.1745 -0.2288
 5694POPC   C4B69120  24.228  29.912   5.560  0.0409 -0.1420  0.0544
 5695POPC   NC369121  17.696   3.291   3.620 -0.4281  0.4392 -0.0430
 5695POPC   PO469122  18.103   3.181   3.596  0.4504  0.0146 -0.1402
 5695POPC   GL169123  18.323   3.312   3.890  0.0200  0.1399  0.2116
 5695POPC   GL269124  18.098   3.458   4.001 -0.0927 -0.3013  0.2676
 5695POPC   C1A69125  18.376   3.559   4.327  0.0292  0.0832 -0.0392
 5695POPC   D2A69126  18.118   3.632   4.729 -0.1775 -0.1112 -0.1710
 5695POPC   C3A69127  18.135   3.727   5.199  0.0733  0.1520 -0.0430
 5695POPC   C4A69128  18.119   4.079   5.439  0.1002  0.1867  0.2593
 5695POPC   C1B69129  18.027   3.127   4.383 -0.1120  0.1489  0.3043
 5695POPC   C2B69130  18.058   2.878   4.707 -0.1944  0.1032  0.0599
 5695POPC   C3B69131  17.973   2.810   5.176 -0.0038 -0.2103 -0.1692
 5695POPC   C4B69132  18.017   2.645   5.596 -0.1177 -0.0903 -0.3640
 5696POPC   NC369133  31.294  19.263   3.988  0.2333 -0.0116  0.2908
 5696POPC   PO469134  31.499  18.980   3.827 -0.1440 -0.0580 -0.4385
 5696POPC   GL169135  31.575  18.987   4.245  0.1359 -0.3163 -0.5483
 5696POPC   GL269136  31.841  19.050   4.384  0.1762 -0.0475  0.2812
 5696POPC   C1A69137  31.407  19.334   4.502 -0.0390 -0.1818  0.0072
 5696POPC   D2A69138  31.229  19.306   4.951  0.0825 -0.0051  0.0242
 5696POPC   C3A69139  31.201  19.339   5.387 -0.2517 -0.1265 -0.1680
 5696POPC   C4A69140  30.884  19.086   5.683 -0.1015  0.0019 -0.3101
 5696POPC   C1B69141  31.653  19.028   4.790  0.1883  0.1154  0.0755
 5696POPC   C2B69142  31.578  19.000   5.179 -0.0406  0.0219  0.4899
 5696POPC   C3B69143  31.523  19.019   5.680  0.1020 -0.0976 -0.0103
 5696POPC   C4B69144  31.264  19.054   6.019  0.0230  0.0606  0.0996
 5697POPC   NC369145  16.209  24.995   3.854  0.0653 -0.1603 -0.2903
 5697POPC   PO469146  15.889  25.184   3.668 -0.2068  0.1635 -0.2950
 5697POPC   GL169147  15.661  25.107   4.022 -0.1390 -0.2589  0.3413
 5697POPC   GL269148  15.941  25.172   4.203  0.1715 -0.1162  0.1064
 5697POPC   C1A69149  15.606  25.459   4.391  0.1807 -0.0091 -0.0363
 5697POPC   D2A69150  15.869  25.494   4.796  0.3021 -0.1381 -0.1242
 5697POPC   C3A69151  15.771  25.444   5.237  0.0787  0.0525  0.1923
 5697POPC   C4A69152  15.977  25.317   5.611  0.0366  0.1303 -0.0068
 5697POPC   C1B69153  15.829  24.981   4.602 -0.2879 -0.2768  0.2956
 5697POPC   C2B69154  16.117  24.798   4.878 -0.2472  0.2167  0.2520
 5697POPC   C3B69155  16.234  24.868   5.297  0.5279  0.1689 -0.1035
 5697POPC   C4B69156  16.253  24.869   5.740 -0.0942 -0.0747  0.1957
 5698POPC   NC369157   3.602  24.560   3.087  0.0103 -0.0212  0.0267
 5698POPC   PO469158   3.635  24.618   3.468  0.1302 -0.1824  0.1183
 5698POPC   GL169159   3.527  24.418   3.796  0.0105  0.1599  0.1289
 5698POPC   GL269160   3.373  24.610   3.978  0.3430  0.1603 -0.1739
 5698POPC   C1A69161   3.655  24.076   4.111 -0.1816 -0.2291 -0.0996
 5698POPC   D2A69162   3.734  23.638   4.214  0.2485  0.1095  0.0675
 5698POPC   C3A69163   3.587  23.413   4.582 -0.2255 -0.1748 -0.3316
 5698POPC   C4A69164   3.504  23.370   5.053  0.1031 -0.0203 -0.0871
 5698POPC   C1B69165   3.573  24.509   4.380 -0.1514  0.3895 -0.0558
 5698POPC   C2B69166   3.651  24.453   4.821 -0.0631  0.0012 -0.0081
 5698POPC   C3B69167   3.764  24.221   5.244 -0.0110 -0.3242  0.0542
 5698POPC   C4B69168   4.196  24.142   5.305 -0.1531  0.3293 -0.3669
 5699POPC   NC369169  13.555  25.317   3.886  0.0484  0.2201 -0.0003
 5699POPC   PO469170  13.825  25.008   3.987  0.0478  0.1095  0.1107
 5699POPC   GL169171  13.929  24.998   4.339  0.0783  0.3001  0.1340
 5699POPC   GL269172  14.163  25.049   4.382  0.0597  0.1364  0.0684
 5699POPC   C1A69173  13.765  25.226   4.729 -0.0941  0.0275  0.0520
 5699POPC   D2A69174  13.686  25.241   5.150  0.0544 -0.1717 -0.0683
 5699POPC   C3A69175  13.241  25.360   5.181  0.0159  0.3602 -0.2308
 5699POPC   C4A69176  12.767  25.232   5.345  0.1542  0.2032 -0.2415
 5699POPC   C1B69177  14.452  25.251   4.643 -0.1952  0.2429  0.0472
 5699POPC   C2B69178  14.672  25.637   4.819  0.0786  0.0592 -0.1640
 5699POPC   C3B69179  14.793  25.854   5.169  0.0847  0.0953 -0.0386
 5699POPC   C4B69180  14.900  25.939   5.653 -0.0261 -0.2884  0.1879
 5700POPC   NC369181   5.709  25.545   3.896 -0.1006 -0.0365 -0.0307
 5700POPC   PO469182   5.514  25.185   3.929 -0.2149 -0.0666  0.0585
 5700POPC   GL169183   5.547  25.293   4.262  0.2665 -0.0387 -0.1746
 5700POPC   GL269184   5.318  25.093   4.379 -0.1632  0.1677  0.0925
 5700POPC   C1A69185   5.691  25.297   4.725  0.1122 -0.1367 -0.0429
 5700POPC   D2A69186   5.651  25.216   5.186 -0.2239  0.2117  0.1597
 5700POPC   C3A69187   5.249  25.200   5.467  0.0909 -0.0942 -0.1254
 5700POPC   C4A69188   4.914  24.893   5.411  0.1222 -0.3230 -0.1297
 5700POPC   C1B69189   5.361  24.973   4.872 -0.3985 -0.2924 -0.1996
 5700POPC   C2B69190   5.392  24.751   5.270 -0.2506 -0.0550 -0.2886
 5700POPC   C3B69191   5.310  24.772   5.702  0.1867  0.2844 -0.1532
 5700POPC   C4B69192   5.433  24.969   6.085 -0.0412 -0.1345 -0.0323
 5701POPC   NC369193  24.932  23.211   3.504 -0.1041 -0.0236 -0.0873
 5701POPC   PO469194  25.240  23.030   3.607 -0.1747  0.0090  0.0273
 5701POPC   GL169195  25.276  23.190   3.867  0.0258  0.0431  0.2550
 5701POPC   GL269196  25.333  23.438   3.968  0.0553  0.0861 -0.2195
 5701POPC   C1A69197  25.513  23.064   4.268 -0.0556 -0.0024 -0.0371
 5701POPC   D2A69198  25.615  23.143   4.644  0.1993  0.1250  0.0336
 5701POPC   C3A69199  25.535  23.571   4.896 -0.2161 -0.0134  0.1864
 5701POPC   C4A69200  25.457  24.057   5.047 -0.2673 -0.2056  0.0652
 5701POPC   C1B69201  25.408  23.535   4.377  0.5510  0.0931 -0.0738
 5701POPC   C2B69202  25.102  23.558   4.765  0.2109  0.0658 -0.2707
 5701POPC   C3B69203  24.932  23.912   5.003 -0.0274  0.2481 -0.0074
 5701POPC   C4B69204  24.616  24.032   5.326  0.1364 -0.2016 -0.2497
 5702POPC   NC369205  23.989  17.988   4.204  0.1724  0.0554  0.1754
 5702POPC   PO469206  24.174  18.306   4.016  0.0828 -0.0699  0.0115
 5702POPC   GL169207  24.193  18.342   4.387 -0.1239 -0.2253  0.0528
 5702POPC   GL269208  24.484  18.279   4.431  0.1237 -0.1191 -0.1850
 5702POPC   C1A69209  24.210  18.141   4.817  0.0378 -0.0423 -0.2189
 5702POPC   D2A69210  24.167  18.262   5.237  0.0950  0.0054 -0.3628
 5702POPC   C3A69211  23.884  18.495   5.525 -0.2045  0.1070  0.1961
 5702POPC   C4A69212  23.866  18.584   5.960  0.2919  0.3664 -0.2927
 5702POPC   C1B69213  24.702  18.021   4.747 -0.2957 -0.1037 -0.0609
 5702POPC   C2B69214  24.717  17.830   5.174  0.0807  0.0193  0.1540
 5702POPC   C3B69215  24.500  17.840   5.580  0.2373 -0.1919 -0.1156
 5702POPC   C4B69216  24.404  17.699   6.035 -0.3267  0.2343  0.0127
 5703POPC   NC369217  27.735  15.773   3.392 -0.2892 -0.1444 -0.2648
 5703POPC   PO469218  27.870  15.898   3.778 -0.0227  0.0129 -0.1312
 5703POPC   GL169219  27.939  15.838   4.105  0.0086  0.0649 -0.1719
 5703POPC   GL269220  27.986  16.086   4.297 -0.1265 -0.1486 -0.0389
 5703POPC   C1A69221  27.633  15.724   4.448  0.1408  0.0376  0.0701
 5703POPC   D2A69222  27.580  15.524   4.890 -0.0424 -0.1051  0.3585
 5703POPC   C3A69223  27.877  15.438   5.210  0.1528  0.2812  0.1295
 5703POPC   C4A69224  28.204  15.493   5.583 -0.0550  0.1369  0.2185
 5703POPC   C1B69225  28.133  16.169   4.800 -0.2036 -0.2175 -0.0176
 5703POPC   C2B69226  28.319  16.316   5.244 -0.0236  0.0738 -0.3173
 5703POPC   C3B69227  28.488  16.525   5.637  0.4133 -0.1280  0.2392
 5703POPC   C4B69228  28.551  16.709   6.039 -0.2825  0.1081  0.0554
 5704POPC   NC369229   4.898   1.469   3.772 -0.0241  0.1325 -0.0458
 5704POPC   PO469230   5.237   1.365   3.912 -0.1404 -0.2866  0.1702
 5704POPC   GL169231   5.282   1.443   4.319  0.3316 -0.3252  0.1645
 5704POPC   GL269232   5.554   1.387   4.342 -0.3356  0.0638  0.2245
 5704POPC   C1A69233   5.259   1.704   4.684 -0.0983  0.0554  0.2499
 5704POPC   D2A69234   5.161   1.875   5.103 -0.0215 -0.2563  0.1640
 5704POPC   C3A69235   5.086   2.360   5.189 -0.1632 -0.0556  0.2212
 5704POPC   C4A69236   5.412   2.674   5.277  0.2066 -0.1795 -0.1476
 5704POPC   C1B69237   5.661   1.349   4.832 -0.0981  0.1348 -0.2286
 5704POPC   C2B69238   5.662   1.258   5.317 -0.0333 -0.2425 -0.0406
 5704POPC   C3B69239   5.268   1.097   5.543  0.0643  0.2084  0.0623
 5704POPC   C4B69240   5.122   0.747   5.802 -0.0689  0.0515 -0.0498
 5705POPC   NC369241  18.471   8.677   4.062  0.0001 -0.1948 -0.0320
 5705POPC   PO469242  18.334   8.926   3.781 -0.2415 -0.0275 -0.0825
 5705POPC   GL169243  18.406   9.151   4.092 -0.1892  0.0159  0.0057
 5705POPC   GL269244  18.258   9.380   4.221  0.0413  0.0261 -0.0678
 5705POPC   C1A69245  18.722   9.028   4.440  0.0923 -0.0426  0.0663
 5705POPC   D2A69246  18.565   8.661   4.690  0.0819 -0.1791  0.3583
 5705POPC   C3A69247  18.704   8.614   5.156  0.1955 -0.1746  0.1372
 5705POPC   C4A69248  18.715   8.367   5.550  0.2589  0.0975 -0.2575
 5705POPC   C1B69249  18.203   9.043   4.575 -0.2690 -0.1064  0.0884
 5705POPC   C2B69250  18.239   8.901   5.002  0.0538  0.2889  0.0276
 5705POPC   C3B69251  18.117   9.065   5.443  0.0259 -0.3044 -0.0825
 5705POPC   C4B69252  17.997   9.123   5.894 -0.1106 -0.1469 -0.2364
 5706POPC   NC369253   9.923  10.604   3.762  0.0420  0.0934 -0.0418
 5706POPC   PO469254   9.669  10.894   3.835 -0.0140  0.1045  0.1172
 5706POPC   GL169255   9.596  10.985   4.183  0.0675 -0.0721 -0.1264
 5706POPC   GL269256   9.323  10.857   4.222 -0.2142  0.0519 -0.2167
 5706POPC   C1A69257   9.718  11.050   4.619  0.0100  0.0196 -0.0876
 5706POPC   D2A69258   9.581  11.069   5.046  0.3924 -0.3018 -0.1500
 5706POPC   C3A69259   9.450  11.397   5.413 -0.0310  0.1908  0.1186
 5706POPC   C4A69260   9.668  11.665   5.769  0.2551  0.1132  0.2430
 5706POPC   C1B69261   9.247  10.854   4.651 -0.3008  0.1886 -0.2001
 5706POPC   C2B69262   9.072  10.803   5.027  0.0005 -0.0185  0.0221
 5706POPC   C3B69263   9.284  10.910   5.473 -0.1517  0.2132 -0.2908
 5706POPC   C4B69264   9.383  10.727   5.830 -0.0051  0.0488 -0.1382
 5707POPC   NC369265  25.906   4.096   4.060 -0.0298 -0.1016  0.1373
 5707POPC   PO469266  25.558   3.876   4.023  0.3411 -0.3070 -0.2039
 5707POPC   GL169267  25.515   3.839   4.351  0.0649 -0.3689 -0.2105
 5707POPC   GL269268  25.726   3.983   4.486  0.1128 -0.1510 -0.0752
 5707POPC   C1A69269  25.495   3.648   4.765  0.0929 -0.1569 -0.0388
 5707POPC   D2A69270  25.526   3.588   5.198 -0.1657  0.0694  0.2206
 5707POPC   C3A69271  25.613   3.148   5.311 -0.2587 -0.1706  0.2003
 5707POPC   C4A69272  25.920   2.762   5.215 -0.2237  0.2459 -0.4192
 5707POPC   C1B69273  25.668   4.108   4.948  0.0126 -0.2959  0.1853
 5707POPC   C2B69274  25.681   4.130   5.420 -0.3812  0.2015 -0.1610
 5707POPC   C3B69275  25.571   3.812   5.755 -0.1420 -0.1448 -0.1184
 5707POPC   C4B69276  25.734   3.397   5.722 -0.0346 -0.1800  0.1976
 5708POPC   NC369277  16.658   6.516   2.964 -0.0464  0.2371 -0.0586
 5708POPC   PO469278  16.519   6.768   3.253 -0.0493  0.0251  0.3593
 5708POPC   GL169279  16.728   6.729   3.570 -0.1343 -0.2960  0.2400
 5708POPC   GL269280  16.883   6.866   3.793  0.6220 -0.0351 -0.1426
 5708POPC   C1A69281  17.038   6.396   3.747  0.0135 -0.1408 -0.3770
 5708POPC   D2A69282  17.116   6.044   4.062 -0.1112 -0.0530  0.0088
 5708POPC   C3A69283  17.058   5.637   4.248  0.2296 -0.4004  0.0329
 5708POPC   C4A69284  17.292   5.256   4.357  0.2108  0.0868 -0.1251
 5708POPC   C1B69285  17.188   6.733   4.157  0.1236  0.0394 -0.1746
 5708POPC   C2B69286  17.326   6.701   4.575 -0.0377  0.0482  0.1278
 5708POPC   C3B69287  17.395   6.445   4.929  0.1398  0.1224  0.3702
 5708POPC   C4B69288  17.272   6.078   5.100 -0.2465  0.1810 -0.1313
 5709POPC   NC369289  22.935  16.246   4.331  0.4296  0.0572 -0.0807
 5709POPC   PO469290  23.123  16.578   4.201 -0.5023  0.1337  0.2406
 5709POPC   GL169291  23.117  16.728   4.627  0.1218  0.2646 -0.0653
 5709POPC   GL269292  23.297  16.570   4.714 -0.0160 -0.0967  0.3278
 5709POPC   C1A69293  22.968  17.058   4.943 -0.1788  0.2154  0.0073
 5709POPC   D2A69294  23.021  17.362   5.311  0.0195  0.3139  0.1451
 5709POPC   C3A69295  23.189  17.231   5.708 -0.2272  0.0806  0.4730
 5709POPC   C4A69296  23.271  17.056   6.145 -0.1373 -0.0732  0.0567
 5709POPC   C1B69297  23.286  16.515   5.169  0.0467 -0.2462  0.0212
 5709POPC   C2B69298  23.003  16.302   5.511  0.0074 -0.2974  0.1977
 5709POPC   C3B69299  22.825  16.036   5.801 -0.3356  0.1381 -0.2100
 5709POPC   C4B69300  22.814  15.842   6.229 -0.0114  0.1467  0.0397
 5710POPC   NC369301  11.347  22.355   4.059 -0.0585  0.1661  0.0130
 5710POPC   PO469302  11.216  21.991   4.173 -0.3160  0.1063 -0.2324
 5710POPC   GL169303  11.403  22.171   4.489 -0.0218  0.1192  0.0790
 5710POPC   GL269304  11.647  22.049   4.489  0.1706 -0.1488 -0.0286
 5710POPC   C1A69305  11.124  22.180   4.851 -0.0062  0.0573 -0.0118
 5710POPC   D2A69306  11.057  21.914   5.236  0.0099  0.0698  0.0622
 5710POPC   C3A69307  10.787  22.088   5.465  0.0847  0.0676  0.1241
 5710POPC   C4A69308  10.434  22.077   5.830 -0.4397 -0.2316  0.3249
 5710POPC   C1B69309  11.628  21.932   4.920 -0.0589 -0.0225 -0.1723
 5710POPC   C2B69310  11.556  21.717   5.322  0.1747 -0.2232 -0.2620
 5710POPC   C3B69311  11.503  21.560   5.760 -0.1449 -0.2059 -0.2626
 5710POPC   C4B69312  11.220  21.547   6.121 -0.3601  0.0580 -0.0243
 5711POPC   NC369313  10.734  22.482   3.690  0.0633  0.0610  0.1872
 5711POPC   PO469314  10.859  22.457   4.045  0.4738 -0.0169 -0.1295
 5711POPC   GL169315  10.941  22.347   4.430 -0.4032 -0.0078  0.0655
 5711POPC   GL269316  10.811  22.175   4.480  0.1214  0.3496 -0.3530
 5711POPC   C1A69317  11.127  22.652   4.720 -0.2008 -0.1711  0.0748
 5711POPC   D2A69318  11.064  22.891   5.078 -0.2697  0.0177 -0.0145
 5711POPC   C3A69319  10.890  22.845   5.496  0.2130  0.1128 -0.2032
 5711POPC   C4A69320  10.651  22.909   5.831  0.0681 -0.4460 -0.1068
 5711POPC   C1B69321  10.646  22.006   4.902 -0.1128  0.0481  0.2457
 5711POPC   C2B69322  10.484  21.712   5.182  0.1352 -0.0421  0.0172
 5711POPC   C3B69323  10.274  21.360   5.308  0.0563  0.0649  0.1019
 5711POPC   C4B69324   9.988  21.100   5.553 -0.1384 -0.1035 -0.1342
 5712POPC   NC369325  22.844  26.416   3.841  0.0186 -0.3263  0.1141
 5712POPC   PO469326  22.468  26.555   3.809 -0.0548  0.2520  0.2271
 5712POPC   GL169327  22.617  26.700   4.189  0.1755 -0.1845  0.2648
 5712POPC   GL269328  22.878  26.901   4.234  0.0482 -0.1826  0.1854
 5712POPC   C1A69329  22.383  26.782   4.519 -0.1592 -0.0455 -0.1289
 5712POPC   D2A69330  22.290  26.766   4.976 -0.4318 -0.1430 -0.1127
 5712POPC   C3A69331  22.656  26.576   5.174  0.0115  0.2732  0.0572
 5712POPC   C4A69332  22.958  26.304   5.368  0.3387 -0.0427  0.2437
 5712POPC   C1B69333  22.760  27.095   4.653 -0.1053 -0.1761 -0.3644
 5712POPC   C2B69334  22.620  27.080   5.099 -0.0018 -0.0555 -0.0880
 5712POPC   C3B69335  22.387  26.991   5.466  0.1950  0.0803 -0.0359
 5712POPC   C4B69336  22.260  26.763   5.875 -0.2132 -0.1145  0.1435
 5713POPC   NC369337  26.332  13.539   3.390  0.0326 -0.0026  0.0115
 5713POPC   PO469338  25.961  13.628   3.367 -0.0411 -0.2189  0.1428
 5713POPC   GL169339  26.099  13.744   3.756  0.0733 -0.1168  0.5081
 5713POPC   GL269340  26.341  13.916   3.801 -0.1856 -0.1891  0.1530
 5713POPC   C1A69341  26.405  13.416   3.912 -0.2484 -0.3241  0.0782
 5713POPC   D2A69342  26.504  13.378   4.363 -0.2251  0.3300  0.2562
 5713POPC   C3A69343  26.864  13.085   4.477 -0.1375  0.3717  0.1374
 5713POPC   C4A69344  27.201  12.800   4.535  0.4275 -0.0388 -0.0496
 5713POPC   C1B69345  26.339  13.910   4.294 -0.1808  0.1285 -0.0130
 5713POPC   C2B69346  26.350  13.774   4.748  0.0192 -0.0850 -0.0641
 5713POPC   C3B69347  26.522  13.885   5.145 -0.1566  0.2941 -0.2134
 5713POPC   C4B69348  26.755  13.821   5.565 -0.2206 -0.0915 -0.0167
 5714POPC   NC369349  18.209  13.385   3.155 -0.0070 -0.0633 -0.0344
 5714POPC   PO469350  18.620  13.429   3.228 -0.2617  0.0883  0.0646
 5714POPC   GL169351  18.731  13.486   3.671  0.0719 -0.2545  0.4173
 5714POPC   GL269352  18.984  13.546   3.664 -0.1057 -0.1550 -0.0587
 5714POPC   C1A69353  18.784  13.625   4.114  0.3779 -0.1636  0.0031
 5714POPC   D2A69354  19.012  13.446   4.521  0.0156 -0.0573 -0.0525
 5714POPC   C3A69355  18.781  13.647   4.896  0.1153  0.1943  0.2502
 5714POPC   C4A69356  18.574  13.836   5.266 -0.5303  0.1212 -0.0677
 5714POPC   C1B69357  19.263  13.426   4.074  0.5525 -0.0447 -0.1954
 5714POPC   C2B69358  19.488  13.288   4.446 -0.0189  0.1794  0.0188
 5714POPC   C3B69359  19.560  13.231   4.936 -0.0844  0.0848  0.2758
 5714POPC   C4B69360  19.701  13.549   5.203 -0.0042 -0.1234  0.3166
 5715POPC   NC369361   3.081  23.281   3.178  0.1336 -0.0174 -0.3713
 5715POPC   PO469362   2.845  22.953   3.010 -0.0082 -0.2225  0.2909
 5715POPC   GL169363   2.731  22.896   3.431 -0.1928 -0.2051  0.1108
 5715POPC   GL269364   2.786  23.122   3.656  0.0664 -0.2133  0.2414
 5715POPC   C1A69365   2.658  22.599   3.779 -0.1445 -0.3310 -0.4142
 5715POPC   D2A69366   2.584  22.165   3.787 -0.1107  0.0230 -0.1058
 5715POPC   C3A69367   2.566  22.049   4.219 -0.0946  0.3372 -0.1504
 5715POPC   C4A69368   2.723  21.945   4.595 -0.1087 -0.1869  0.1395
 5715POPC   C1B69369   2.813  23.301   4.094  0.1001 -0.1432  0.0507
 5715POPC   C2B69370   2.767  23.688   4.385 -0.0751  0.1912  0.2559
 5715POPC   C3B69371   2.724  23.926   4.797 -0.0053 -0.1416 -0.0691
 5715POPC   C4B69372   2.871  24.033   5.226  0.2668 -0.2631 -0.2091
 5716POPC   NC369373  23.095  10.519   3.389  0.2299  0.0539 -0.1908
 5716POPC   PO469374  23.090  10.138   3.583  0.0275  0.2099 -0.2824
 5716POPC   GL169375  22.947  10.314   3.846 -0.1167 -0.0393 -0.0100
 5716POPC   GL269376  22.714  10.150   3.949 -0.0539 -0.2071  0.2739
 5716POPC   C1A69377  22.864  10.545   4.267 -0.1064 -0.1897  0.1529
 5716POPC   D2A69378  22.769  10.995   4.423 -0.0833  0.2548 -0.0547
 5716POPC   C3A69379  23.194  11.049   4.629  0.2226 -0.2818  0.3680
 5716POPC   C4A69380  23.420  11.462   4.696  0.2954 -0.1967  0.1013
 5716POPC   C1B69381  22.825   9.853   4.291 -0.0202 -0.0886  0.0558
 5716POPC   C2B69382  22.691   9.932   4.744  0.1429 -0.0579 -0.1513
 5716POPC   C3B69383  22.656  10.169   5.117  0.0545 -0.0014  0.1650
 5716POPC   C4B69384  22.965  10.381   5.403  0.1655 -0.1822  0.1383
 5717POPC   NC369385   2.437   4.286   3.811 -0.4059 -0.1176  0.2430
 5717POPC   PO469386   2.589   4.562   4.022 -0.2097  0.0751  0.3145
 5717POPC   GL169387   2.573   4.306   4.340  0.4107 -0.1177  0.1635
 5717POPC   GL269388   2.795   4.268   4.509  0.0902 -0.2093  0.1904
 5717POPC   C1A69389   2.308   4.397   4.676  0.0558 -0.2456 -0.0163
 5717POPC   D2A69390   2.320   4.624   5.049 -0.1627  0.0998  0.2372
 5717POPC   C3A69391   2.609   4.826   5.310  0.0684  0.0890  0.1662
 5717POPC   C4A69392   2.990   4.782   5.554 -0.3465  0.1693  0.0019
 5717POPC   C1B69393   3.142   4.221   4.787  0.2384  0.2172  0.3020
 5717POPC   C2B69394   3.356   4.166   5.113 -0.2556 -0.0573 -0.2169
 5717POPC   C3B69395   3.355   4.090   5.571 -0.0288  0.0830  0.0169
 5717POPC   C4B69396   3.209   3.910   5.971  0.2490  0.1964  0.0987
 5718POPC   NC369397  18.771  24.908   3.841 -0.0267 -0.1874 -0.1118
 5718POPC   PO469398  18.823  25.276   3.988 -0.0525 -0.0570 -0.1811
 5718POPC   GL169399  18.760  25.068   4.349  0.1006 -0.1214  0.1024
 5718POPC   GL269400  18.662  24.727   4.297 -0.0870 -0.2281  0.1262
 5718POPC   C1A69401  18.454  25.073   4.686  0.0182  0.2358  0.4288
 5718POPC   D2A69402  18.010  25.106   4.689  0.3657  0.0207 -0.0671
 5718POPC   C3A69403  17.694  25.019   5.005  0.3441  0.2729  0.0718
 5718POPC   C4A69404  17.676  25.113   5.487  0.0211 -0.0933  0.0138
 5718POPC   C1B69405  18.805  24.324   4.450 -0.0288 -0.2885 -0.3881
 5718POPC   C2B69406  18.553  23.969   4.607 -0.2545  0.1686  0.0191
 5718POPC   C3B69407  18.605  23.484   4.685  0.1443 -0.4087  0.1371
 5718POPC   C4B69408  18.669  23.072   4.862 -0.0740 -0.0934  0.0387
 5719POPC   NC369409   4.856   4.515   3.658  0.2135 -0.1439 -0.1185
 5719POPC   PO469410   5.018   4.871   3.578 -0.1511  0.1877  0.2373
 5719POPC   GL169411   5.036   4.902   3.944  0.0982 -0.5370 -0.1482
 5719POPC   GL269412   4.810   5.127   3.925  0.1068 -0.2424  0.4409
 5719POPC   C1A69413   5.397   4.871   4.309 -0.0750  0.0177 -0.0780
 5719POPC   D2A69414   5.822   5.069   4.418  0.2148  0.3803 -0.2420
 5719POPC   C3A69415   6.148   4.996   4.693  0.0762 -0.4010  0.1404
 5719POPC   C4A69416   6.279   4.847   5.080 -0.1519 -0.0520  0.4486
 5719POPC   C1B69417   4.971   5.208   4.375  0.0997 -0.0714 -0.0579
 5719POPC   C2B69418   4.983   5.206   4.755 -0.0471 -0.0371  0.0643
 5719POPC   C3B69419   5.105   4.935   5.074 -0.0122  0.1786 -0.0580
 5719POPC   C4B69420   5.473   4.991   5.337  0.0734  0.3303  0.0574
 5720POPC   NC369421  29.492   3.284   3.261 -0.2786  0.0624  0.0645
 5720POPC   PO469422  29.124   3.502   3.227  0.2008  0.2498 -0.0161
 5720POPC   GL169423  29.217   3.791   3.359  0.2736  0.1183 -0.1211
 5720POPC   GL269424  29.276   3.680   3.654 -0.1757  0.0954  0.1799
 5720POPC   C1A69425  29.079   4.207   3.538  0.0876  0.0851  0.0823
 5720POPC   D2A69426  28.723   4.418   3.786 -0.0560  0.0236  0.3974
 5720POPC   C3A69427  28.883   4.632   4.133 -0.1815 -0.0076  0.1174
 5720POPC   C4A69428  28.940   4.794   4.601  0.2740 -0.0244 -0.1030
 5720POPC   C1B69429  29.400   3.789   4.062  0.0536 -0.1605 -0.1980
 5720POPC   C2B69430  29.428   3.969   4.493  0.1817  0.1841 -0.0764
 5720POPC   C3B69431  29.450   4.067   4.920 -0.0269 -0.0468 -0.1230
 5720POPC   C4B69432  29.412   4.331   5.342  0.1331  0.0716  0.1439
 5721POPC   NC369433   7.446   5.741   3.962  0.2883  0.5582  0.1948
 5721POPC   PO469434   7.511   6.140   3.984  0.0573  0.0318 -0.1423
 5721POPC   GL169435   7.840   6.265   4.200  0.1472 -0.0704  0.2638
 5721POPC   GL269436   7.836   6.559   4.305  0.0278 -0.0211  0.0267
 5721POPC   C1A69437   7.693   6.267   4.669 -0.1896 -0.0488  0.0170
 5721POPC   D2A69438   7.519   6.249   5.104  0.0319 -0.0680 -0.4181
 5721POPC   C3A69439   7.559   5.753   5.137 -0.0679  0.4523 -0.1817
 5721POPC   C4A69440   7.742   5.389   5.266 -0.0100  0.1009  0.1834
 5721POPC   C1B69441   7.999   6.662   4.762  0.0033 -0.1320 -0.3042
 5721POPC   C2B69442   8.096   6.276   5.030 -0.2095 -0.0627  0.0069
 5721POPC   C3B69443   7.906   6.095   5.391  0.1509 -0.1568 -0.1611
 5721POPC   C4B69444   7.634   5.708   5.609 -0.2797 -0.0711  0.1466
 5722POPC   NC369445  14.153  20.211   3.253  0.1150 -0.1069  0.2857
 5722POPC   PO469446  14.149  20.429   3.564 -0.1791 -0.0220  0.1179
 5722POPC   GL169447  13.989  20.595   3.893  0.5649 -0.0428  0.1522
 5722POPC   GL269448  14.046  20.853   4.066  0.0508  0.0737  0.0152
 5722POPC   C1A69449  13.687  20.359   4.195 -0.2165 -0.4346 -0.1754
 5722POPC   D2A69450  13.504  20.239   4.591 -0.0169 -0.0288 -0.2704
 5722POPC   C3A69451  13.233  19.872   4.688  0.0381  0.2735 -0.0601
 5722POPC   C4A69452  13.044  19.709   5.103  0.0276 -0.2877 -0.0671
 5722POPC   C1B69453  13.825  20.737   4.451 -0.1312 -0.0693 -0.1236
 5722POPC   C2B69454  13.783  20.586   4.924 -0.1248 -0.1190 -0.4134
 5722POPC   C3B69455  13.565  20.605   5.305  0.0765 -0.0073  0.1166
 5722POPC   C4B69456  13.263  20.427   5.601 -0.2654 -0.1975 -0.1697
 5723POPC   NC369457  10.618  18.974   3.266 -0.1184  0.0577  0.0787
 5723POPC   PO469458  10.976  18.736   3.276 -0.0733  0.1179 -0.4121
 5723POPC   GL169459  11.043  18.917   3.659  0.1146 -0.0732 -0.1156
 5723POPC   GL269460  10.840  19.090   3.736  0.1190 -0.2014 -0.0924
 5723POPC   C1A69461  11.392  19.070   3.898 -0.0839  0.0366  0.0587
 5723POPC   D2A69462  11.790  19.101   4.116  0.1028 -0.1510  0.2261
 5723POPC   C3A69463  11.979  19.049   4.495 -0.4553  0.0165  0.1248
 5723POPC   C4A69464  11.891  19.034   4.962  0.0923  0.2127  0.1505
 5723POPC   C1B69465  11.162  19.444   3.752 -0.1821 -0.0831 -0.0257
 5723POPC   C2B69466  11.477  19.602   4.026  0.1204  0.0538 -0.1375
 5723POPC   C3B69467  11.559  19.773   4.390  0.2586  0.4018 -0.0908
 5723POPC   C4B69468  11.310  19.634   4.718 -0.2173 -0.2574 -0.1232
 5724POPC   NC369469  11.106  27.937   3.650  0.2256 -0.3234  0.1726
 5724POPC   PO469470  10.710  27.794   3.773 -0.2503 -0.0497 -0.3314
 5724POPC   GL169471  10.593  27.741   4.181 -0.0597  0.3180  0.3379
 5724POPC   GL269472  10.787  27.852   4.309 -0.2361  0.1359  0.3617
 5724POPC   C1A69473  10.667  27.527   4.608  0.0497  0.0403  0.1014
 5724POPC   D2A69474  10.680  27.309   5.034  0.1281  0.0256 -0.1362
 5724POPC   C3A69475  10.901  27.548   5.393  0.2172  0.0377  0.0470
 5724POPC   C4A69476  10.754  27.695   5.808  0.0622 -0.0456 -0.0875
 5724POPC   C1B69477  10.735  28.055   4.777 -0.0983  0.1400  0.3023
 5724POPC   C2B69478  10.968  28.094   5.129 -0.2022  0.3390 -0.0222
 5724POPC   C3B69479  11.123  27.981   5.552  0.1683  0.0547 -0.0353
 5724POPC   C4B69480  10.901  28.137   5.954  0.0338  0.1172 -0.1795
 5725POPC   NC369481  13.842  22.895   3.911  0.2681 -0.0373  0.4000
 5725POPC   PO469482  13.979  22.545   3.940 -0.1423  0.0251  0.0090
 5725POPC   GL169483  14.098  22.649   4.302 -0.0189  0.2391  0.0643
 5725POPC   GL269484  13.954  22.336   4.404 -0.1333 -0.2866 -0.3528
 5725POPC   C1A69485  14.466  22.714   4.594  0.5423  0.2625  0.1249
 5725POPC   D2A69486  14.669  22.764   4.992  0.0829 -0.2898 -0.0300
 5725POPC   C3A69487  14.957  22.714   5.299  0.0224 -0.2131  0.2180
 5725POPC   C4A69488  15.116  22.494   5.645  0.1100  0.3739  0.0517
 5725POPC   C1B69489  14.092  22.433   4.829 -0.1156  0.1495  0.1516
 5725POPC   C2B69490  14.347  22.340   5.193  0.3355 -0.2620 -0.0197
 5725POPC   C3B69491  14.659  22.101   5.385 -0.1835 -0.0301 -0.0353
 5725POPC   C4B69492  15.044  21.843   5.463 -0.0207  0.0746  0.1066
 5726POPC   NC369493  29.447  24.833   3.657 -0.1314  0.3126  0.0127
 5726POPC   PO469494  29.442  25.143   3.452 -0.0443 -0.0720  0.0220
 5726POPC   GL169495  29.695  25.178   3.742 -0.1699 -0.0627 -0.0956
 5726POPC   GL269496  29.453  25.331   3.907 -0.0537 -0.0088 -0.2189
 5726POPC   C1A69497  29.579  24.885   4.131  0.0357  0.2783  0.1598
 5726POPC   D2A69498  29.441  24.796   4.595  0.1774  0.2009 -0.0367
 5726POPC   C3A69499  29.293  24.596   4.977 -0.0505  0.0502 -0.0881
 5726POPC   C4A69500  29.093  24.251   5.208 -0.1132 -0.1679 -0.0846
 5726POPC   C1B69501  29.346  25.250   4.409  0.1234  0.0378  0.1960
 5726POPC   C2B69502  29.438  25.207   4.822  0.0706  0.3426 -0.1912
 5726POPC   C3B69503  29.459  25.072   5.238 -0.0404 -0.0398 -0.0821
 5726POPC   C4B69504  29.442  25.076   5.725 -0.0241  0.1378  0.0200
 5727POPC   NC369505   0.235   9.291   3.763  0.0042 -0.1168  0.1193
 5727POPC   PO469506   0.103   9.554   3.505  0.2650  0.0427  0.0044
 5727POPC   GL169507  -0.022   9.657   3.836  0.1943 -0.1972 -0.2645
 5727POPC   GL269508  -0.352   9.794   3.894 -0.1516  0.0012  0.2538
 5727POPC   C1A69509  -0.062   9.629   4.309 -0.0349 -0.1062 -0.0465
 5727POPC   D2A69510  -0.287   9.852   4.629 -0.2533 -0.2549 -0.0454
 5727POPC   C3A69511  -0.053  10.045   4.965 -0.0272 -0.3071  0.0483
 5727POPC   C4A69512   0.001  10.266   5.324  0.1394 -0.0780  0.0222
 5727POPC   C1B69513  -0.574  10.071   4.258 -0.1725 -0.1155 -0.1820
 5727POPC   C2B69514  -0.792  10.075   4.687 -0.2426 -0.3738 -0.2276
 5727POPC   C3B69515  -0.606   9.843   5.062 -0.4511 -0.2023  0.2063
 5727POPC   C4B69516  -0.382   9.570   5.350 -0.2968  0.1071  0.1350
 5728POPC   NC369517  25.155  17.380   4.337 -0.0860 -0.0922  0.0918
 5728POPC   PO469518  25.242  17.004   4.249 -0.3883 -0.0862 -0.2182
 5728POPC   GL169519  25.330  16.875   4.596  0.2142 -0.3636  0.0387
 5728POPC   GL269520  25.375  17.174   4.790  0.0330  0.2708 -0.1379
 5728POPC   C1A69521  25.074  16.755   4.964  0.1031 -0.1790 -0.0329
 5728POPC   D2A69522  25.158  16.654   5.409 -0.0388 -0.3221 -0.1133
 5728POPC   C3A69523  25.137  16.519   5.879 -0.2353 -0.0523  0.0286
 5728POPC   C4A69524  25.150  16.524   6.328 -0.2667 -0.2396 -0.1800
 5728POPC   C1B69525  25.413  17.135   5.231 -0.1559  0.1617 -0.0964
 5728POPC   C2B69526  25.409  16.946   5.723 -0.0617  0.0450  0.3196
 5728POPC   C3B69527  25.541  16.957   6.161  0.2258 -0.0729 -0.0521
 5728POPC   C4B69528  25.826  16.932   6.569 -0.0567  0.0228  0.0815
 5729POPC   NC369529  27.586  22.316   3.633  0.3922  0.2857 -0.1134
 5729POPC   PO469530  27.166  22.353   3.693  0.1319 -0.2362  0.2661
 5729POPC   GL169531  27.171  22.275   4.047  0.0094  0.3297 -0.0925
 5729POPC   GL269532  26.983  22.090   4.233  0.0924  0.0009  0.2275
 5729POPC   C1A69533  27.388  22.398   4.429  0.1022  0.2095 -0.0846
 5729POPC   D2A69534  27.262  22.486   4.873 -0.2413  0.1832 -0.0866
 5729POPC   C3A69535  27.505  22.483   5.302 -0.1293 -0.0899  0.0169
 5729POPC   C4A69536  27.590  22.820   5.579  0.1592  0.2089 -0.1639
 5729POPC   C1B69537  26.881  22.344   4.597  0.1854  0.0808  0.0881
 5729POPC   C2B69538  26.770  22.355   5.016 -0.0889 -0.2352 -0.1226
 5729POPC   C3B69539  26.722  22.503   5.457  0.0124  0.1925  0.1928
 5729POPC   C4B69540  26.652  22.855   5.699  0.0641  0.3372  0.4230
 5730POPC   NC369541  18.890  11.288   3.268  0.3035  0.0602 -0.1325
 5730POPC   PO469542  18.736  11.327   3.614 -0.1591  0.1133  0.1055
 5730POPC   GL169543  18.650  11.398   4.025 -0.1399  0.1914  0.0742
 5730POPC   GL269544  18.788  11.202   4.130 -0.0284  0.0213  0.0545
 5730POPC   C1A69545  18.782  11.593   4.442 -0.4482 -0.2652  0.0314
 5730POPC   D2A69546  18.816  11.748   4.887  0.0770  0.4518 -0.0793
 5730POPC   C3A69547  18.815  11.744   5.278 -0.0442  0.1103 -0.3716
 5730POPC   C4A69548  18.841  11.324   5.486 -0.4531 -0.0172  0.1051
 5730POPC   C1B69549  18.757  11.093   4.586 -0.1360  0.2862 -0.0743
 5730POPC   C2B69550  18.650  11.280   5.047 -0.1140 -0.2408 -0.1915
 5730POPC   C3B69551  18.385  11.366   5.359  0.1059 -0.0857  0.1776
 5730POPC   C4B69552  18.052  11.606   5.640  0.1713  0.0198 -0.0056
 5731POPC   NC369553   7.869  14.834   3.729  0.0067 -0.3721 -0.1302
 5731POPC   PO469554   8.125  14.554   3.880  0.0825 -0.1233 -0.1902
 5731POPC   GL169555   7.958  14.593   4.227 -0.2459 -0.2583 -0.3285
 5731POPC   GL269556   7.716  14.768   4.332 -0.1405  0.0080 -0.1087
 5731POPC   C1A69557   8.305  14.856   4.459  0.0861  0.1461 -0.0233
 5731POPC   D2A69558   8.497  15.184   4.763 -0.1938  0.1491  0.1110
 5731POPC   C3A69559   8.325  15.410   5.141  0.2549 -0.0134 -0.0311
 5731POPC   C4A69560   8.106  15.750   5.365  0.0044 -0.2462 -0.0321
 5731POPC   C1B69561   7.952  14.499   4.650  0.1217  0.1056 -0.2371
 5731POPC   C2B69562   8.169  14.369   5.065  0.1395 -0.2836 -0.0959
 5731POPC   C3B69563   8.328  14.514   5.493 -0.1496  0.1652 -0.2952
 5731POPC   C4B69564   8.690  14.397   5.803  0.1807  0.1241  0.0786
 5732POPC   NC369565   6.115  16.982   4.160  0.6147  0.0425  0.0134
 5732POPC   PO469566   6.336  16.651   4.177  0.0518  0.0639  0.0168
 5732POPC   GL169567   6.342  16.688   4.553 -0.1230 -0.2127  0.4359
 5732POPC   GL269568   6.640  16.735   4.692 -0.0509 -0.3338 -0.0665
 5732POPC   C1A69569   6.198  16.855   4.954  0.1506 -0.3212  0.1140
 5732POPC   D2A69570   6.358  16.911   5.363  0.2045  0.1882  0.1478
 5732POPC   C3A69571   6.461  16.711   5.774 -0.1791  0.1651  0.1365
 5732POPC   C4A69572   6.212  16.546   6.138 -0.0433 -0.2337  0.0542
 5732POPC   C1B69573   6.728  16.976   5.058  0.2650 -0.1732  0.0704
 5732POPC   C2B69574   6.818  17.146   5.467  0.1168 -0.2035 -0.2603
 5732POPC   C3B69575   6.989  17.146   5.887 -0.1567  0.2062 -0.3243
 5732POPC   C4B69576   6.922  17.389   6.226  0.0476  0.4542 -0.0670
 5733POPC   NC369577  18.474   7.022   3.779  0.0369 -0.2948 -0.0420
 5733POPC   PO469578  18.144   7.217   3.703  0.1149 -0.1157  0.1359
 5733POPC   GL169579  17.970   7.295   4.062  0.0132 -0.2758  0.0084
 5733POPC   GL269580  18.087   7.048   4.169 -0.0380 -0.1567  0.1772
 5733POPC   C1A69581  17.568   7.260   4.421  0.1143  0.0445  0.0860
 5733POPC   D2A69582  17.173   7.511   4.536 -0.2626  0.0534  0.2158
 5733POPC   C3A69583  17.047   7.497   4.996 -0.2040 -0.0752 -0.2037
 5733POPC   C4A69584  16.763   7.405   5.302 -0.0426  0.3010 -0.0471
 5733POPC   C1B69585  18.257   6.868   4.534  0.2017  0.0705  0.1614
 5733POPC   C2B69586  18.363   6.819   4.999  0.0522  0.1434  0.1624
 5733POPC   C3B69587  18.239   7.213   5.206 -0.4335  0.3623  0.1643
 5733POPC   C4B69588  18.272   7.429   5.549 -0.1269 -0.1917  0.2087
 5734POPC   NC369589   4.557   7.744   4.105 -0.0516  0.0087 -0.1374
 5734POPC   PO469590   4.321   7.509   3.906  0.1254 -0.4549  0.2364
 5734POPC   GL169591   4.169   7.465   4.266 -0.2516  0.1273  0.2556
 5734POPC   GL269592   3.898   7.554   4.151  0.0461 -0.0410  0.1404
 5734POPC   C1A69593   4.293   7.548   4.746  0.2499 -0.1617  0.4043
 5734POPC   D2A69594   4.535   7.773   5.075  0.1073  0.3598  0.1543
 5734POPC   C3A69595   4.313   7.810   5.449  0.0751 -0.1054 -0.2340
 5734POPC   C4A69596   4.501   7.737   5.856 -0.1954 -0.0247  0.1587
 5734POPC   C1B69597   3.786   7.801   4.541  0.3319 -0.1175  0.2116
 5734POPC   C2B69598   3.555   7.780   4.980 -0.1312  0.5086 -0.0860
 5734POPC   C3B69599   3.677   7.572   5.400 -0.3599 -0.3151  0.1028
 5734POPC   C4B69600   4.074   7.519   5.752 -0.3021 -0.3599  0.0226
 5735POPC   NC369601   6.390   1.107   3.972 -0.1199  0.1010 -0.0509
 5735POPC   PO469602   6.235   1.451   3.883  0.1230  0.0771  0.0724
 5735POPC   GL169603   6.105   1.424   4.202  0.1770 -0.2271 -0.3410
 5735POPC   GL269604   5.986   1.181   4.277 -0.0934 -0.0614 -0.1560
 5735POPC   C1A69605   6.177   1.502   4.652 -0.0586 -0.2323  0.2907
 5735POPC   D2A69606   6.061   1.496   5.082 -0.1317  0.2803 -0.4036
 5735POPC   C3A69607   6.280   1.654   5.407  0.3066  0.1647 -0.1537
 5735POPC   C4A69608   6.335   1.447   5.793 -0.0786  0.0749 -0.2185
 5735POPC   C1B69609   5.976   0.933   4.707  0.2398  0.1862  0.1839
 5735POPC   C2B69610   5.955   0.785   5.144  0.3887  0.0028 -0.1059
 5735POPC   C3B69611   5.709   0.809   5.583  0.1198  0.1649 -0.0714
 5735POPC   C4B69612   5.626   1.188   5.902 -0.2608  0.1836  0.0279
 5736POPC   NC369613  23.169   5.773   3.429 -0.1721 -0.3037  0.2624
 5736POPC   PO469614  23.066   5.894   3.775 -0.1045 -0.0191 -0.1506
 5736POPC   GL169615  22.984   5.486   4.066  0.3105  0.0206  0.0207
 5736POPC   GL269616  23.216   5.448   4.229  0.0390 -0.1682  0.1808
 5736POPC   C1A69617  22.636   5.366   4.358  0.1140 -0.1268 -0.0581
 5736POPC   D2A69618  22.455   5.398   4.770  0.2692  0.1068 -0.1913
 5736POPC   C3A69619  22.016   5.366   4.770 -0.0253  0.0048  0.2680
 5736POPC   C4A69620  21.701   5.096   4.552  0.3626 -0.3421 -0.0890
 5736POPC   C1B69621  23.128   5.208   4.659 -0.0091  0.2015  0.0523
 5736POPC   C2B69622  22.876   5.158   5.051  0.0775 -0.2641  0.0050
 5736POPC   C3B69623  22.863   5.211   5.460  0.0065 -0.2372 -0.1518
 5736POPC   C4B69624  22.736   5.370   5.901  0.1545  0.3891 -0.2485
 5737POPC   NC369625  21.007  20.253   3.746 -0.1240  0.1787  0.1313
 5737POPC   PO469626  21.129  20.167   3.355  0.1397 -0.0552  0.0164
 5737POPC   GL169627  21.196  19.834   3.531  0.3518  0.2964 -0.3321
 5737POPC   GL269628  20.972  19.743   3.649 -0.3183  0.2127  0.0772
 5737POPC   C1A69629  21.378  19.453   3.353  0.1620  0.0985  0.1323
 5737POPC   D2A69630  21.173  19.011   3.365 -0.0525  0.0777  0.0502
 5737POPC   C3A69631  21.069  18.658   3.618 -0.0775  0.0577  0.0865
 5737POPC   C4A69632  21.141  18.366   3.989  0.2605 -0.0675 -0.2120
 5737POPC   C1B69633  20.901  19.537   4.085 -0.0143  0.1114  0.1027
 5737POPC   C2B69634  20.776  19.175   4.293 -0.0171  0.0870  0.1431
 5737POPC   C3B69635  20.527  18.874   4.469 -0.0718 -0.1752  0.1777
 5737POPC   C4B69636  20.558  18.638   4.871  0.1412 -0.1693 -0.0186
 5738POPC   NC369637  10.763  30.984   3.780  0.0028 -0.1528  0.1558
 5738POPC   PO469638  10.998  30.716   3.755  0.2169  0.3122 -0.2899
 5738POPC   GL169639  11.060  30.775   4.144 -0.1491 -0.0373  0.0040
 5738POPC   GL269640  11.231  30.598   4.249 -0.0809 -0.1157 -0.1753
 5738POPC   C1A69641  10.904  30.818   4.572  0.2259  0.1264 -0.3242
 5738POPC   D2A69642  10.858  30.778   5.074 -0.1579  0.1666  0.1601
 5738POPC   C3A69643  10.780  30.413   5.342  0.3693 -0.0710 -0.4379
 5738POPC   C4A69644  10.858  30.065   5.596 -0.1933  0.2587 -0.2945
 5738POPC   C1B69645  11.137  30.376   4.616  0.2692  0.0546  0.0742
 5738POPC   C2B69646  11.132  30.265   5.095 -0.0587 -0.3307  0.0148
 5738POPC   C3B69647  11.222  30.550   5.478 -0.0090 -0.1207 -0.1439
 5738POPC   C4B69648  11.609  30.585   5.736  0.1817 -0.1850  0.1726
 5739POPC   NC369649   2.007   1.293   3.059  0.0485 -0.1375  0.2476
 5739POPC   PO469650   1.761   1.489   3.322  0.0426  0.2005  0.0702
 5739POPC   GL169651   1.854   1.446   3.748 -0.3568  0.0242  0.0472
 5739POPC   GL269652   2.123   1.577   3.852  0.0373 -0.1466 -0.1438
 5739POPC   C1A69653   1.770   1.249   4.148 -0.0510  0.1066  0.0908
 5739POPC   D2A69654   1.762   1.287   4.611  0.0627 -0.2040  0.4034
 5739POPC   C3A69655   1.742   0.961   5.013  0.0858  0.0270  0.1473
 5739POPC   C4A69656   1.888   0.637   5.242  0.0336 -0.1682 -0.0987
 5739POPC   C1B69657   2.176   1.513   4.287 -0.3964 -0.0754  0.1255
 5739POPC   C2B69658   2.176   1.121   4.570  0.0645  0.4275  0.3646
 5739POPC   C3B69659   1.846   0.772   4.507 -0.1074 -0.3078 -0.3040
 5739POPC   C4B69660   1.598   0.705   4.114 -0.1710  0.0326  0.1797
 5740POPC   NC369661  16.869  14.807   3.826 -0.2384  0.0232 -0.0669
 5740POPC   PO469662  16.643  15.119   3.899 -0.0353  0.1945 -0.5040
 5740POPC   GL169663  16.475  15.287   4.242  0.0574 -0.0319 -0.0028
 5740POPC   GL269664  16.453  15.014   4.348 -0.2633 -0.2451 -0.0017
 5740POPC   C1A69665  16.654  15.393   4.688 -0.0730 -0.0707 -0.2415
 5740POPC   D2A69666  16.879  15.362   5.132 -0.0033 -0.0485 -0.0267
 5740POPC   C3A69667  17.144  15.110   5.437 -0.2239 -0.2421  0.0360
 5740POPC   C4A69668  17.562  14.967   5.497 -0.0362  0.1684 -0.1723
 5740POPC   C1B69669  16.388  14.944   4.776  0.0575  0.0416  0.3900
 5740POPC   C2B69670  16.308  14.674   5.116  0.1051  0.3460 -0.1278
 5740POPC   C3B69671  16.327  14.633   5.533 -0.0230  0.0421  0.0580
 5740POPC   C4B69672  16.322  14.647   6.005 -0.1462  0.3812  0.1121
 5741POPC   NC369673  25.874  29.482   4.076  0.0760  0.1060  0.2889
 5741POPC   PO469674  25.834  29.118   3.891  0.2660 -0.1588 -0.0227
 5741POPC   GL169675  26.148  29.128   4.223  0.2311  0.0629  0.0978
 5741POPC   GL269676  25.925  28.967   4.363  0.3053  0.3493  0.1288
 5741POPC   C1A69677  26.068  29.425   4.536  0.1057 -0.0109 -0.0436
 5741POPC   D2A69678  25.990  29.414   4.970 -0.3913 -0.0006  0.0078
 5741POPC   C3A69679  26.216  29.575   5.339 -0.3008  0.3044 -0.1810
 5741POPC   C4A69680  26.380  29.618   5.760  0.1178  0.2361  0.1669
 5741POPC   C1B69681  26.112  28.955   4.734 -0.0894 -0.0174 -0.0186
 5741POPC   C2B69682  26.192  29.020   5.193 -0.0218  0.1206 -0.1834
 5741POPC   C3B69683  26.239  28.799   5.628 -0.0475  0.1720 -0.1271
 5741POPC   C4B69684  26.317  28.767   6.098 -0.1179 -0.0222  0.1765
 5742POPC   NC369685   8.398   4.741   3.299  0.1807 -0.1783 -0.0594
 5742POPC   PO469686   8.508   4.369   3.394  0.2629  0.0618 -0.0222
 5742POPC   GL169687   8.712   4.277   3.650 -0.1200  0.2364 -0.0334
 5742POPC   GL269688   8.575   4.146   3.956  0.0316  0.0406  0.0699
 5742POPC   C1A69689   9.111   4.256   3.866 -0.2434  0.1651 -0.0976
 5742POPC   D2A69690   9.431   4.224   4.166  0.1550 -0.0757 -0.0506
 5742POPC   C3A69691   9.509   4.535   4.497 -0.0861  0.1024  0.1386
 5742POPC   C4A69692   9.274   4.600   4.907  0.2494  0.0543  0.1415
 5742POPC   C1B69693   8.620   3.991   4.419  0.1588  0.0559 -0.0807
 5742POPC   C2B69694   8.472   4.149   4.844  0.1902  0.0064 -0.0188
 5742POPC   C3B69695   8.588   4.331   5.267 -0.0840 -0.0888 -0.0350
 5742POPC   C4B69696   8.565   4.639   5.629  0.2079  0.0027  0.2192
 5743POPC   NC369697   4.909  19.284   3.762  0.3549  0.4375  0.0333
 5743POPC   PO469698   5.220  19.410   3.613  0.2242 -0.1069  0.1109
 5743POPC   GL169699   5.373  19.335   3.933  0.1276  0.0648  0.1232
 5743POPC   GL269700   5.376  19.204   4.122  0.0116 -0.0416 -0.4285
 5743POPC   C1A69701   5.267  19.661   4.283 -0.1458  0.0932 -0.0679
 5743POPC   D2A69702   5.089  19.905   4.584  0.0483  0.0315  0.0348
 5743POPC   C3A69703   5.184  19.771   4.990 -0.2301 -0.1817  0.3421
 5743POPC   C4A69704   5.123  19.631   5.420  0.0660 -0.0168  0.1684
 5743POPC   C1B69705   5.385  18.915   4.466 -0.0443  0.2310 -0.0523
 5743POPC   C2B69706   5.353  18.710   4.863 -0.1558 -0.0580 -0.2520
 5743POPC   C3B69707   5.336  18.257   5.001  0.0239  0.1504 -0.1082
 5743POPC   C4B69708   5.305  17.891   5.328 -0.0502  0.5443 -0.2876
 5744POPC   NC369709   6.875  15.163   3.894  0.0805 -0.1823  0.1033
 5744POPC   PO469710   7.153  15.369   4.162 -0.0024 -0.0807 -0.1029
 5744POPC   GL169711   7.139  15.323   4.565  0.0123  0.0284  0.3674
 5744POPC   GL269712   6.823  15.279   4.497 -0.0857  0.2277 -0.1251
 5744POPC   C1A69713   7.279  15.338   5.047  0.0056 -0.0407  0.2421
 5744POPC   D2A69714   7.432  15.068   5.409  0.1661 -0.1833 -0.1466
 5744POPC   C3A69715   7.501  14.671   5.595 -0.1785 -0.1812 -0.0703
 5744POPC   C4A69716   7.609  14.563   6.054 -0.1120 -0.3598 -0.0783
 5744POPC   C1B69717   6.461  15.146   4.763 -0.0535  0.3979 -0.0705
 5744POPC   C2B69718   6.449  15.022   5.182  0.1414  0.0130 -0.3346
 5744POPC   C3B69719   6.394  15.194   5.634 -0.0264  0.1188  0.1540
 5744POPC   C4B69720   6.676  15.457   5.864  0.2691 -0.2780 -0.0706
 5745POPC   NC369721  31.153   2.975   4.123  0.1120 -0.3428 -0.0933
 5745POPC   PO469722  30.908   3.181   3.846  0.1778 -0.0678  0.0706
 5745POPC   GL169723  31.051   3.426   4.153  0.1902 -0.1703 -0.0346
 5745POPC   GL269724  30.717   3.531   4.167 -0.1323 -0.0559 -0.0690
 5745POPC   C1A69725  31.079   3.501   4.608 -0.1973  0.0746  0.1228
 5745POPC   D2A69726  30.894   3.422   5.022  0.0402 -0.2868 -0.1450
 5745POPC   C3A69727  30.590   3.689   5.145  0.1858  0.0215 -0.2017
 5745POPC   C4A69728  30.218   3.928   5.302 -0.0605  0.2329  0.0238
 5745POPC   C1B69729  30.504   3.904   4.444 -0.0758  0.0561 -0.0630
 5745POPC   C2B69730  30.431   4.243   4.796 -0.1602 -0.0186 -0.2362
 5745POPC   C3B69731  30.282   4.432   5.139  0.2332 -0.1433  0.0292
 5745POPC   C4B69732  30.247   4.584   5.550 -0.2955  0.0539  0.0571
 5746POPC   NC369733   1.666  10.956   3.675  0.0036  0.2536  0.0080
 5746POPC   PO469734   1.723  10.649   3.888 -0.2834  0.0901  0.1002
 5746POPC   GL169735   1.776  10.695   4.307 -0.0202  0.2149  0.0778
 5746POPC   GL269736   1.992  10.488   4.326 -0.0355  0.2871  0.1410
 5746POPC   C1A69737   1.799  10.817   4.790  0.1795 -0.1452  0.0960
 5746POPC   D2A69738   1.953  10.770   5.208  0.0972 -0.1258 -0.2996
 5746POPC   C3A69739   2.341  10.867   5.383 -0.0344 -0.1223  0.0577
 5746POPC   C4A69740   2.835  10.777   5.404  0.4433  0.0370 -0.5091
 5746POPC   C1B69741   2.052  10.368   4.770  0.0235  0.1341  0.2613
 5746POPC   C2B69742   1.904  10.283   5.233 -0.1886  0.0308  0.0449
 5746POPC   C3B69743   1.598  10.139   5.510  0.1231  0.0194  0.2079
 5746POPC   C4B69744   1.165  10.014   5.603  0.2270  0.1196 -0.1523
 5747POPC   NC369745  15.180  14.799   3.398 -0.1684 -0.3034 -0.2346
 5747POPC   PO469746  14.892  15.038   3.317  0.0269 -0.2217  0.1342
 5747POPC   GL169747  15.056  15.213   3.698  0.1980  0.3845  0.1804
 5747POPC   GL269748  14.846  15.096   3.813  0.0485  0.1762 -0.1720
 5747POPC   C1A69749  14.952  15.550   3.970 -0.0580 -0.1838  0.1516
 5747POPC   D2A69750  14.859  15.957   4.133 -0.1043 -0.1286 -0.6160
 5747POPC   C3A69751  14.875  16.022   4.607 -0.1587  0.0613  0.1394
 5747POPC   C4A69752  14.952  15.990   5.058  0.1599  0.0364  0.0159
 5747POPC   C1B69753  14.719  15.063   4.260 -0.0129  0.1212 -0.1585
 5747POPC   C2B69754  14.432  15.182   4.621  0.1012 -0.0021  0.1605
 5747POPC   C3B69755  14.108  15.506   4.594 -0.0882 -0.0901 -0.0688
 5747POPC   C4B69756  13.677  15.549   4.634 -0.0165  0.1932 -0.1685
 5748POPC   NC369757  27.636   3.753   3.511  0.1135  0.0400  0.0983
 5748POPC   PO469758  27.496   3.399   3.494  0.1466  0.2590  0.2000
 5748POPC   GL169759  27.461   3.606   4.005 -0.0121  0.0091  0.3228
 5748POPC   GL269760  27.438   3.913   4.041 -0.4534  0.2278  0.2593
 5748POPC   C1A69761  27.395   3.483   4.464  0.2545 -0.0514  0.4515
 5748POPC   D2A69762  27.582   3.220   4.822 -0.1960  0.1978  0.1174
 5748POPC   C3A69763  27.991   3.313   5.064  0.0397 -0.1620 -0.0591
 5748POPC   C4A69764  27.865   3.380   5.488 -0.0545  0.1370 -0.0789
 5748POPC   C1B69765  27.627   4.056   4.458 -0.1653 -0.0613  0.2192
 5748POPC   C2B69766  27.606   4.138   4.890  0.1129  0.2416 -0.0235
 5748POPC   C3B69767  27.499   4.531   5.071 -0.1531 -0.0241  0.1859
 5748POPC   C4B69768  27.202   4.856   4.924  0.0417  0.2059  0.1897
 5749POPC   NC369769  21.374  13.147   3.583 -0.2706 -0.0479 -0.1616
 5749POPC   PO469770  21.690  12.940   3.666  0.0194 -0.2618 -0.3518
 5749POPC   GL169771  21.602  13.203   3.971 -0.2724 -0.0285 -0.0571
 5749POPC   GL269772  21.770  13.357   4.085  0.1996 -0.1476  0.2432
 5749POPC   C1A69773  21.517  13.052   4.448 -0.0291 -0.0294  0.0274
 5749POPC   D2A69774  21.786  12.800   4.660  0.1487 -0.0914  0.0275
 5749POPC   C3A69775  21.748  12.869   5.123 -0.1919 -0.0555 -0.0710
 5749POPC   C4A69776  21.438  13.155   5.383 -0.2718 -0.1723  0.1308
 5749POPC   C1B69777  21.528  13.514   4.445 -0.0849 -0.0204 -0.0210
 5749POPC   C2B69778  21.332  13.808   4.768  0.2162  0.1757  0.1613
 5749POPC   C3B69779  21.035  14.082   4.919 -0.0722 -0.0959 -0.0143
 5749POPC   C4B69780  21.071  14.324   5.344 -0.1095  0.0119  0.0545
 5750POPC   NC369781  16.646  16.106   4.286  0.2160  0.0168 -0.0980
 5750POPC   PO469782  16.934  16.030   4.014 -0.4947  0.0946  0.3904
 5750POPC   GL169783  17.094  15.848   4.350  0.1652  0.1373 -0.0878
 5750POPC   GL269784  17.086  16.090   4.505  0.0803  0.2781 -0.0084
 5750POPC   C1A69785  17.093  15.638   4.793  0.0615  0.1896 -0.1163
 5750POPC   D2A69786  17.280  15.720   5.169  0.0626 -0.1495  0.0475
 5750POPC   C3A69787  17.050  15.952   5.531 -0.0007  0.2354  0.0209
 5750POPC   C4A69788  17.113  15.888   5.978  0.1476 -0.1088  0.0245
 5750POPC   C1B69789  16.790  16.286   4.811  0.1091  0.1118  0.1116
 5750POPC   C2B69790  16.388  16.205   5.117  0.0314 -0.0975 -0.2963
 5750POPC   C3B69791  16.108  15.956   5.382  0.2912  0.3574 -0.1804
 5750POPC   C4B69792  15.783  15.549   5.303 -0.0843  0.0220 -0.0797
 5751POPC   NC369793  12.213  15.480   3.280  0.0438 -0.2280  0.1589
 5751POPC   PO469794  12.154  15.181   3.556  0.0868  0.3762  0.0611
 5751POPC   GL169795  12.278  15.366   3.804  0.1190 -0.1452 -0.0375
 5751POPC   GL269796  12.212  15.665   3.788  0.1741 -0.1876 -0.1641
 5751POPC   C1A69797  12.485  15.185   4.164  0.2371 -0.2482 -0.0970
 5751POPC   D2A69798  12.445  14.765   4.310 -0.0566 -0.2169 -0.0980
 5751POPC   C3A69799  12.336  14.747   4.763  0.0323  0.0770 -0.2410
 5751POPC   C4A69800  12.351  14.673   5.164  0.2485  0.0093  0.2665
 5751POPC   C1B69801  12.276  15.631   4.242  0.4872  0.1795  0.6347
 5751POPC   C2B69802  12.402  15.384   4.643  0.2842 -0.1138 -0.0073
 5751POPC   C3B69803  12.377  15.230   5.057  0.0158  0.1628  0.4220
 5751POPC   C4B69804  11.979  15.312   5.376  0.0005  0.1825 -0.3224
 5752POPC   NC369805   1.941  10.202   3.611  0.0336  0.2156  0.0788
 5752POPC   PO469806   2.295  10.058   3.643  0.0809 -0.0537 -0.0404
 5752POPC   GL169807   2.063  10.026   4.024 -0.2228 -0.2432  0.0146
 5752POPC   GL269808   1.979   9.757   3.970 -0.0912 -0.2002 -0.1100
 5752POPC   C1A69809   1.825   9.948   4.425  0.3192 -0.1137  0.1880
 5752POPC   D2A69810   1.750   9.964   4.866 -0.1489  0.1610  0.1241
 5752POPC   C3A69811   1.829   9.748   5.246 -0.1620  0.0159  0.0691
 5752POPC   C4A69812   2.133   9.429   5.418  0.1061  0.1476 -0.0205
 5752POPC   C1B69813   1.962   9.502   4.396 -0.1601 -0.3320  0.3329
 5752POPC   C2B69814   2.033   9.429   4.862 -0.1206 -0.2641 -0.1299
 5752POPC   C3B69815   1.734   9.295   5.127 -0.1637 -0.1310  0.1457
 5752POPC   C4B69816   1.280   9.146   5.219  0.1044 -0.0122 -0.2273
 5753POPC   NC369817   8.437  13.164   3.701  0.0329 -0.2234  0.0393
 5753POPC   PO469818   8.238  13.512   3.714  0.0286 -0.0315 -0.4185
 5753POPC   GL169819   8.269  13.334   4.098 -0.2364  0.0393 -0.0027
 5753POPC   GL269820   8.029  13.191   4.031 -0.1716 -0.0169 -0.2397
 5753POPC   C1A69821   8.601  13.244   4.400 -0.1962 -0.0301 -0.3295
 5753POPC   D2A69822   8.640  13.015   4.897 -0.1294  0.2631 -0.0199
 5753POPC   C3A69823   8.249  12.749   4.919 -0.2148 -0.1146  0.0350
 5753POPC   C4A69824   8.204  12.389   5.225  0.2600 -0.1758 -0.2118
 5753POPC   C1B69825   7.787  13.205   4.381 -0.2949  0.2838  0.1887
 5753POPC   C2B69826   7.659  13.050   4.802 -0.1562 -0.0826  0.1546
 5753POPC   C3B69827   7.572  13.267   5.118  0.0528 -0.3355  0.2462
 5753POPC   C4B69828   7.921  13.422   5.297 -0.0411 -0.2316 -0.2679
 5754POPC   NC369829  27.169   0.933   3.524  0.2003 -0.2838  0.0614
 5754POPC   PO469830  27.053   1.218   3.738  0.0945  0.3687 -0.1213
 5754POPC   GL169831  27.179   0.943   4.049  0.0037  0.1020 -0.3243
 5754POPC   GL269832  27.196   1.184   4.243 -0.0657  0.1552 -0.2756
 5754POPC   C1A69833  27.088   0.734   4.458  0.0666 -0.2239 -0.1820
 5754POPC   D2A69834  27.293   0.565   4.844 -0.0300  0.0426 -0.0127
 5754POPC   C3A69835  27.741   0.582   4.982  0.0155 -0.1661  0.0638
 5754POPC   C4A69836  27.916   0.991   5.082  0.1846  0.0917  0.1235
 5754POPC   C1B69837  27.178   1.429   4.656  0.1750 -0.1699 -0.0290
 5754POPC   C2B69838  27.286   1.659   5.069 -0.1913 -0.0373 -0.1465
 5754POPC   C3B69839  27.253   1.594   5.530 -0.1030  0.1951 -0.3292
 5754POPC   C4B69840  27.002   1.754   5.862  0.0423 -0.0290 -0.0953
 5755POPC   NC369841  23.429   9.843   3.741 -0.2965 -0.1586 -0.2420
 5755POPC   PO469842  23.437   9.464   3.730  0.0628  0.3174  0.0757
 5755POPC   GL169843  23.556   9.406   4.138 -0.0804  0.1743  0.3806
 5755POPC   GL269844  23.323   9.514   4.208 -0.3238  0.2701  0.1265
 5755POPC   C1A69845  23.815   9.643   4.395 -0.3142  0.4170 -0.2201
 5755POPC   D2A69846  24.215   9.895   4.326 -0.2269  0.0092  0.2072
 5755POPC   C3A69847  24.477  10.161   4.606  0.2035  0.1542  0.0173
 5755POPC   C4A69848  24.853  10.358   4.786 -0.0099  0.0460 -0.0992
 5755POPC   C1B69849  23.475   9.411   4.643 -0.3676  0.0716  0.0360
 5755POPC   C2B69850  23.501   9.430   5.113  0.2351 -0.5212  0.2716
 5755POPC   C3B69851  23.732   9.468   5.470  0.0208  0.1201  0.0680
 5755POPC   C4B69852  23.834   9.687   5.932  0.0498  0.3159  0.1930
 5756POPC   NC369853  29.779   8.664   3.532  0.0405 -0.5506 -0.0534
 5756POPC   PO469854  30.044   8.893   3.652 -0.1682 -0.0285  0.1767
 5756POPC   GL169855  30.376   8.963   3.758 -0.0513 -0.0101  0.0577
 5756POPC   GL269856  30.349   9.221   3.821  0.4404  0.0754  0.2109
 5756POPC   C1A69857  30.412   8.938   4.222  0.0607 -0.2708 -0.2237
 5756POPC   D2A69858  30.689   9.159   4.522  0.1950 -0.0122  0.0831
 5756POPC   C3A69859  30.664   9.244   5.015  0.4072  0.0219 -0.1376
 5756POPC   C4A69860  30.844   9.414   5.406  0.0864 -0.0031 -0.3119
 5756POPC   C1B69861  30.552   9.452   4.157 -0.2007  0.2422  0.1495
 5756POPC   C2B69862  30.651   9.654   4.638 -0.0206  0.2399 -0.3277
 5756POPC   C3B69863  30.630   9.800   5.098  0.2537  0.2023  0.1123
 5756POPC   C4B69864  30.414  10.006   5.423 -0.1831 -0.2967 -0.3009
 5757POPC   NC369865   9.079  20.834   3.924 -0.3383 -0.0004  0.2607
 5757POPC   PO469866   9.456  20.671   3.963 -0.3182  0.3155 -0.1203
 5757POPC   GL169867   9.365  20.597   4.296 -0.0996 -0.0194  0.2040
 5757POPC   GL269868   9.175  20.456   4.290  0.2179  0.2205  0.3511
 5757POPC   C1A69869   9.309  20.500   4.736 -0.2063  0.0265  0.0102
 5757POPC   D2A69870   9.353  20.295   5.184  0.4342  0.0712 -0.2388
 5757POPC   C3A69871   9.159  20.529   5.536  0.3066  0.1206 -0.1032
 5757POPC   C4A69872   8.786  20.803   5.626  0.3546 -0.0370  0.4001
 5757POPC   C1B69873   8.889  20.189   4.570  0.0442 -0.2343  0.0319
 5757POPC   C2B69874   9.002  19.948   4.920  0.0023 -0.0539  0.2892
 5757POPC   C3B69875   9.146  19.782   5.280 -0.1736 -0.0422  0.0756
 5757POPC   C4B69876   9.004  19.799   5.718 -0.4776  0.5477  0.2043
 5758POPC   NC369877  25.507  27.248   3.997  0.2768  0.0623  0.3317
 5758POPC   PO469878  25.173  27.062   3.874  0.1570 -0.0787 -0.0119
 5758POPC   GL169879  25.120  26.700   4.066  0.1275  0.0343 -0.2910
 5758POPC   GL269880  25.326  26.865   4.295 -0.4160  0.3304  0.2229
 5758POPC   C1A69881  25.165  26.450   4.472 -0.0648  0.0399 -0.2228
 5758POPC   D2A69882  25.385  26.155   4.740  0.1036  0.0619  0.0140
 5758POPC   C3A69883  25.385  26.108   5.228  0.0251  0.4491  0.3430
 5758POPC   C4A69884  25.220  26.384   5.487  0.5522 -0.2032 -0.1703
 5758POPC   C1B69885  25.721  27.078   4.442  0.1975 -0.0816  0.1508
 5758POPC   C2B69886  25.940  27.015   4.847  0.0892  0.0050  0.0357
 5758POPC   C3B69887  25.695  27.077   5.226 -0.0695 -0.0461  0.1901
 5758POPC   C4B69888  25.747  27.296   5.651  0.0239 -0.1668  0.0452
 5759POPC   NC369889  19.319  16.574   4.037 -0.0557 -0.0907  0.0409
 5759POPC   PO469890  19.562  16.771   3.864 -0.0027  0.1030  0.2118
 5759POPC   GL169891  19.831  16.753   4.084 -0.3800  0.2349  0.1588
 5759POPC   GL269892  19.753  16.636   4.294  0.0676 -0.1170 -0.1925
 5759POPC   C1A69893  20.215  16.852   3.889 -0.0181  0.2021  0.1415
 5759POPC   D2A69894  20.628  17.008   4.008  0.1002  0.0540  0.0262
 5759POPC   C3A69895  20.948  16.810   3.840 -0.1466  0.0399 -0.1370
 5759POPC   C4A69896  21.008  16.515   3.511  0.1540  0.0716 -0.0223
 5759POPC   C1B69897  20.049  16.641   4.691 -0.0590 -0.0773  0.0981
 5759POPC   C2B69898  20.027  16.536   5.145 -0.0670  0.2520 -0.1848
 5759POPC   C3B69899  19.961  16.564   5.596  0.0401  0.1695 -0.1648
 5759POPC   C4B69900  20.151  16.409   5.946 -0.1968 -0.3644 -0.2421
 5760POPC   NC369901  30.462  26.811   3.841 -0.0202 -0.2655 -0.2572
 5760POPC   PO469902  30.314  27.172   3.739 -0.4227  0.1729  0.1247
 5760POPC   GL169903  30.303  27.043   4.177 -0.0435 -0.0858  0.0856
 5760POPC   GL269904  30.194  27.268   4.320 -0.2175  0.0522 -0.1170
 5760POPC   C1A69905  29.930  26.841   4.464  0.0351 -0.1656  0.2178
 5760POPC   D2A69906  29.702  26.565   4.744 -0.1258 -0.3898 -0.1735
 5760POPC   C3A69907  29.979  26.452   5.075  0.0947  0.2722 -0.0975
 5760POPC   C4A69908  29.986  26.244   5.493 -0.0805  0.0367 -0.0666
 5760POPC   C1B69909  30.200  27.207   4.750  0.2052  0.3527  0.0488
 5760POPC   C2B69910  30.156  27.196   5.235 -0.0309  0.0046  0.0393
 5760POPC   C3B69911  30.266  27.115   5.672  0.2699  0.1879 -0.3962
 5760POPC   C4B69912  30.166  26.996   6.127  0.2029 -0.2118 -0.1445
 5761POPC   NC369913  11.686  20.249   2.807 -0.1670  0.0171 -0.1580
 5761POPC   PO469914  11.703  20.223   3.179  0.1485 -0.1932  0.0253
 5761POPC   GL169915  11.840  20.221   3.667  0.5409  0.3339  0.2802
 5761POPC   GL269916  12.140  20.259   3.732 -0.2062 -0.1265 -0.0176
 5761POPC   C1A69917  11.858  20.113   4.119 -0.2622  0.1286 -0.2257
 5761POPC   D2A69918  11.846  20.128   4.567  0.0407  0.0455 -0.2045
 5761POPC   C3A69919  11.591  20.007   4.872  0.1251 -0.0595 -0.1662
 5761POPC   C4A69920  11.408  19.821   5.225 -0.0384  0.1643  0.2018
 5761POPC   C1B69921  12.131  19.802   3.887  0.0845  0.0348 -0.0869
 5761POPC   C2B69922  11.992  19.553   4.238  0.1285 -0.2911  0.0062
 5761POPC   C3B69923  11.915  19.574   4.708 -0.2922  0.0302 -0.1860
 5761POPC   C4B69924  11.937  19.565   5.184  0.1380 -0.0816 -0.2004
 5762POPC   NC369925  31.121  28.056   4.272  0.3825 -0.1134  0.0606
 5762POPC   PO469926  31.412  27.805   4.289 -0.0399  0.2183 -0.3806
 5762POPC   GL169927  31.424  27.971   4.666 -0.2840 -0.2834 -0.1433
 5762POPC   GL269928  31.280  28.133   4.752  0.2014  0.1650 -0.3920
 5762POPC   C1A69929  31.609  28.032   5.118 -0.2091 -0.1406 -0.0815
 5762POPC   D2A69930  31.760  28.238   5.528 -0.0580 -0.3077 -0.1020
 5762POPC   C3A69931  31.572  28.580   5.809 -0.1176  0.1910  0.6386
 5762POPC   C4A69932  31.620  28.850   6.202 -0.0285 -0.0128 -0.0787
 5762POPC   C1B69933  31.121  27.875   5.120 -0.3528  0.2684 -0.1411
 5762POPC   C2B69934  30.855  27.572   5.335  0.0441  0.2150 -0.1647
 5762POPC   C3B69935  30.534  27.529   5.704  0.3380  0.0753  0.1623
 5762POPC   C4B69936  30.199  27.522   6.001 -0.1663  0.1622 -0.0765
 5763POPC   NC369937  18.253  26.051   4.590  0.5660  0.1640 -0.0837
 5763POPC   PO469938  18.271  25.906   4.222 -0.0929 -0.0667 -0.1622
 5763POPC   GL169939  18.550  25.757   4.431  0.3318  0.0436 -0.1906
 5763POPC   GL269940  18.522  25.474   4.398 -0.1051  0.2964 -0.0185
 5763POPC   C1A69941  18.704  25.608   4.838  0.0696  0.1097  0.0578
 5763POPC   D2A69942  18.581  25.644   5.308 -0.1954 -0.2400  0.1387
 5763POPC   C3A69943  18.473  25.366   5.635 -0.1383 -0.0241  0.0474
 5763POPC   C4A69944  18.376  24.922   5.725  0.1287  0.0849  0.1665
 5763POPC   C1B69945  18.211  25.521   4.737 -0.1325  0.3249 -0.2338
 5763POPC   C2B69946  18.146  25.790   5.118 -0.1871  0.0914 -0.0066
 5763POPC   C3B69947  18.069  26.034   5.537 -0.0930 -0.0727 -0.0613
 5763POPC   C4B69948  18.294  26.487   5.511  0.1519 -0.0503  0.1630
 5764POPC   NC369949   2.089  26.601   3.781 -0.0965 -0.2149 -0.0025
 5764POPC   PO469950   1.807  26.863   3.763 -0.0589 -0.0962  0.0633
 5764POPC   GL169951   1.880  26.972   4.194  0.2034 -0.0721 -0.1782
 5764POPC   GL269952   1.931  26.723   4.318 -0.2026 -0.1601  0.1898
 5764POPC   C1A69953   1.674  27.350   4.397 -0.1019  0.2813 -0.3449
 5764POPC   D2A69954   1.385  27.417   4.732 -0.1633  0.2254 -0.0491
 5764POPC   C3A69955   1.509  27.265   5.167 -0.3234  0.2643  0.0447
 5764POPC   C4A69956   1.659  27.347   5.627  0.0002 -0.1364  0.2008
 5764POPC   C1B69957   2.305  26.612   4.586  0.1653 -0.3104  0.0034
 5764POPC   C2B69958   2.424  26.653   4.974 -0.0004 -0.1708 -0.4749
 5764POPC   C3B69959   2.283  26.668   5.430  0.0875 -0.1685  0.2069
 5764POPC   C4B69960   2.363  26.777   5.851 -0.0409 -0.0030 -0.1244
 5765POPC   NC369961  29.052  20.981   3.788 -0.0935 -0.1738 -0.1395
 5765POPC   PO469962  29.357  20.857   3.613 -0.1541 -0.1561  0.1702
 5765POPC   GL169963  29.376  20.876   4.065  0.0958  0.7703  0.0639
 5765POPC   GL269964  29.215  20.775   4.291 -0.1312 -0.0192 -0.2376
 5765POPC   C1A69965  29.675  20.850   4.388  0.1011  0.2012  0.0085
 5765POPC   D2A69966  29.972  20.675   4.712 -0.0794  0.3182 -0.1425
 5765POPC   C3A69967  29.847  20.302   4.825 -0.2349 -0.2902 -0.1230
 5765POPC   C4A69968  29.801  19.929   5.057  0.2632 -0.3658  0.0144
 5765POPC   C1B69969  29.317  20.920   4.722 -0.0414  0.2959 -0.0491
 5765POPC   C2B69970  29.641  20.754   5.046  0.0605 -0.0083 -0.0199
 5765POPC   C3B69971  30.080  20.660   5.210  0.0907  0.0603 -0.1183
 5765POPC   C4B69972  30.472  20.632   5.419  0.3567  0.2367 -0.2661
 5766POPC   NC369973  25.275   8.628   4.214  0.2197 -0.2280  0.5993
 5766POPC   PO469974  25.464   8.969   4.085  0.0683  0.0489  0.2020
 5766POPC   GL169975  25.492   9.105   4.410 -0.0475  0.0806  0.3690
 5766POPC   GL269976  25.381   9.343   4.436 -0.2462 -0.0980  0.1787
 5766POPC   C1A69977  25.250   8.807   4.694  0.0465 -0.0371  0.3507
 5766POPC   D2A69978  25.170   8.775   5.124  0.1417  0.0087 -0.3258
 5766POPC   C3A69979  25.172   9.138   5.443  0.3250  0.1833  0.2266
 5766POPC   C4A69980  25.487   9.426   5.635  0.0416 -0.3845 -0.1941
 5766POPC   C1B69981  25.503   9.237   4.861  0.0213  0.1293  0.0537
 5766POPC   C2B69982  25.823   9.143   5.163  0.2048 -0.0218  0.0688
 5766POPC   C3B69983  26.219   9.201   5.325  0.1568  0.0675  0.0680
 5766POPC   C4B69984  26.579   9.398   5.512  0.0066 -0.1070  0.0613
 5767POPC   NC369985  23.101  21.024   3.930  0.1135  0.0960  0.2384
 5767POPC   PO469986  23.415  21.101   3.754  0.4950 -0.2811 -0.0024
 5767POPC   GL169987  23.566  21.103   4.092 -0.0894  0.1981 -0.0754
 5767POPC   GL269988  23.498  20.875   4.202 -0.1353  0.0028  0.0986
 5767POPC   C1A69989  23.470  21.257   4.529 -0.3108  0.0322 -0.3667
 5767POPC   D2A69990  23.583  21.471   4.901  0.0965  0.4493  0.2736
 5767POPC   C3A69991  23.287  21.615   5.202  0.4836 -0.2299  0.0221
 5767POPC   C4A69992  23.200  21.712   5.709 -0.0035 -0.1208  0.0709
 5767POPC   C1B69993  23.846  20.956   4.546  0.0069  0.2412  0.0794
 5767POPC   C2B69994  24.026  21.113   4.924  0.0417  0.1333  0.1506
 5767POPC   C3B69995  24.131  21.225   5.339 -0.0417  0.1011 -0.1234
 5767POPC   C4B69996  24.180  21.311   5.801  0.0581 -0.2481 -0.0010
 5768POPC   NC369997  31.229   9.668   3.389  0.0181 -0.2493 -0.1239
 5768POPC   PO469998  31.362   9.323   3.528 -0.1411  0.0146  0.0606
 5768POPC   GL169999  31.312   9.350   3.862 -0.0610 -0.1398  0.1824
 5768POPC   GL270000  31.517   9.193   4.038  0.1432 -0.1361  0.2100
 5768POPC   C1A70001  31.194   9.526   4.293  0.3694  0.1660  0.1108
 5768POPC   D2A70002  31.027   9.466   4.786  0.3178  0.0024 -0.0266
 5768POPC   C3A70003  31.186   9.138   5.046 -0.0132  0.1370  0.1346
 5768POPC   C4A70004  31.463   9.069   5.426 -0.3649 -0.3912  0.0698
 5768POPC   C1B70005  31.425   9.107   4.508 -0.1147  0.0695 -0.4532
 5768POPC   C2B70006  31.586   8.818   4.881 -0.0571  0.0213 -0.2262
 5768POPC   C3B70007  31.874   8.936   5.256 -0.0661  0.0130  0.1790
 5768POPC   C4B70008  32.172   9.153   5.562  0.0916  0.2089  0.1973
 5769POPC   NC370009  19.435  17.106   2.953 -0.1971  0.0296 -0.1998
 5769POPC   PO470010  19.210  17.110   3.280 -0.1728 -0.2177  0.0916
 5769POPC   GL170011  19.361  17.471   3.386 -0.0580  0.1970 -0.2759
 5769POPC   GL270012  19.555  17.619   3.631 -0.1038  0.1307 -0.1110
 5769POPC   C1A70013  19.317  17.913   3.322 -0.0933 -0.2345  0.2872
 5769POPC   D2A70014  19.448  18.365   3.384  0.0329 -0.0199  0.0561
 5769POPC   C3A70015  19.568  18.271   3.777 -0.1543 -0.0150 -0.0516
 5769POPC   C4A70016  19.572  18.452   4.195  0.0617  0.0131 -0.0258
 5769POPC   C1B70017  19.911  17.794   3.898 -0.3037 -0.2552 -0.0776
 5769POPC   C2B70018  20.383  17.866   3.914  0.2345  0.4060 -0.2088
 5769POPC   C3B70019  20.793  17.830   3.907 -0.0108 -0.0234 -0.2203
 5769POPC   C4B70020  21.238  17.917   3.780  0.1293  0.1013 -0.0159
 5770POPC   NC370021  27.375  19.304   3.414  0.0427 -0.0433 -0.0977
 5770POPC   PO470022  27.703  19.161   3.281 -0.1226  0.2519  0.1561
 5770POPC   GL170023  27.733  18.941   3.626 -0.2102 -0.0184 -0.2489
 5770POPC   GL270024  27.745  19.070   3.824 -0.0467  0.0590 -0.1286
 5770POPC   C1A70025  27.346  18.775   3.896 -0.0333  0.2590 -0.1830
 5770POPC   D2A70026  27.147  18.559   4.326  0.1266  0.1933  0.3887
 5770POPC   C3A70027  27.214  18.821   4.655  0.0686 -0.1362 -0.2132
 5770POPC   C4A70028  27.113  19.270   4.640 -0.1234  0.0274  0.0767
 5770POPC   C1B70029  27.568  19.094   4.288  0.2263 -0.2078 -0.2688
 5770POPC   C2B70030  27.614  19.155   4.756  0.2793  0.0063  0.2141
 5770POPC   C3B70031  27.282  19.151   5.114  0.2230 -0.3485 -0.3693
 5770POPC   C4B70032  27.329  19.307   5.598 -0.0881 -0.1050 -0.0123
 5771POPC   NC370033  29.989  15.479   3.618 -0.1400  0.1627  0.2578
 5771POPC   PO470034  29.971  15.890   3.566  0.3479  0.2158 -0.1579
 5771POPC   GL170035  30.098  15.879   4.001  0.2736  0.1600 -0.0464
 5771POPC   GL270036  29.868  15.693   4.074  0.2059 -0.1051 -0.1766
 5771POPC   C1A70037  30.244  15.677   4.420 -0.0302  0.2550  0.1903
 5771POPC   D2A70038  30.548  15.713   4.797 -0.1424 -0.0940  0.0553
 5771POPC   C3A70039  30.547  15.456   5.140  0.1184 -0.0011 -0.1782
 5771POPC   C4A70040  30.369  15.157   5.523  0.0215  0.0784 -0.0048
 5771POPC   C1B70041  29.792  15.793   4.496 -0.0754 -0.0808 -0.2284
 5771POPC   C2B70042  29.833  15.757   4.960  0.0219 -0.1968 -0.1167
 5771POPC   C3B70043  29.739  15.786   5.441  0.2088  0.1609 -0.1360
 5771POPC   C4B70044  29.521  15.662   5.861 -0.0373 -0.3459 -0.0624
 5772POPC   NC370045  17.293  17.959   3.999  0.0445 -0.1832  0.3583
 5772POPC   PO470046  17.064  17.642   3.909  0.1613  0.1168  0.3236
 5772POPC   GL170047  16.975  17.756   4.248  0.1512  0.0720  0.0578
 5772POPC   GL270048  16.937  17.506   4.367  0.2082  0.0058  0.1178
 5772POPC   C1A70049  16.992  17.955   4.704 -0.1989  0.0766 -0.1342
 5772POPC   D2A70050  17.186  18.126   5.041 -0.1136  0.0390  0.0087
 5772POPC   C3A70051  17.377  17.776   5.309 -0.0369 -0.2395  0.0630
 5772POPC   C4A70052  17.460  17.511   5.684  0.0684 -0.1024  0.1334
 5772POPC   C1B70053  17.090  17.461   4.792 -0.0181  0.2264  0.2446
 5772POPC   C2B70054  17.292  17.301   5.163  0.1615  0.1885 -0.1567
 5772POPC   C3B70055  17.525  17.077   5.465 -0.0368 -0.0810 -0.0416
 5772POPC   C4B70056  17.932  17.145   5.550 -0.0864  0.1223  0.0692
 5773POPC   NC370057  15.228   8.709   3.694 -0.2264  0.0188  0.0879
 5773POPC   PO470058  15.128   9.117   3.660 -0.0956  0.0821  0.1004
 5773POPC   GL170059  14.802   9.120   3.797  0.1657  0.0457 -0.2356
 5773POPC   GL270060  14.699   9.314   3.994 -0.1597  0.1786 -0.2469
 5773POPC   C1A70061  14.706   8.863   4.167  0.2688  0.1897  0.0894
 5773POPC   D2A70062  14.639   9.021   4.663  0.1429  0.1098 -0.3353
 5773POPC   C3A70063  14.817   8.677   4.894  0.0961  0.2029 -0.1795
 5773POPC   C4A70064  15.096   8.493   5.177  0.1657 -0.0422 -0.1669
 5773POPC   C1B70065  14.497   9.506   4.390 -0.2408 -0.0116 -0.1758
 5773POPC   C2B70066  14.326   9.711   4.786  0.1420  0.1478 -0.0770
 5773POPC   C3B70067  14.296   9.869   5.195  0.1382  0.0154  0.1488
 5773POPC   C4B70068  14.241  10.025   5.663  0.0077 -0.0004  0.2541
 5774POPC   NC370069  29.363   2.499   3.812 -0.2182  0.0116 -0.1631
 5774POPC   PO470070  29.143   2.791   3.913  0.3289 -0.3286  0.1694
 5774POPC   GL170071  29.039   2.785   4.296 -0.1060  0.1917 -0.1634
 5774POPC   GL270072  29.088   3.084   4.343 -0.2023 -0.0830 -0.0857
 5774POPC   C1A70073  28.902   2.471   4.646  0.3771  0.0945  0.1354
 5774POPC   D2A70074  28.785   2.056   4.814  0.4420  0.0723 -0.1490
 5774POPC   C3A70075  28.539   1.904   5.175 -0.1949  0.1431 -0.0243
 5774POPC   C4A70076  28.554   1.769   5.626  0.1015  0.2324 -0.0746
 5774POPC   C1B70077  29.228   3.524   4.495 -0.1082 -0.1056 -0.0194
 5774POPC   C2B70078  29.266   3.611   4.921  0.1921  0.1708  0.0205
 5774POPC   C3B70079  29.163   3.888   5.293 -0.0383  0.2489  0.0694
 5774POPC   C4B70080  29.137   4.061   5.731 -0.0255  0.0856 -0.0106
 5775POPC   NC370081   5.710  19.449   3.312 -0.6333  0.2190 -0.1921
 5775POPC   PO470082   5.659  19.080   3.346  0.0012  0.3110 -0.0104
 5775POPC   GL170083   5.662  18.982   3.756  0.0233  0.2748  0.1463
 5775POPC   GL270084   5.833  19.206   3.834  0.0067  0.2419 -0.0591
 5775POPC   C1A70085   5.524  18.629   3.949  0.1351 -0.0642 -0.0127
 5775POPC   D2A70086   5.375  18.259   4.126 -0.3083  0.1095  0.0997
 5775POPC   C3A70087   5.137  18.364   4.529  0.3418 -0.0149  0.1650
 5775POPC   C4A70088   4.903  18.711   4.597  0.1611 -0.0632 -0.1280
 5775POPC   C1B70089   5.866  18.897   4.195 -0.0137  0.1694  0.0333
 5775POPC   C2B70090   5.804  18.883   4.649 -0.0757 -0.0298 -0.1081
 5775POPC   C3B70091   5.721  19.031   5.091 -0.2120  0.1149 -0.0796
 5775POPC   C4B70092   5.305  19.182   5.313  0.0575 -0.3914 -0.3048
 5776POPC   NC370093  10.771  21.187   3.967 -0.1491 -0.0433  0.0610
 5776POPC   PO470094  10.673  20.930   3.739  0.1690  0.0143  0.1876
 5776POPC   GL170095  10.491  20.877   4.158 -0.1740 -0.2029  0.0368
 5776POPC   GL270096  10.660  20.723   4.211 -0.2381 -0.2137 -0.2932
 5776POPC   C1A70097  10.437  20.839   4.632  0.1002 -0.2610 -0.0677
 5776POPC   D2A70098  10.136  20.859   4.988  0.1863 -0.2767 -0.1566
 5776POPC   C3A70099  10.453  20.944   5.312 -0.4771  0.2047  0.1381
 5776POPC   C4A70100  10.697  20.724   5.597 -0.2449 -0.1053  0.0019
 5776POPC   C1B70101  10.633  20.373   4.515  0.0855 -0.1665  0.0708
 5776POPC   C2B70102  10.627  20.169   4.930 -0.2020  0.0167 -0.0658
 5776POPC   C3B70103  10.632  20.019   5.388 -0.0508 -0.1539 -0.0845
 5776POPC   C4B70104  10.711  20.290   5.781 -0.0248 -0.1389  0.2640
 5777POPC   NC370105  25.997  23.972   3.489 -0.1428 -0.2011 -0.1393
 5777POPC   PO470106  25.898  23.652   3.776 -0.3890  0.0489  0.1316
 5777POPC   GL170107  25.961  23.947   3.969  0.1643  0.1106  0.1870
 5777POPC   GL270108  25.771  24.204   3.927 -0.1323 -0.0770 -0.1694
 5777POPC   C1A70109  25.768  23.955   4.392 -0.1349  0.0265 -0.1429
 5777POPC   D2A70110  25.904  23.967   4.864 -0.1156 -0.0418 -0.0689
 5777POPC   C3A70111  26.068  24.099   5.309  0.0483  0.2412  0.0206
 5777POPC   C4A70112  26.081  24.458   5.618  0.2000 -0.0582 -0.0775
 5777POPC   C1B70113  25.670  24.431   4.336  0.3127  0.0849 -0.2213
 5777POPC   C2B70114  25.443  24.509   4.678  0.1821  0.1543 -0.0840
 5777POPC   C3B70115  25.245  24.773   5.053 -0.0559  0.1817  0.0750
 5777POPC   C4B70116  25.029  25.177   5.227  0.2115  0.0307 -0.1462
 5778POPC   NC370117   9.082   7.526   3.485 -0.0905 -0.1805 -0.0677
 5778POPC   PO470118   9.462   7.604   3.492 -0.1189  0.0853 -0.2966
 5778POPC   GL170119   9.595   7.611   3.865 -0.1197  0.0373  0.1838
 5778POPC   GL270120   9.678   7.865   3.935  0.0761 -0.1165  0.1384
 5778POPC   C1A70121   9.521   7.346   4.225  0.0712 -0.1953 -0.0715
 5778POPC   D2A70122   9.402   7.031   4.446  0.0705 -0.0197  0.0962
 5778POPC   C3A70123   9.164   7.072   4.837  0.1614  0.0830 -0.0425
 5778POPC   C4A70124   8.963   7.405   5.182  0.0498 -0.2228 -0.0332
 5778POPC   C1B70125   9.638   7.836   4.432 -0.1595  0.0514  0.1649
 5778POPC   C2B70126   9.689   7.838   4.884  0.0563 -0.0873 -0.2743
 5778POPC   C3B70127   9.681   7.786   5.335 -0.2024  0.0706 -0.0852
 5778POPC   C4B70128   9.469   7.814   5.773  0.0584 -0.0800 -0.1521
 5779POPC   NC370129   1.470   4.502   4.089 -0.1314 -0.4678  0.1273
 5779POPC   PO470130   1.653   4.166   4.071  0.0633  0.0836 -0.2190
 5779POPC   GL170131   1.349   4.033   4.255 -0.1331 -0.3744  0.4472
 5779POPC   GL270132   1.157   4.268   4.378  0.0192 -0.0367 -0.3906
 5779POPC   C1A70133   1.165   3.778   4.607 -0.3905  0.1032  0.1621
 5779POPC   D2A70134   0.924   3.765   5.001  0.3398  0.0808  0.5624
 5779POPC   C3A70135   0.930   3.794   5.478 -0.1812 -0.1418 -0.0879
 5779POPC   C4A70136   0.751   3.890   5.859 -0.2609 -0.4429  0.0115
 5779POPC   C1B70137   1.011   4.259   4.784  0.1645 -0.1759  0.1168
 5779POPC   C2B70138   0.785   4.165   5.166  0.0578 -0.1978 -0.3693
 5779POPC   C3B70139   0.487   4.197   5.538  0.1672  0.1329  0.0167
 5779POPC   C4B70140   0.310   4.259   5.995  0.0727  0.2624 -0.2495
 5780POPC   NC370141  21.423   2.613   3.521 -0.1289 -0.3798 -0.0737
 5780POPC   PO470142  21.377   2.953   3.319 -0.0716  0.3756  0.0415
 5780POPC   GL170143  21.284   3.124   3.681 -0.3239  0.2576  0.0230
 5780POPC   GL270144  21.065   2.989   3.770  0.0581  0.1793 -0.2429
 5780POPC   C1A70145  21.373   3.240   4.142 -0.4313  0.1409 -0.2027
 5780POPC   D2A70146  21.504   3.337   4.543 -0.1138 -0.2117 -0.0486
 5780POPC   C3A70147  21.866   3.147   4.798  0.1740  0.0678 -0.0237
 5780POPC   C4A70148  22.172   3.000   5.097  0.0771 -0.0645  0.1604
 5780POPC   C1B70149  21.150   2.740   4.170  0.1798 -0.0373 -0.0642
 5780POPC   C2B70150  21.001   2.769   4.632 -0.1081  0.2149  0.2527
 5780POPC   C3B70151  21.129   2.572   5.017 -0.1696  0.0338 -0.1728
 5780POPC   C4B70152  21.082   2.456   5.492  0.0456  0.0334 -0.2458
 5781POPC   NC370153  28.312  10.843   3.536 -0.0198 -0.1756 -0.1656
 5781POPC   PO470154  28.023  10.642   3.629  0.4006 -0.2000 -0.1501
 5781POPC   GL170155  28.101  10.496   4.035  0.2481 -0.2991  0.4233
 5781POPC   GL270156  27.909  10.328   4.157 -0.1136 -0.0493 -0.0264
 5781POPC   C1A70157  28.043  10.758   4.433  0.1113  0.2407  0.1052
 5781POPC   D2A70158  28.021  10.733   4.903 -0.0396 -0.0309 -0.0608
 5781POPC   C3A70159  28.381  11.023   5.090 -0.0340  0.0266  0.1561
 5781POPC   C4A70160  28.632  10.979   5.445 -0.1709 -0.0820 -0.0976
 5781POPC   C1B70161  28.154   9.919   4.325  0.5282  0.0558 -0.2869
 5781POPC   C2B70162  28.408   9.902   4.737 -0.0230  0.2676  0.2985
 5781POPC   C3B70163  28.472   9.939   5.170  0.1063  0.0221  0.1141
 5781POPC   C4B70164  28.521  10.127   5.611 -0.5836  0.0171 -0.0152
 5782POPC   NC370165  18.112  15.207   3.695 -0.1321  0.2728 -0.0193
 5782POPC   PO470166  18.268  15.529   3.883  0.1436 -0.1989 -0.0551
 5782POPC   GL170167  18.446  15.358   4.108  0.4173  0.2468  0.0929
 5782POPC   GL270168  18.654  15.135   4.092  0.0587  0.1417  0.0888
 5782POPC   C1A70169  18.696  15.539   4.462 -0.0112 -0.3611 -0.1948
 5782POPC   D2A70170  18.654  15.840   4.824 -0.2658 -0.2316 -0.1673
 5782POPC   C3A70171  18.902  16.223   4.863  0.1480 -0.1946  0.0950
 5782POPC   C4A70172  18.999  16.628   5.015 -0.0491  0.1028  0.2384
 5782POPC   C1B70173  18.973  14.884   4.360  0.0159 -0.3261  0.1148
 5782POPC   C2B70174  19.226  14.540   4.505 -0.0919 -0.2767  0.0994
 5782POPC   C3B70175  19.491  14.213   4.778  0.0539  0.1856 -0.1389
 5782POPC   C4B70176  19.526  14.065   5.205 -0.0647  0.3167  0.0060
 5783POPC   NC370177   2.440   6.536   4.008 -0.0362 -0.2574 -0.2174
 5783POPC   PO470178   2.695   6.218   3.909  0.0118  0.1426  0.1722
 5783POPC   GL170179   2.951   6.193   4.341  0.0175  0.1633  0.4292
 5783POPC   GL270180   2.749   6.375   4.438 -0.0671  0.0585  0.0639
 5783POPC   C1A70181   2.837   5.982   4.743  0.1264 -0.0569  0.0571
 5783POPC   D2A70182   2.726   6.006   5.199  0.2534 -0.3157 -0.2039
 5783POPC   C3A70183   2.781   6.030   5.680 -0.1843  0.0725 -0.1581
 5783POPC   C4A70184   2.780   6.256   6.125 -0.0241 -0.3221  0.3754
 5783POPC   C1B70185   2.745   6.466   4.843  0.2860  0.5104 -0.0584
 5783POPC   C2B70186   2.879   6.620   5.198  0.0318  0.0278  0.1548
 5783POPC   C3B70187   3.087   6.928   5.399  0.2702  0.2637 -0.0810
 5783POPC   C4B70188   3.388   7.141   5.645  0.0143 -0.4225 -0.0224
 5784POPC   NC370189   1.765  12.921   4.230 -0.2565 -0.4216  0.1530
 5784POPC   PO470190   1.668  12.567   4.257  0.2005 -0.1003 -0.1295
 5784POPC   GL170191   1.427  12.577   4.563  0.0095  0.3083  0.0460
 5784POPC   GL270192   1.253  12.321   4.599  0.0946 -0.0759 -0.0119
 5784POPC   C1A70193   1.448  12.467   5.040  0.2638  0.0431 -0.2072
 5784POPC   D2A70194   1.371  12.319   5.482 -0.2052  0.0941  0.0544
 5784POPC   C3A70195   1.663  12.610   5.748  0.0746  0.0005  0.0253
 5784POPC   C4A70196   1.916  12.902   5.928 -0.0450 -0.2229  0.1393
 5784POPC   C1B70197   0.933  12.221   4.933  0.0662  0.3493 -0.2492
 5784POPC   C2B70198   0.838  12.285   5.402 -0.2060 -0.0460 -0.0536
 5784POPC   C3B70199   1.056  12.118   5.803  0.1307  0.0504 -0.0025
 5784POPC   C4B70200   1.082  12.178   6.242 -0.2098  0.1352  0.0659
 5785POPC   NC370201  17.886  22.412   3.809 -0.0852 -0.0353 -0.1413
 5785POPC   PO470202  18.241  22.298   4.012 -0.0534 -0.0932  0.3164
 5785POPC   GL170203  18.279  22.126   4.335  0.1642  0.0362 -0.0851
 5785POPC   GL270204  18.361  21.788   4.303 -0.0991  0.0281 -0.2538
 5785POPC   C1A70205  18.102  22.253   4.709  0.3386  0.1746 -0.1629
 5785POPC   D2A70206  18.182  22.330   5.175 -0.0976 -0.1084  0.1156
 5785POPC   C3A70207  17.754  22.431   5.379  0.1550 -0.0710  0.2205
 5785POPC   C4A70208  17.422  22.735   5.289 -0.3183 -0.0057  0.0455
 5785POPC   C1B70209  18.371  21.865   4.730 -0.0797 -0.0612  0.3773
 5785POPC   C2B70210  18.506  21.696   5.114 -0.0192 -0.1172  0.2201
 5785POPC   C3B70211  18.550  21.347   5.371 -0.2687  0.1080  0.2901
 5785POPC   C4B70212  18.441  20.928   5.496  0.2640  0.0546 -0.1360
 5786POPC   NC370213  31.338   3.228   3.633 -0.0685 -0.0288  0.4533
 5786POPC   PO470214  31.680   3.067   3.780  0.1704  0.0546  0.2565
 5786POPC   GL170215  31.888   2.767   4.008  0.3945 -0.2860 -0.0075
 5786POPC   GL270216  31.667   2.855   4.223  0.1095 -0.0832 -0.2376
 5786POPC   C1A70217  31.911   2.444   4.364  0.2013  0.0963 -0.2487
 5786POPC   D2A70218  31.761   2.337   4.797 -0.1543 -0.1886  0.0437
 5786POPC   C3A70219  31.680   2.225   5.234  0.4199  0.1788  0.3224
 5786POPC   C4A70220  31.871   2.090   5.629  0.1428  0.0971  0.0505
 5786POPC   C1B70221  31.512   2.820   4.639 -0.2597  0.0949  0.1002
 5786POPC   C2B70222  31.574   2.791   5.118  0.0757  0.1119  0.2008
 5786POPC   C3B70223  31.756   2.604   5.526 -0.0883  0.1515  0.3784
 5786POPC   C4B70224  31.777   2.428   5.996 -0.0078  0.0813  0.0699
 5787POPC   NC370225  28.770  12.601   3.599 -0.2565 -0.3772  0.3132
 5787POPC   PO470226  29.135  12.539   3.534 -0.2344 -0.2679 -0.1947
 5787POPC   GL170227  29.048  12.352   3.980  0.1143 -0.0753 -0.1726
 5787POPC   GL270228  28.840  12.500   4.101 -0.1513 -0.1005  0.0948
 5787POPC   C1A70229  28.881  11.975   4.131 -0.1556 -0.3536 -0.1532
 5787POPC   D2A70230  28.706  11.638   3.917  0.1923  0.0874 -0.1968
 5787POPC   C3A70231  28.456  11.391   4.263  0.0257 -0.2330  0.3832
 5787POPC   C4A70232  28.194  11.219   4.646  0.2790 -0.0107  0.1295
 5787POPC   C1B70233  29.145  12.385   4.441 -0.1973  0.0723 -0.2617
 5787POPC   C2B70234  29.364  12.382   4.815 -0.2905  0.1109 -0.5370
 5787POPC   C3B70235  29.487  12.403   5.212 -0.1079  0.0785  0.1471
 5787POPC   C4B70236  29.760  12.088   5.474 -0.1682  0.1834 -0.0366
 5788POPC   NC370237  26.712  15.145   3.543 -0.2516  0.1481  0.1599
 5788POPC   PO470238  26.865  14.800   3.615  0.2581 -0.0678 -0.5255
 5788POPC   GL170239  26.724  14.554   3.955 -0.4269  0.0674  0.1970
 5788POPC   GL270240  26.957  14.481   4.030  0.0149 -0.1840  0.1411
 5788POPC   C1A70241  26.447  14.376   4.199  0.1025  0.2300  0.3456
 5788POPC   D2A70242  26.341  14.290   4.646  0.0149 -0.1077  0.4314
 5788POPC   C3A70243  26.579  14.372   5.004  0.1977 -0.1619 -0.2280
 5788POPC   C4A70244  26.607  14.446   5.450 -0.0077  0.0913 -0.0175
 5788POPC   C1B70245  26.913  14.254   4.441  0.1209  0.0315 -0.0236
 5788POPC   C2B70246  26.870  14.008   4.831 -0.0576 -0.1604  0.4408
 5788POPC   C3B70247  26.973  14.180   5.275  0.0448  0.2478  0.0172
 5788POPC   C4B70248  27.340  14.124   5.523  0.1147  0.2509  0.2296
 5789POPC   NC370249  28.832   9.719   3.893  0.1057  0.0558  0.0405
 5789POPC   PO470250  28.802   9.285   3.881 -0.0752 -0.0479 -0.0797
 5789POPC   GL170251  29.073   9.171   4.122 -0.0606 -0.4206  0.1688
 5789POPC   GL270252  29.058   8.885   4.062 -0.3258  0.0979 -0.0103
 5789POPC   C1A70253  29.336   9.344   4.458  0.0647 -0.0754  0.0018
 5789POPC   D2A70254  29.750   9.240   4.665  0.2568  0.1508 -0.2062
 5789POPC   C3A70255  29.727   9.292   5.146 -0.0304  0.0095 -0.0080
 5789POPC   C4A70256  29.944   9.222   5.568 -0.0466 -0.0972 -0.4128
 5789POPC   C1B70257  29.145   8.932   4.563 -0.3597 -0.3769  0.2601
 5789POPC   C2B70258  29.319   9.057   4.942 -0.1845  0.3643 -0.0153
 5789POPC   C3B70259  29.208   9.389   5.276 -0.0042 -0.0155  0.0880
 5789POPC   C4B70260  28.890   9.704   5.384  0.0123  0.0006  0.0390
 5790POPC   NC370261  15.959  30.434   3.553  0.1685 -0.1098 -0.0905
 5790POPC   PO470262  15.580  30.327   3.629 -0.3392  0.0651  0.2281
 5790POPC   GL170263  15.403  30.325   3.937  0.1537 -0.1655  0.0882
 5790POPC   GL270264  15.144  30.257   3.987 -0.1317 -0.1439  0.0124
 5790POPC   C1A70265  15.501  30.147   4.357 -0.1864 -0.1965  0.2334
 5790POPC   D2A70266  15.687  30.194   4.780  0.1458  0.0468 -0.1550
 5790POPC   C3A70267  15.667  30.142   5.226 -0.1540  0.0380 -0.0328
 5790POPC   C4A70268  15.707  30.092   5.676 -0.2236  0.1941  0.0990
 5790POPC   C1B70269  14.784  30.336   4.296  0.2222  0.1915 -0.0790
 5790POPC   C2B70270  14.447  30.188   4.605 -0.1838  0.3173  0.0008
 5790POPC   C3B70271  14.131  30.184   4.925  0.2251  0.0421 -0.1679
 5790POPC   C4B70272  13.877  30.195   5.357  0.0288  0.0989  0.2902
 5791POPC   NC370273  11.515  24.759   3.704  0.0038  0.0419 -0.0392
 5791POPC   PO470274  11.354  24.490   3.480  0.3020 -0.2260 -0.1793
 5791POPC   GL170275  11.248  24.343   3.799 -0.1077  0.2322 -0.0699
 5791POPC   GL270276  11.123  24.489   3.983  0.1277  0.2891 -0.0573
 5791POPC   C1A70277  11.188  23.996   4.140 -0.0404  0.0806  0.5259
 5791POPC   D2A70278  10.905  23.804   4.469  0.0281  0.4305  0.2881
 5791POPC   C3A70279  10.785  23.696   4.891  0.0775  0.3781 -0.2418
 5791POPC   C4A70280  11.000  23.802   5.280 -0.0098 -0.0392  0.0730
 5791POPC   C1B70281  11.081  24.838   4.320  0.1370 -0.2237  0.1068
 5791POPC   C2B70282  11.072  24.873   4.736  0.0648  0.0011 -0.0259
 5791POPC   C3B70283  11.175  25.094   5.155 -0.0182 -0.3579 -0.0702
 5791POPC   C4B70284  11.281  25.140   5.559 -0.0551 -0.1048 -0.3156
 5792POPC   NC370285  22.832  22.184   3.602  0.1882  0.2730 -0.0813
 5792POPC   PO470286  22.651  22.082   3.264  0.3390 -0.2762 -0.3502
 5792POPC   GL170287  22.622  21.792   3.595 -0.0245 -0.1673  0.0545
 5792POPC   GL270288  22.310  21.702   3.674  0.1892 -0.0719 -0.0872
 5792POPC   C1A70289  22.643  21.897   4.028 -0.0177 -0.0713  0.3135
 5792POPC   D2A70290  22.627  21.737   4.451 -0.0725 -0.1804  0.2951
 5792POPC   C3A70291  22.435  21.359   4.592  0.2827 -0.2142  0.3421
 5792POPC   C4A70292  22.622  21.009   4.738 -0.2055 -0.1246 -0.1141
 5792POPC   C1B70293  22.130  21.705   4.065 -0.0174  0.0554 -0.0052
 5792POPC   C2B70294  22.109  21.722   4.491 -0.0413 -0.4787 -0.0284
 5792POPC   C3B70295  22.267  21.790   4.897  0.1298 -0.2768 -0.0101
 5792POPC   C4B70296  22.343  21.895   5.374 -0.3315  0.1897  0.1732
 5793POPC   NC370297  27.952   8.012   3.760  0.0134  0.0382 -0.1667
 5793POPC   PO470298  28.295   7.850   3.712 -0.2674 -0.0392  0.1861
 5793POPC   GL170299  28.437   7.814   4.145 -0.4173 -0.2632 -0.2200
 5793POPC   GL270300  28.258   7.959   4.341  0.0614  0.0565 -0.0316
 5793POPC   C1A70301  28.715   7.687   4.483  0.4040 -0.1095 -0.1202
 5793POPC   D2A70302  28.884   7.691   4.905 -0.2068  0.2934 -0.0611
 5793POPC   C3A70303  28.873   8.041   5.240 -0.0424  0.0700 -0.2504
 5793POPC   C4A70304  28.813   8.233   5.657  0.1504 -0.1464 -0.0247
 5793POPC   C1B70305  28.348   7.850   4.794  0.0043 -0.0828  0.3234
 5793POPC   C2B70306  28.406   7.792   5.215  0.0879 -0.3154 -0.0969
 5793POPC   C3B70307  28.693   7.717   5.562 -0.1930 -0.0269  0.3076
 5793POPC   C4B70308  28.670   7.830   6.020 -0.0354  0.2203 -0.1074
 5794POPC   NC370309  25.557   8.469   3.777  0.1145  0.0250 -0.0145
 5794POPC   PO470310  25.195   8.317   3.731 -0.3848 -0.0166  0.1834
 5794POPC   GL170311  25.251   8.186   4.070 -0.2901  0.1103 -0.0239
 5794POPC   GL270312  25.108   7.935   4.158  0.0095 -0.2398 -0.2064
 5794POPC   C1A70313  25.393   8.203   4.517  0.0821  0.0478 -0.1643
 5794POPC   D2A70314  25.290   7.925   4.919 -0.4577  0.0799 -0.0694
 5794POPC   C3A70315  25.239   7.472   5.023  0.1691 -0.1078  0.1986
 5794POPC   C4A70316  25.131   7.132   5.292 -0.2459 -0.2261 -0.0417
 5794POPC   C1B70317  24.933   7.878   4.620 -0.4241  0.3199 -0.0381
 5794POPC   C2B70318  24.602   7.940   4.941  0.3976  0.0926 -0.2609
 5794POPC   C3B70319  24.401   7.851   5.369  0.0460  0.1302 -0.1541
 5794POPC   C4B70320  24.310   8.092   5.741  0.1569  0.0644  0.1065
 5795POPC   NC370321   6.891   8.330   4.289 -0.1820  0.0337  0.0298
 5795POPC   PO470322   7.121   8.406   3.950 -0.0865 -0.2213 -0.2661
 5795POPC   GL170323   7.346   8.527   4.258  0.1985  0.2577  0.1919
 5795POPC   GL270324   7.418   8.223   4.365 -0.0097 -0.2296  0.0725
 5795POPC   C1A70325   7.141   8.684   4.644  0.3010 -0.3859  0.1072
 5795POPC   D2A70326   7.164   8.643   5.126  0.0791  0.0426 -0.0075
 5795POPC   C3A70327   7.414   8.812   5.473  0.2577  0.1588  0.1411
 5795POPC   C4A70328   7.783   9.004   5.672 -0.1790  0.0798  0.1170
 5795POPC   C1B70329   7.348   8.223   4.837  0.3494  0.0857 -0.0009
 5795POPC   C2B70330   7.039   8.178   5.163  0.1231  0.0865 -0.2056
 5795POPC   C3B70331   7.049   8.355   5.530  0.0530  0.0491  0.1391
 5795POPC   C4B70332   7.210   8.585   5.925 -0.1192 -0.0157 -0.0445
 5796POPC   NC370333  21.629  23.703   3.465  0.2349  0.3180  0.0821
 5796POPC   PO470334  21.717  23.382   3.677 -0.1379 -0.3152  0.1352
 5796POPC   GL170335  21.922  23.446   3.995 -0.0636  0.2895  0.2162
 5796POPC   GL270336  21.779  23.418   4.234 -0.0647 -0.0738 -0.1514
 5796POPC   C1A70337  22.138  23.130   4.361 -0.3225 -0.0923  0.1993
 5796POPC   D2A70338  22.094  23.072   4.824  0.1313  0.3100 -0.1312
 5796POPC   C3A70339  21.674  23.141   5.014 -0.0689  0.1471 -0.1404
 5796POPC   C4A70340  21.265  23.012   5.226  0.1093  0.0155 -0.4963
 5796POPC   C1B70341  21.882  23.455   4.603 -0.1067 -0.1351 -0.0512
 5796POPC   C2B70342  21.904  23.630   5.053  0.5530 -0.0690 -0.0614
 5796POPC   C3B70343  21.942  23.655   5.550 -0.0342 -0.3774  0.1541
 5796POPC   C4B70344  22.071  23.714   5.959  0.3420  0.2250 -0.0419
 5797POPC   NC370345  28.991  17.105   3.421 -0.0862  0.0460 -0.0772
 5797POPC   PO470346  29.348  16.984   3.354  0.1349 -0.2382 -0.0051
 5797POPC   GL170347  29.309  16.787   3.669 -0.1564  0.2787  0.2437
 5797POPC   GL270348  29.045  16.616   3.610  0.0439  0.0280  0.0019
 5797POPC   C1A70349  29.230  16.595   4.057  0.0994 -0.1678  0.0409
 5797POPC   D2A70350  28.916  16.663   4.400 -0.0216  0.0266  0.1135
 5797POPC   C3A70351  28.863  17.076   4.532  0.3446  0.3191 -0.0405
 5797POPC   C4A70352  28.584  17.397   4.769 -0.0125  0.0579 -0.0668
 5797POPC   C1B70353  28.979  16.992   3.888  0.1437 -0.3137  0.0540
 5797POPC   C2B70354  29.261  17.102   4.240  0.0190  0.3881 -0.0517
 5797POPC   C3B70355  29.613  17.261   4.472 -0.2454  0.0835 -0.1427
 5797POPC   C4B70356  29.762  17.612   4.712  0.2317 -0.1455 -0.0615
 5798POPC   NC370357   2.723   3.062   3.713 -0.1381 -0.0805  0.0171
 5798POPC   PO470358   2.654   3.405   3.837 -0.0751  0.0441  0.1701
 5798POPC   GL170359   2.617   3.255   4.251 -0.0529 -0.1570  0.1512
 5798POPC   GL270360   2.888   3.238   4.329  0.1600  0.0348 -0.1700
 5798POPC   C1A70361   2.414   3.156   4.653 -0.0929 -0.3949 -0.1869
 5798POPC   D2A70362   2.412   3.033   5.078 -0.0160 -0.1258 -0.1901
 5798POPC   C3A70363   2.231   3.105   5.486 -0.2916 -0.2733  0.0139
 5798POPC   C4A70364   2.177   3.357   5.891  0.1648 -0.0603  0.6161
 5798POPC   C1B70365   2.958   3.052   4.704  0.1677  0.0081  0.3262
 5798POPC   C2B70366   2.906   2.895   5.175  0.1302  0.1564 -0.1765
 5798POPC   C3B70367   2.787   2.826   5.586  0.2357 -0.1627  0.1418
 5798POPC   C4B70368   2.696   2.463   5.937 -0.2313 -0.2716  0.4748
 5799POPC   NC370369  18.196  14.361   3.716 -0.0005 -0.2355 -0.2376
 5799POPC   PO470370  18.365  14.230   3.375 -0.3033 -0.0586 -0.1639
 5799POPC   GL170371  18.514  13.918   3.558  0.2770 -0.2942 -0.3619
 5799POPC   GL270372  18.805  13.902   3.371  0.0748 -0.2221  0.1055
 5799POPC   C1A70373  18.404  13.882   3.979 -0.1587  0.0653  0.1014
 5799POPC   D2A70374  18.189  14.134   4.244  0.0111  0.0022  0.1203
 5799POPC   C3A70375  18.288  14.226   4.653 -0.2493  0.1813 -0.1276
 5799POPC   C4A70376  18.264  14.293   5.100 -0.2046 -0.1028 -0.1011
 5799POPC   C1B70377  18.911  14.051   3.776 -0.2138 -0.0348 -0.0258
 5799POPC   C2B70378  19.248  14.316   4.059 -0.2483  0.2700  0.0353
 5799POPC   C3B70379  19.534  14.671   3.986 -0.0679 -0.1053  0.0125
 5799POPC   C4B70380  19.805  14.897   3.681  0.0457  0.0443  0.0488
 5800POPC   NC370381   6.913  19.476   3.425 -0.1074  0.1922 -0.2809
 5800POPC   PO470382   6.891  19.813   3.597 -0.3476  0.1985  0.4355
 5800POPC   GL170383   6.887  20.079   3.913 -0.2814 -0.1942  0.1663
 5800POPC   GL270384   6.625  20.044   3.995 -0.2034  0.0502 -0.1388
 5800POPC   C1A70385   7.077  19.906   4.321 -0.1847 -0.0211 -0.0829
 5800POPC   D2A70386   7.328  19.930   4.711 -0.0977 -0.1751 -0.0099
 5800POPC   C3A70387   7.373  20.191   5.083 -0.2138 -0.2962 -0.2735
 5800POPC   C4A70388   7.721  20.483   5.298 -0.0250  0.1385  0.1670
 5800POPC   C1B70389   6.589  19.824   4.423 -0.4242  0.1645  0.2055
 5800POPC   C2B70390   6.920  19.601   4.664  0.0428  0.0238 -0.0508
 5800POPC   C3B70391   7.008  19.723   5.090  0.2415 -0.0477 -0.0019
 5800POPC   C4B70392   7.137  19.935   5.488  0.3008 -0.1116 -0.0121
 5801POPC   NC370393  29.769  21.209   3.680 -0.2868  0.1596  0.0742
 5801POPC   PO470394  29.501  21.312   3.978 -0.1396 -0.0476 -0.4022
 5801POPC   GL170395  29.133  21.396   4.072  0.1510 -0.0162 -0.3480
 5801POPC   GL270396  29.034  21.260   4.242  0.3844  0.0695  0.2447
 5801POPC   C1A70397  28.905  21.782   4.248 -0.1835 -0.2770 -0.0245
 5801POPC   D2A70398  28.687  22.169   4.416  0.0908  0.0404  0.1485
 5801POPC   C3A70399  28.652  22.239   4.879  0.0785 -0.1041 -0.0884
 5801POPC   C4A70400  28.622  22.666   5.016 -0.2372  0.1228  0.1335
 5801POPC   C1B70401  29.194  21.516   4.559  0.0070 -0.1240 -0.0569
 5801POPC   C2B70402  29.289  21.729   4.958  0.0935 -0.1422 -0.0236
 5801POPC   C3B70403  29.251  21.940   5.361  0.1210  0.2448  0.2168
 5801POPC   C4B70404  28.964  22.251   5.578  0.0797  0.0648  0.1691
 5802POPC   NC370405  17.047  27.097   3.634 -0.1130  0.1273 -0.1078
 5802POPC   PO470406  16.975  27.419   3.364 -0.3585  0.1309 -0.0155
 5802POPC   GL170407  16.859  27.564   3.704  0.0990 -0.0798  0.2817
 5802POPC   GL270408  16.884  27.527   3.961 -0.1056  0.1036  0.2285
 5802POPC   C1A70409  16.657  27.932   3.951  0.2906 -0.2304  0.1374
 5802POPC   D2A70410  16.389  28.007   4.290 -0.2882 -0.3085 -0.3195
 5802POPC   C3A70411  16.328  27.824   4.698 -0.0462 -0.1172 -0.3358
 5802POPC   C4A70412  16.422  27.853   5.169  0.1532  0.0638  0.0318
 5802POPC   C1B70413  16.759  27.708   4.397  0.0209  0.0554  0.1429
 5802POPC   C2B70414  16.785  27.819   4.852  0.0813  0.2898 -0.1027
 5802POPC   C3B70415  16.878  27.872   5.369  0.1071 -0.1503  0.1125
 5802POPC   C4B70416  17.107  27.716   5.770 -0.2415  0.0321  0.0699
 5803POPC   NC370417   9.325   4.985   3.174 -0.0384  0.1960  0.2223
 5803POPC   PO470418   9.263   5.253   3.430  0.0758 -0.2217 -0.3287
 5803POPC   GL170419   9.098   5.338   3.746 -0.3365  0.0396 -0.3963
 5803POPC   GL270420   8.972   5.059   3.835  0.2432 -0.0997  0.0829
 5803POPC   C1A70421   8.863   5.665   4.041 -0.0440 -0.1593 -0.1858
 5803POPC   D2A70422   8.646   5.979   4.299 -0.2547  0.0728 -0.2243
 5803POPC   C3A70423   8.941   6.068   4.662  0.0137  0.0447  0.0907
 5803POPC   C4A70424   9.303   5.903   4.896 -0.1889  0.4899 -0.2370
 5803POPC   C1B70425   9.056   5.270   4.281  0.1992 -0.2145 -0.2527
 5803POPC   C2B70426   8.884   5.522   4.665 -0.0575  0.1807  0.0030
 5803POPC   C3B70427   8.866   5.644   5.105 -0.1152 -0.1577  0.0401
 5803POPC   C4B70428   8.850   5.323   5.387 -0.1852  0.0837 -0.1338
 5804POPC   NC370429  24.559  14.594   3.932  0.1969 -0.1239 -0.1940
 5804POPC   PO470430  24.435  14.442   3.571 -0.0615  0.1096 -0.3195
 5804POPC   GL170431  24.311  14.190   3.902 -0.0872 -0.0434  0.1605
 5804POPC   GL270432  24.348  13.981   4.041  0.2268 -0.0410 -0.2293
 5804POPC   C1A70433  24.215  14.386   4.343 -0.2138  0.0433  0.0089
 5804POPC   D2A70434  24.365  14.554   4.747 -0.2440 -0.0661  0.2048
 5804POPC   C3A70435  24.697  14.477   5.016  0.0656 -0.2227  0.3057
 5804POPC   C4A70436  24.743  14.471   5.442 -0.3507  0.0488  0.2567
 5804POPC   C1B70437  24.155  13.756   4.358  0.0928  0.0512  0.1099
 5804POPC   C2B70438  24.400  13.630   4.721 -0.3078 -0.0861 -0.0924
 5804POPC   C3B70439  24.422  13.470   5.188  0.0654  0.2520 -0.1013
 5804POPC   C4B70440  24.623  13.196   5.506  0.0482 -0.2513  0.0802
 5805POPC   NC370441  19.958   5.980   3.896 -0.1168 -0.2673  0.4478
 5805POPC   PO470442  20.277   5.765   3.794  0.0927 -0.4063 -0.0258
 5805POPC   GL170443  20.038   5.599   4.200  0.3254  0.0162  0.1957
 5805POPC   GL270444  20.231   5.768   4.286  0.3277 -0.0382 -0.1237
 5805POPC   C1A70445  19.963   5.578   4.647  0.1673 -0.0783 -0.0714
 5805POPC   D2A70446  20.122   5.463   5.085  0.1728  0.0343 -0.1922
 5805POPC   C3A70447  20.237   5.768   5.396  0.1994  0.2899 -0.1714
 5805POPC   C4A70448  20.084   6.090   5.727  0.0039 -0.1625 -0.1361
 5805POPC   C1B70449  19.987   6.113   4.443  0.2616  0.0590 -0.1988
 5805POPC   C2B70450  19.844   6.488   4.703  0.0500 -0.0525  0.1319
 5805POPC   C3B70451  20.015   6.794   4.981 -0.1391  0.1301 -0.4107
 5805POPC   C4B70452  20.050   6.960   5.367  0.0760 -0.1185  0.3185
 5806POPC   NC370453  15.812   4.442   3.114  0.4321  0.0258  0.0332
 5806POPC   PO470454  15.587   4.473   3.433 -0.1428 -0.1162 -0.2017
 5806POPC   GL170455  15.897   4.460   3.704 -0.1796 -0.0100  0.0263
 5806POPC   GL270456  15.783   4.598   3.873 -0.1314  0.0000  0.1475
 5806POPC   C1A70457  16.366   4.404   3.618 -0.1485  0.0934 -0.1426
 5806POPC   D2A70458  16.804   4.196   3.587  0.2825 -0.0772  0.1768
 5806POPC   C3A70459  17.154   4.471   3.605  0.0457  0.0554  0.3482
 5806POPC   C4A70460  17.495   4.605   3.307 -0.0264 -0.2261 -0.4099
 5806POPC   C1B70461  16.191   4.733   4.065 -0.0695 -0.0809  0.0074
 5806POPC   C2B70462  16.430   4.789   4.465  0.0707 -0.0360  0.0062
 5806POPC   C3B70463  16.529   4.823   4.925 -0.4122 -0.4136  0.0109
 5806POPC   C4B70464  16.804   5.048   5.179  0.3609 -0.3491 -0.0895
 5807POPC   NC370465  21.698  30.180   3.667  0.0584  0.0930 -0.0136
 5807POPC   PO470466  22.031  30.320   3.508  0.4411 -0.4704  0.2420
 5807POPC   GL170467  22.060  30.453   3.824  0.0151 -0.3562  0.2753
 5807POPC   GL270468  21.856  30.428   4.099 -0.0700  0.0082  0.1731
 5807POPC   C1A70469  22.258  30.719   4.104 -0.1717  0.1374 -0.0888
 5807POPC   D2A70470  22.639  30.955   4.218 -0.0387  0.0492  0.0696
 5807POPC   C3A70471  22.830  30.927   4.635  0.0105 -0.0455 -0.3824
 5807POPC   C4A70472  23.055  31.190   4.947 -0.2760  0.0062  0.1449
 5807POPC   C1B70473  21.962  30.625   4.475 -0.1429  0.0313  0.1813
 5807POPC   C2B70474  22.182  30.444   4.856 -0.1034 -0.2615  0.0469
 5807POPC   C3B70475  22.410  30.584   5.242 -0.2535 -0.0684 -0.0742
 5807POPC   C4B70476  22.738  30.501   5.606 -0.0551 -0.2099 -0.3154
 5808POPC   NC370477   3.758  31.163   4.255 -0.1271 -0.0439  0.0976
 5808POPC   PO470478   3.684  31.495   4.080 -0.2599  0.1144 -0.3542
 5808POPC   GL170479   3.913  31.630   4.417 -0.5119  0.3263  0.0353
 5808POPC   GL270480   3.631  31.595   4.605 -0.0708  0.0368 -0.2565
 5808POPC   C1A70481   4.029  31.865   4.839  0.1416  0.1696 -0.2122
 5808POPC   D2A70482   3.853  31.867   5.267  0.2677 -0.2542 -0.1966
 5808POPC   C3A70483   3.549  32.196   5.346 -0.2903  0.1724  0.1613
 5808POPC   C4A70484   3.461  32.631   5.325  0.3464 -0.1152 -0.2018
 5808POPC   C1B70485   3.805  31.456   5.034 -0.1628 -0.0848 -0.0588
 5808POPC   C2B70486   3.822  31.351   5.472  0.1046  0.0525  0.0840
 5808POPC   C3B70487   4.038  31.611   5.823 -0.1555  0.3453  0.0974
 5808POPC   C4B70488   4.367  31.542   6.064  0.0663  0.1610  0.1875
 5809POPC   NC370489  11.140   3.562   3.639 -0.2005  0.1797  0.2254
 5809POPC   PO470490  10.888   3.260   3.585 -0.3368 -0.2016 -0.3919
 5809POPC   GL170491  10.932   3.314   3.965  0.1411  0.2452  0.0840
 5809POPC   GL270492  10.783   3.500   4.250  0.2301  0.3833 -0.0172
 5809POPC   C1A70493  11.341   3.404   4.138  0.3242 -0.0114 -0.0837
 5809POPC   D2A70494  11.629   3.665   4.449  0.1840 -0.2176  0.0141
 5809POPC   C3A70495  11.932   3.847   4.688  0.2266  0.1231  0.0608
 5809POPC   C4A70496  12.062   4.107   5.031 -0.2653 -0.2137  0.0385
 5809POPC   C1B70497  10.536   3.471   4.654  0.1432  0.0726  0.0433
 5809POPC   C2B70498  10.427   3.536   5.109 -0.1853  0.2141 -0.1578
 5809POPC   C3B70499  10.362   3.646   5.572  0.3550 -0.0019  0.2968
 5809POPC   C4B70500  10.190   3.785   5.973 -0.0781  0.5353 -0.1792
 5810POPC   NC370501  20.747   3.042   3.281  0.1249  0.2188 -0.1245
 5810POPC   PO470502  20.418   2.787   3.226 -0.1573 -0.1072 -0.1593
 5810POPC   GL170503  20.281   2.823   3.584 -0.0276  0.3179 -0.0550
 5810POPC   GL270504  20.488   2.948   3.719 -0.3822  0.0751 -0.0037
 5810POPC   C1A70505  20.039   2.654   3.928  0.0872 -0.3521 -0.2790
 5810POPC   D2A70506  20.099   2.364   4.285  0.0028 -0.0511 -0.0476
 5810POPC   C3A70507  20.465   2.082   4.373 -0.1272  0.2428  0.0481
 5810POPC   C4A70508  20.738   1.797   4.557  0.0522 -0.2276 -0.0991
 5810POPC   C1B70509  20.216   3.185   3.991  0.0993 -0.1605  0.2483
 5810POPC   C2B70510  19.963   3.503   4.188 -0.2032 -0.0544  0.1480
 5810POPC   C3B70511  19.987   3.721   4.538 -0.2592 -0.0804  0.0662
 5810POPC   C4B70512  19.947   4.022   4.868  0.1952 -0.0580 -0.2151
 5811POPC   NC370513   8.612  17.266   3.327 -0.2451  0.4871 -0.2654
 5811POPC   PO470514   8.797  17.536   3.586  0.2263  0.1156 -0.3975
 5811POPC   GL170515   8.716  17.535   3.994  0.2734 -0.2785  0.1404
 5811POPC   GL270516   8.670  17.343   4.183  0.1278  0.0677 -0.0375
 5811POPC   C1A70517   8.891  17.790   4.370 -0.0245  0.0980  0.4417
 5811POPC   D2A70518   9.089  17.700   4.801  0.1483 -0.2953  0.0554
 5811POPC   C3A70519   8.913  17.675   5.246  0.0238 -0.1028  0.1839
 5811POPC   C4A70520   9.153  17.815   5.581  0.3864 -0.0724  0.0319
 5811POPC   C1B70521   8.749  17.375   4.635 -0.0300  0.0187  0.0762
 5811POPC   C2B70522   8.793  17.211   5.069 -0.0772  0.0326  0.3291
 5811POPC   C3B70523   9.025  16.915   5.352 -0.0759 -0.0704 -0.0194
 5811POPC   C4B70524   9.497  16.880   5.307  0.0313  0.1463 -0.1105
 5812POPC   NC370525  25.725  23.818   2.742  0.0263  0.3452  0.0026
 5812POPC   PO470526  25.667  23.893   3.141  0.0794  0.0535  0.1165
 5812POPC   GL170527  25.502  23.907   3.575 -0.0873  0.2942  0.0119
 5812POPC   GL270528  25.214  23.736   3.574  0.0223 -0.2435 -0.0248
 5812POPC   C1A70529  25.369  23.953   4.055  0.0575  0.3915  0.1673
 5812POPC   D2A70530  25.173  24.015   4.451  0.2798  0.0939 -0.1475
 5812POPC   C3A70531  24.952  24.331   4.700  0.0703 -0.0867  0.1353
 5812POPC   C4A70532  24.783  24.460   5.134 -0.0488 -0.3182  0.0167
 5812POPC   C1B70533  25.027  24.150   3.687 -0.1070  0.0330 -0.0619
 5812POPC   C2B70534  24.805  24.452   3.466  0.1326  0.1910  0.0055
 5812POPC   C3B70535  24.582  24.800   3.445 -0.1129  0.0812 -0.5604
 5812POPC   C4B70536  24.250  25.157   3.578 -0.0404  0.3490 -0.1161
 5813POPC   NC370537   4.593  23.257   4.112 -0.1677  0.3430  0.1295
 5813POPC   PO470538   4.261  23.413   4.020  0.0014 -0.3852  0.1866
 5813POPC   GL170539   4.195  23.189   4.355  0.2057 -0.4549 -0.0286
 5813POPC   GL270540   3.910  23.113   4.267 -0.1616  0.1459  0.2429
 5813POPC   C1A70541   3.990  23.184   4.773 -0.0072  0.3399  0.0070
 5813POPC   D2A70542   3.933  23.172   5.259 -0.0470  0.1559  0.3166
 5813POPC   C3A70543   3.600  22.960   5.505  0.3196  0.1137 -0.2189
 5813POPC   C4A70544   3.145  23.025   5.535  0.1130  0.0477 -0.0986
 5813POPC   C1B70545   3.736  22.773   4.538 -0.0301 -0.2422  0.0410
 5813POPC   C2B70546   3.647  22.660   4.995  0.0801  0.0027  0.0873
 5813POPC   C3B70547   3.692  22.375   5.376  0.1224  0.2790  0.0655
 5813POPC   C4B70548   3.850  22.226   5.779  0.0708 -0.0448  0.0801
 5814POPC   NC370549   7.145   6.272   3.678  0.1625 -0.1097  0.2392
 5814POPC   PO470550   6.779   6.129   3.672  0.1153 -0.2200  0.3049
 5814POPC   GL170551   6.735   5.995   4.029 -0.1367  0.0341  0.0337
 5814POPC   GL270552   6.990   5.955   4.128  0.0900 -0.1896  0.0998
 5814POPC   C1A70553   6.321   6.062   4.222 -0.1978  0.1894  0.0466
 5814POPC   D2A70554   6.056   6.085   4.636 -0.0546  0.2676 -0.0140
 5814POPC   C3A70555   5.991   5.860   5.091 -0.1962  0.0822  0.2727
 5814POPC   C4A70556   6.040   5.638   5.541 -0.1194  0.1047 -0.2229
 5814POPC   C1B70557   6.792   6.000   4.530 -0.1027  0.0819 -0.0488
 5814POPC   C2B70558   6.565   5.927   4.929 -0.1463 -0.2375 -0.1860
 5814POPC   C3B70559   6.598   5.754   5.298  0.0500  0.0342 -0.1840
 5814POPC   C4B70560   6.819   5.509   5.615 -0.0326  0.1349  0.1230
 5815POPC   NC370561  27.622   2.379   3.433  0.3015  0.0491  0.1976
 5815POPC   PO470562  27.874   2.235   3.714  0.0100  0.3125  0.2121
 5815POPC   GL170563  27.855   2.088   3.946 -0.2966  0.0624  0.5315
 5815POPC   GL270564  27.633   2.190   4.168 -0.1825 -0.0299  0.0829
 5815POPC   C1A70565  28.089   1.996   4.324  0.1555  0.0652  0.1266
 5815POPC   D2A70566  28.126   1.566   4.571  0.2313  0.1707 -0.2692
 5815POPC   C3A70567  28.183   1.544   5.037  0.1430 -0.1726 -0.0063
 5815POPC   C4A70568  28.166   1.334   5.493 -0.1898  0.3255  0.1144
 5815POPC   C1B70569  27.828   2.347   4.591 -0.2467  0.0056 -0.1766
 5815POPC   C2B70570  27.944   2.337   5.087  0.2165 -0.1186  0.3156
 5815POPC   C3B70571  28.227   2.280   5.413 -0.0998 -0.0069 -0.0464
 5815POPC   C4B70572  28.404   2.192   5.820  0.4651 -0.1127 -0.0902
 5816POPC   NC370573  31.298  27.253   4.205 -0.0301 -0.0412  0.2327
 5816POPC   PO470574  31.672  27.326   4.065 -0.1796 -0.0155 -0.0963
 5816POPC   GL170575  31.687  27.480   4.522 -0.0846  0.3455  0.1019
 5816POPC   GL270576  31.793  27.753   4.602 -0.1630  0.1683  0.1126
 5816POPC   C1A70577  31.760  27.139   4.873 -0.0727  0.1941 -0.2130
 5816POPC   D2A70578  31.741  27.089   5.294 -0.1711 -0.2526  0.1953
 5816POPC   C3A70579  32.052  27.186   5.592 -0.2157 -0.0866  0.0150
 5816POPC   C4A70580  32.482  27.267   5.693 -0.3495 -0.0517 -0.0455
 5816POPC   C1B70581  31.653  27.569   5.006  0.3215 -0.2345  0.0910
 5816POPC   C2B70582  31.471  27.659   5.432  0.0028 -0.3609  0.1541
 5816POPC   C3B70583  31.086  27.647   5.730 -0.0434  0.2959 -0.0962
 5816POPC   C4B70584  30.792  27.603   6.087  0.1382 -0.2603  0.1136
 5817POPC   NC370585  29.829  19.985   3.364 -0.1470  0.3899  0.1412
 5817POPC   PO470586  29.857  19.771   3.636  0.1732  0.0293 -0.0042
 5817POPC   GL170587  29.685  19.706   4.023  0.2961  0.4672  0.2410
 5817POPC   GL270588  29.379  19.688   4.008 -0.2063  0.0430  0.5999
 5817POPC   C1A70589  29.653  19.488   4.441  0.0421  0.0885  0.2706
 5817POPC   D2A70590  29.764  19.098   4.704 -0.0807 -0.1532  0.0935
 5817POPC   C3A70591  29.573  18.842   4.992  0.1041  0.0768  0.0720
 5817POPC   C4A70592  29.280  18.665   5.299 -0.0159  0.0893 -0.1310
 5817POPC   C1B70593  29.106  19.948   4.317  0.0801  0.0251  0.2334
 5817POPC   C2B70594  28.965  20.095   4.784  0.1729  0.2093 -0.0697
 5817POPC   C3B70595  28.965  20.068   5.257 -0.4113 -0.2383 -0.3167
 5817POPC   C4B70596  28.891  20.179   5.739 -0.4470 -0.1613  0.0673
 5818POPC   NC370597  24.167  23.847   2.727  0.0673  0.1454 -0.1240
 5818POPC   PO470598  24.037  23.961   3.156 -0.0479  0.0010  0.0927
 5818POPC   GL170599  23.959  23.790   3.547 -0.2393  0.4053  0.0850
 5818POPC   GL270600  24.014  24.051   3.689  0.0024 -0.0035 -0.1802
 5818POPC   C1A70601  24.106  23.711   3.971  0.1459 -0.3558 -0.0874
 5818POPC   D2A70602  24.256  23.830   4.389 -0.1557  0.0573 -0.2234
 5818POPC   C3A70603  23.964  24.039   4.706  0.2306  0.2368 -0.1657
 5818POPC   C4A70604  23.556  23.956   4.932 -0.0326 -0.0076  0.3257
 5818POPC   C1B70605  24.406  24.280   3.660  0.0825 -0.3258  0.2391
 5818POPC   C2B70606  24.775  24.459   3.928 -0.0742 -0.2039  0.0487
 5818POPC   C3B70607  24.929  24.876   3.846 -0.1450  0.2368  0.2042
 5818POPC   C4B70608  24.944  25.166   4.186  0.1157  0.0023  0.1487
 5819POPC   NC370609   7.184   5.334   3.142 -0.2307  0.1529  0.2236
 5819POPC   PO470610   7.418   5.329   3.451  0.2618 -0.0380  0.0875
 5819POPC   GL170611   7.459   5.190   3.920  0.0566 -0.0169  0.1167
 5819POPC   GL270612   7.211   5.056   3.968  0.0762  0.3540 -0.2883
 5819POPC   C1A70613   7.699   5.241   4.320 -0.0424  0.0302  0.0217
 5819POPC   D2A70614   7.813   5.296   4.772 -0.0257  0.4930 -0.0776
 5819POPC   C3A70615   8.156   5.080   5.005 -0.1757 -0.2313  0.1185
 5819POPC   C4A70616   8.348   4.681   5.010 -0.2651 -0.0391 -0.0353
 5819POPC   C1B70617   7.190   5.127   4.465  0.2139  0.3495 -0.2142
 5819POPC   C2B70618   7.339   5.248   4.931 -0.0948  0.0465 -0.1616
 5819POPC   C3B70619   7.255   5.402   5.404 -0.0954  0.4177 -0.1332
 5819POPC   C4B70620   7.265   5.411   5.862  0.0673 -0.0531  0.1657
 5820POPC   NC370621  28.126   6.463   3.466 -0.2634 -0.1076  0.0393
 5820POPC   PO470622  27.869   6.222   3.522 -0.3527  0.1115 -0.2741
 5820POPC   GL170623  27.812   6.186   3.915  0.0963 -0.0645  0.1449
 5820POPC   GL270624  28.045   6.374   3.989 -0.3211  0.0655  0.1173
 5820POPC   C1A70625  28.122   5.940   4.222  0.1163  0.2411  0.0591
 5820POPC   D2A70626  28.470   5.814   4.493  0.0104 -0.3274 -0.0795
 5820POPC   C3A70627  28.678   5.810   4.898 -0.0707 -0.2871  0.1058
 5820POPC   C4A70628  28.813   5.719   5.330  0.1476 -0.1059 -0.0682
 5820POPC   C1B70629  28.278   6.425   4.433 -0.0538  0.0795 -0.1052
 5820POPC   C2B70630  28.640   6.286   4.734 -0.1318  0.2446 -0.1951
 5820POPC   C3B70631  28.926   6.223   5.096  0.1941 -0.0310 -0.0204
 5820POPC   C4B70632  29.083   6.172   5.462  0.0677  0.2197 -0.3763
 5821POPC   NC370633  27.598  25.716   3.403 -0.3183  0.1605 -0.1611
 5821POPC   PO470634  27.733  25.473   3.624  0.0144 -0.1074  0.1005
 5821POPC   GL170635  27.808  25.617   3.937 -0.2347  0.1304  0.1416
 5821POPC   GL270636  27.561  25.568   4.095  0.1313  0.0260  0.3446
 5821POPC   C1A70637  28.090  25.504   4.271 -0.1810  0.1433  0.3877
 5821POPC   D2A70638  28.349  25.289   4.576  0.2619  0.4140 -0.0324
 5821POPC   C3A70639  28.424  24.948   4.902 -0.1198  0.2648 -0.3054
 5821POPC   C4A70640  28.278  24.780   5.300  0.0120  0.2472 -0.1471
 5821POPC   C1B70641  27.498  25.604   4.527  0.2373  0.1543  0.2652
 5821POPC   C2B70642  27.314  25.426   4.886  0.0685 -0.3106  0.4215
 5821POPC   C3B70643  27.009  25.508   5.185  0.2656 -0.1167 -0.2347
 5821POPC   C4B70644  26.759  25.834   5.414  0.0656 -0.0755 -0.0666
 5822POPC   NC370645   0.682  19.833   3.386  0.0013  0.1387  0.0600
 5822POPC   PO470646   1.023  19.649   3.395  0.2102 -0.2716  0.2355
 5822POPC   GL170647   0.887  19.612   3.760 -0.0647 -0.0055  0.0183
 5822POPC   GL270648   0.869  19.890   3.871 -0.0433  0.0300 -0.0069
 5822POPC   C1A70649   0.698  19.220   3.924  0.0973 -0.1204  0.0651
 5822POPC   D2A70650   0.492  18.837   4.091 -0.0258  0.1223 -0.0651
 5822POPC   C3A70651   0.403  18.702   4.534  0.0148  0.0004 -0.2384
 5822POPC   C4A70652   0.265  18.714   4.955  0.2157  0.0398 -0.1539
 5822POPC   C1B70653   1.034  20.024   4.214  0.1036 -0.1088 -0.0937
 5822POPC   C2B70654   1.189  19.961   4.687  0.0343  0.0111  0.0663
 5822POPC   C3B70655   1.266  19.632   4.972  0.1112  0.0396  0.0363
 5822POPC   C4B70656   1.326  19.267   5.173  0.0402 -0.0749  0.1983
 5823POPC   NC370657  23.762  20.775   3.762 -0.1152 -0.4287 -0.0980
 5823POPC   PO470658  23.636  20.457   3.937  0.1928 -0.1327 -0.0122
 5823POPC   GL170659  23.440  20.258   4.167  0.0564  0.0736  0.1034
 5823POPC   GL270660  23.212  20.452   4.227 -0.0152  0.2761  0.4029
 5823POPC   C1A70661  23.286  20.124   4.627  0.1273  0.3115 -0.5738
 5823POPC   D2A70662  23.340  20.366   5.092 -0.0698 -0.0004  0.0142
 5823POPC   C3A70663  23.814  20.474   5.074 -0.2090  0.0214  0.0306
 5823POPC   C4A70664  24.165  20.441   4.759  0.0418  0.2829 -0.0270
 5823POPC   C1B70665  23.468  20.586   4.623  0.3244  0.1156 -0.0661
 5823POPC   C2B70666  23.565  20.894   4.951 -0.1716 -0.0978 -0.5856
 5823POPC   C3B70667  23.671  21.187   5.358  0.0249  0.4998 -0.1170
 5823POPC   C4B70668  23.640  21.387   5.775 -0.1464  0.2729  0.2386
 5824POPC   NC370669   5.720  22.057   3.800 -0.3138 -0.1891  0.0414
 5824POPC   PO470670   5.545  22.339   3.631 -0.0212 -0.1014  0.0809
 5824POPC   GL170671   5.259  22.151   3.860 -0.0137 -0.1842 -0.1908
 5824POPC   GL270672   5.114  22.363   3.957 -0.1560  0.0573  0.0146
 5824POPC   C1A70673   5.463  22.194   4.325 -0.3508 -0.1156  0.1984
 5824POPC   D2A70674   5.597  22.051   4.763 -0.0827  0.1025 -0.1147
 5824POPC   C3A70675   5.758  22.321   5.119  0.2444 -0.2676 -0.0851
 5824POPC   C4A70676   5.686  22.476   5.531 -0.0791  0.0630  0.0113
 5824POPC   C1B70677   5.199  22.603   4.310 -0.1913  0.2514 -0.0802
 5824POPC   C2B70678   5.275  22.742   4.795 -0.1283 -0.4707 -0.1114
 5824POPC   C3B70679   5.466  22.932   5.199 -0.0521  0.0370  0.2789
 5824POPC   C4B70680   5.487  22.942   5.678  0.1156  0.1061  0.0211
 5825POPC   NC370681  19.901  27.426   3.653 -0.2608 -0.1371  0.3150
 5825POPC   PO470682  19.886  27.073   3.835 -0.2532  0.1437  0.2526
 5825POPC   GL170683  19.885  27.012   4.231 -0.0928 -0.5379  0.5091
 5825POPC   GL270684  20.106  27.085   4.436  0.0560  0.0922 -0.2859
 5825POPC   C1A70685  19.581  26.880   4.551  0.3744  0.2649  0.1112
 5825POPC   D2A70686  19.476  26.839   4.986  0.0252  0.2872 -0.1957
 5825POPC   C3A70687  19.590  26.572   5.394  0.1289 -0.0523  0.1002
 5825POPC   C4A70688  19.550  26.440   5.836 -0.0179  0.0316 -0.3494
 5825POPC   C1B70689  20.394  27.374   4.538  0.1088 -0.6759 -0.1605
 5825POPC   C2B70690  20.466  27.445   4.990  0.1745 -0.1635  0.2600
 5825POPC   C3B70691  20.523  27.461   5.457 -0.0283 -0.0605  0.0228
 5825POPC   C4B70692  20.229  27.572   5.790 -0.2217  0.0328  0.0409
 5826POPC   NC370693  22.736  16.931   4.172  0.0137  0.0422 -0.2469
 5826POPC   PO470694  22.630  17.285   4.005 -0.2131  0.1092 -0.2745
 5826POPC   GL170695  22.412  17.416   4.322 -0.0013  0.0167 -0.0744
 5826POPC   GL270696  22.541  17.232   4.499 -0.1690 -0.0316  0.0221
 5826POPC   C1A70697  22.085  17.239   4.656  0.0398 -0.1552 -0.0482
 5826POPC   D2A70698  21.734  16.993   4.805  0.2891 -0.0136  0.1255
 5826POPC   C3A70699  21.328  17.021   4.571 -0.0408  0.1360  0.2979
 5826POPC   C4A70700  21.077  17.143   4.258  0.1875 -0.3178 -0.0341
 5826POPC   C1B70701  22.537  17.317   4.914 -0.2927  0.0183 -0.0675
 5826POPC   C2B70702  22.467  17.232   5.341 -0.0298  0.0275 -0.3656
 5826POPC   C3B70703  22.128  17.065   5.571 -0.1178  0.1221 -0.5119
 5826POPC   C4B70704  21.741  16.913   5.424 -0.1052 -0.4378  0.3574
 5827POPC   NC370705   8.736  14.268   3.355  0.0219 -0.2701  0.0342
 5827POPC   PO470706   8.682  14.327   3.742  0.0549  0.1633 -0.2057
 5827POPC   GL170707   8.893  14.487   4.096  0.0341 -0.1863  0.0562
 5827POPC   GL270708   9.174  14.554   4.013 -0.1474  0.1189  0.1914
 5827POPC   C1A70709   8.784  14.741   4.460 -0.0196 -0.0731  0.1687
 5827POPC   D2A70710   8.514  14.508   4.718 -0.1007 -0.0031  0.1804
 5827POPC   C3A70711   8.661  14.634   5.134  0.1631 -0.2389  0.1909
 5827POPC   C4A70712   8.857  14.774   5.529  0.0116 -0.1025  0.0718
 5827POPC   C1B70713   9.231  14.494   4.461 -0.0207  0.1357 -0.1493
 5827POPC   C2B70714   9.045  14.291   4.842  0.0047  0.1218 -0.0979
 5827POPC   C3B70715   8.984  13.825   4.858 -0.0219  0.1537 -0.2727
 5827POPC   C4B70716   8.940  13.398   4.849  0.3374  0.4541  0.1933
 5828POPC   NC370717   2.063  11.682   3.833  0.3630  0.2000  0.1572
 5828POPC   PO470718   1.855  11.387   3.688 -0.0203 -0.0364  0.0786
 5828POPC   GL170719   1.875  11.261   4.002  0.0369 -0.0445  0.1856
 5828POPC   GL270720   2.179  11.279   4.014 -0.4549  0.1666 -0.3402
 5828POPC   C1A70721   1.709  11.166   4.416  0.0555  0.0691 -0.0585
 5828POPC   D2A70722   1.354  11.504   4.505 -0.0225  0.4004 -0.1104
 5828POPC   C3A70723   1.179  11.528   4.940 -0.2359  0.0358 -0.0587
 5828POPC   C4A70724   0.944  11.764   5.250  0.0882  0.1646  0.0495
 5828POPC   C1B70725   2.127  10.912   4.251  0.0604 -0.3478 -0.0019
 5828POPC   C2B70726   2.399  10.777   4.622  0.1943 -0.2308  0.0624
 5828POPC   C3B70727   2.581  10.958   4.983 -0.2728 -0.2194 -0.1557
 5828POPC   C4B70728   2.761  11.220   5.293  0.2432  0.0408  0.0364
 5829POPC   NC370729  22.947  27.798   3.458  0.0877 -0.2889 -0.1893
 5829POPC   PO470730  22.760  28.148   3.553 -0.0557 -0.1937 -0.1944
 5829POPC   GL170731  22.710  27.977   3.869 -0.2900 -0.0519  0.0520
 5829POPC   GL270732  22.432  28.087   3.926 -0.0522 -0.1466  0.2037
 5829POPC   C1A70733  22.996  28.087   4.189 -0.4062  0.0172  0.0376
 5829POPC   D2A70734  22.901  28.419   4.522 -0.2752 -0.0639  0.0238
 5829POPC   C3A70735  23.229  28.638   4.738 -0.0411 -0.2827 -0.1617
 5829POPC   C4A70736  23.333  28.964   5.020  0.0644 -0.2976 -0.0446
 5829POPC   C1B70737  22.314  28.309   4.349  0.1143  0.2107 -0.1883
 5829POPC   C2B70738  22.093  28.139   4.738  0.4518  0.0768 -0.0752
 5829POPC   C3B70739  22.071  28.174   5.194  0.1298 -0.0120 -0.0241
 5829POPC   C4B70740  22.214  27.936   5.559 -0.0014 -0.1666  0.3728
 5830POPC   NC370741  14.547  21.892   3.660 -0.1517  0.1084  0.1885
 5830POPC   PO470742  14.713  22.216   3.590 -0.1626  0.0717  0.1817
 5830POPC   GL170743  14.721  22.344   3.919  0.2533  0.0709 -0.0802
 5830POPC   GL270744  14.439  22.240   4.054 -0.1298  0.0731  0.0715
 5830POPC   C1A70745  14.812  22.358   4.375 -0.0994  0.0083  0.0648
 5830POPC   D2A70746  14.806  22.288   4.842 -0.0658 -0.0068 -0.1050
 5830POPC   C3A70747  15.163  21.931   4.890  0.1275 -0.1119  0.2241
 5830POPC   C4A70748  15.505  21.726   5.079 -0.2609  0.1736 -0.3720
 5830POPC   C1B70749  14.403  22.151   4.479  0.0218  0.0118  0.3586
 5830POPC   C2B70750  14.356  21.964   4.847  0.0338 -0.1268 -0.0499
 5830POPC   C3B70751  14.250  21.811   5.271  0.1258  0.2060 -0.0400
 5830POPC   C4B70752  14.337  21.924   5.678 -0.0604  0.0726  0.0996
 5831POPC   NC370753  17.336  27.702   3.418 -0.2229 -0.1952 -0.2141
 5831POPC   PO470754  17.117  28.007   3.485 -0.0854  0.0799 -0.1370
 5831POPC   GL170755  17.282  28.087   3.861 -0.1750 -0.3021 -0.4075
 5831POPC   GL270756  17.490  27.927   3.834  0.2593 -0.2687 -0.3232
 5831POPC   C1A70757  17.118  28.061   4.237  0.3226  0.1377  0.0012
 5831POPC   D2A70758  17.197  27.880   4.657 -0.0979  0.1556  0.0180
 5831POPC   C3A70759  17.087  28.288   4.938 -0.3033  0.0457 -0.0915
 5831POPC   C4A70760  17.114  28.622   5.268  0.1804 -0.0389 -0.1589
 5831POPC   C1B70761  17.752  27.785   4.190  0.1534 -0.1003  0.1910
 5831POPC   C2B70762  17.723  27.725   4.627  0.0137 -0.0670 -0.1522
 5831POPC   C3B70763  17.702  27.781   5.065 -0.2573 -0.0566 -0.0919
 5831POPC   C4B70764  17.500  27.643   5.512 -0.0331 -0.1276  0.1095
 5832POPC   NC370765   5.503  20.596   3.798  0.0707  0.4141  0.2583
 5832POPC   PO470766   5.177  20.557   3.574 -0.2114  0.0126  0.0804
 5832POPC   GL170767   4.986  20.433   3.947  0.1137 -0.0642 -0.3109
 5832POPC   GL270768   5.198  20.292   4.025  0.1112 -0.2720 -0.1391
 5832POPC   C1A70769   4.766  20.445   4.411  0.0842  0.0372 -0.2721
 5832POPC   D2A70770   4.750  20.711   4.816  0.0461  0.2096  0.2288
 5832POPC   C3A70771   4.420  20.831   5.126  0.0852 -0.1603 -0.2269
 5832POPC   C4A70772   4.053  20.999   5.216  0.2213 -0.1700 -0.1055
 5832POPC   C1B70773   5.302  20.339   4.449  0.0625  0.1280 -0.3460
 5832POPC   C2B70774   5.115  20.300   4.889 -0.2163  0.1764 -0.0098
 5832POPC   C3B70775   5.125  20.665   5.225  0.0672  0.2305  0.1962
 5832POPC   C4B70776   5.386  20.971   5.464 -0.0410  0.0227 -0.0183
 5833POPC   NC370777  28.777   6.029   3.126 -0.0524 -0.0722  0.0901
 5833POPC   PO470778  28.974   6.344   3.229 -0.2034  0.1880 -0.0488
 5833POPC   GL170779  29.034   6.261   3.732  0.1911  0.0685  0.2989
 5833POPC   GL270780  29.273   6.473   3.686 -0.2103 -0.0895 -0.2112
 5833POPC   C1A70781  29.107   5.831   3.858  0.3100  0.0658 -0.2320
 5833POPC   D2A70782  29.293   5.480   4.114 -0.2185  0.0759 -0.0054
 5833POPC   C3A70783  29.216   5.166   4.511 -0.0186  0.1013 -0.0079
 5833POPC   C4A70784  29.409   4.865   4.819  0.3680  0.2518 -0.1553
 5833POPC   C1B70785  29.412   6.420   4.148  0.1456 -0.1055  0.0713
 5833POPC   C2B70786  29.691   6.444   4.492 -0.2387  0.1132 -0.0488
 5833POPC   C3B70787  29.883   6.592   4.870 -0.1341 -0.0630  0.0775
 5833POPC   C4B70788  29.889   6.648   5.325  0.0154  0.2154  0.2462
 5834POPC   NC370789  18.745  29.041   4.079 -0.0727  0.2796  0.2319
 5834POPC   PO470790  18.830  28.674   3.913  0.2356  0.1286 -0.2332
 5834POPC   GL170791  18.465  28.654   4.079 -0.0044  0.0668  0.0817
 5834POPC   GL270792  18.528  28.381   4.217  0.0125  0.4226  0.0040
 5834POPC   C1A70793  18.369  28.885   4.466  0.2290 -0.2531  0.0326
 5834POPC   D2A70794  18.274  29.115   4.868 -0.0262  0.1857 -0.0069
 5834POPC   C3A70795  18.616  29.290   5.110 -0.2346 -0.0019 -0.1232
 5834POPC   C4A70796  18.918  29.299   5.393 -0.0550 -0.1180 -0.0060
 5834POPC   C1B70797  18.718  28.480   4.579 -0.2202  0.2017 -0.0452
 5834POPC   C2B70798  18.582  28.697   4.966 -0.0588 -0.2516  0.0972
 5834POPC   C3B70799  18.418  28.874   5.366  0.0152 -0.1649 -0.1363
 5834POPC   C4B70800  18.381  28.760   5.850 -0.0080 -0.0309  0.0056
 5835POPC   NC370801  21.617  27.507   3.942  0.3032 -0.0117 -0.0141
 5835POPC   PO470802  21.749  27.160   3.803  0.0613  0.1901  0.0273
 5835POPC   GL170803  21.699  27.156   4.291 -0.1869  0.0835 -0.0382
 5835POPC   GL270804  21.669  27.431   4.418  0.0752  0.0196  0.0388
 5835POPC   C1A70805  21.980  27.152   4.649  0.0552 -0.1971  0.1774
 5835POPC   D2A70806  22.039  27.206   5.094 -0.1813 -0.1434 -0.0375
 5835POPC   C3A70807  22.004  27.417   5.454 -0.1886 -0.0346 -0.1183
 5835POPC   C4A70808  21.960  27.477   5.901 -0.0207  0.0061  0.0508
 5835POPC   C1B70809  21.536  27.261   4.811 -0.0936  0.1021 -0.1347
 5835POPC   C2B70810  21.555  27.249   5.245 -0.0392  0.1435 -0.1656
 5835POPC   C3B70811  21.567  27.245   5.694  0.2880  0.0847  0.0886
 5835POPC   C4B70812  21.789  26.992   6.001 -0.0059  0.0482  0.1797
 5836POPC   NC370813  18.014  10.270   3.478  0.0212  0.1761 -0.1266
 5836POPC   PO470814  17.752  10.139   3.754 -0.0688  0.1879  0.1918
 5836POPC   GL170815  17.934  10.205   4.123 -0.1634  0.0921  0.5517
 5836POPC   GL270816  17.741  10.066   4.282 -0.2193  0.1416  0.1174
 5836POPC   C1A70817  17.845  10.630   4.399 -0.3171 -0.2399 -0.0151
 5836POPC   D2A70818  17.772  10.905   4.769 -0.0864 -0.1297  0.0524
 5836POPC   C3A70819  17.589  10.778   5.149  0.0447  0.0692  0.0022
 5836POPC   C4A70820  17.571  10.880   5.581  0.1909 -0.0166  0.1370
 5836POPC   C1B70821  17.651   9.837   4.620  0.1440 -0.0157 -0.2828
 5836POPC   C2B70822  17.568   9.910   5.100  0.1619  0.1060  0.0078
 5836POPC   C3B70823  17.305   9.891   5.540 -0.0847 -0.1576  0.0637
 5836POPC   C4B70824  17.141  10.119   5.853 -0.0812 -0.0403 -0.0248
 5837POPC   NC370825   1.067  16.431   3.316  0.1461  0.0621 -0.3210
 5837POPC   PO470826   1.378  16.674   3.371  0.2534 -0.1478 -0.1238
 5837POPC   GL170827   1.299  16.924   3.690 -0.0163 -0.1449 -0.1276
 5837POPC   GL270828   1.541  16.958   3.778  0.1296  0.1156 -0.2143
 5837POPC   C1A70829   0.926  16.887   3.930  0.0736  0.0282 -0.3080
 5837POPC   D2A70830   0.711  17.132   4.250  0.0840 -0.0043 -0.1195
 5837POPC   C3A70831   0.385  17.229   4.509  0.2632 -0.1484 -0.3986
 5837POPC   C4A70832   0.012  17.398   4.701 -0.0929 -0.3134 -0.1627
 5837POPC   C1B70833   1.778  17.108   4.112 -0.0642 -0.3490  0.0432
 5837POPC   C2B70834   1.675  17.130   4.563 -0.1498 -0.1822  0.2314
 5837POPC   C3B70835   1.873  16.932   4.934 -0.2287  0.0225 -0.2282
 5837POPC   C4B70836   2.232  16.830   5.209 -0.1602 -0.5012  0.3655
 5838POPC   NC370837  23.236  27.156   3.916  0.1744  0.0449  0.2718
 5838POPC   PO470838  23.049  26.860   3.728 -0.1790  0.2868 -0.1501
 5838POPC   GL170839  23.352  26.729   4.060 -0.0240 -0.2282 -0.2985
 5838POPC   GL270840  23.360  26.473   4.064 -0.2799 -0.4574 -0.2124
 5838POPC   C1A70841  23.284  26.938   4.477 -0.0487 -0.0871  0.1161
 5838POPC   D2A70842  23.311  27.339   4.731  0.0447 -0.0282  0.2241
 5838POPC   C3A70843  23.227  27.336   5.165  0.0087  0.0410 -0.1096
 5838POPC   C4A70844  23.083  27.310   5.629 -0.0039 -0.0710  0.0488
 5838POPC   C1B70845  23.278  26.394   4.452 -0.0107  0.1847  0.0611
 5838POPC   C2B70846  23.260  26.240   4.870  0.0112 -0.1520 -0.0277
 5838POPC   C3B70847  23.382  26.554   5.188  0.0657 -0.1880  0.0849
 5838POPC   C4B70848  23.535  26.903   5.437  0.0407  0.3227 -0.1030
 5839POPC   NC370849  12.753  12.641   3.222  0.1225  0.2242 -0.1530
 5839POPC   PO470850  12.532  12.384   3.443 -0.0182 -0.2261 -0.1984
 5839POPC   GL170851  12.524  12.599   3.828 -0.1480  0.0046 -0.1417
 5839POPC   GL270852  12.745  12.484   3.932  0.1263  0.1450 -0.2184
 5839POPC   C1A70853  12.353  12.563   4.315  0.3266  0.4906 -0.0571
 5839POPC   D2A70854  12.506  12.383   4.735 -0.0297 -0.3439  0.0279
 5839POPC   C3A70855  12.423  12.463   5.194  0.1848 -0.3163 -0.0904
 5839POPC   C4A70856  12.155  12.508   5.546  0.1719 -0.2595  0.1996
 5839POPC   C1B70857  12.706  12.102   4.227 -0.2086  0.0202  0.0150
 5839POPC   C2B70858  12.604  11.858   4.611 -0.1306 -0.0315 -0.0468
 5839POPC   C3B70859  12.763  11.960   5.078  0.0128  0.2085 -0.2068
 5839POPC   C4B70860  12.537  11.807   5.453  0.1007  0.5017  0.2027
 5840POPC   NC370861  26.221  22.481   3.790 -0.3539  0.1542  0.3467
 5840POPC   PO470862  26.270  22.883   3.756  0.1082  0.1388  0.3886
 5840POPC   GL170863  26.564  22.877   3.968  0.0654  0.3568 -0.2685
 5840POPC   GL270864  26.387  22.697   4.214  0.2368  0.2747  0.3485
 5840POPC   C1A70865  26.791  22.744   4.373  0.0760  0.1712 -0.0758
 5840POPC   D2A70866  26.911  22.822   4.786  0.1429 -0.0377 -0.0483
 5840POPC   C3A70867  26.626  22.926   5.129 -0.1139 -0.0395  0.1780
 5840POPC   C4A70868  26.380  23.219   5.335  0.0803  0.0580 -0.1091
 5840POPC   C1B70869  26.394  22.607   4.659 -0.0823 -0.2559 -0.0532
 5840POPC   C2B70870  26.228  22.621   5.106  0.0800  0.1321  0.0623
 5840POPC   C3B70871  26.229  22.769   5.493  0.1887 -0.3081  0.0723
 5840POPC   C4B70872  26.170  23.110   5.797 -0.1310  0.4182 -0.1023
 5841POPC   NC370873  14.205   2.664   3.231  0.0282  0.1668 -0.1009
 5841POPC   PO470874  14.116   2.944   3.500  0.0889  0.2012  0.0445
 5841POPC   GL170875  14.265   3.103   3.849  0.2377 -0.0755 -0.2189
 5841POPC   GL270876  14.076   3.253   3.980  0.1855 -0.2635  0.1052
 5841POPC   C1A70877  14.160   2.871   4.297  0.1976 -0.1178  0.1285
 5841POPC   D2A70878  14.017   2.887   4.756  0.2111  0.0294 -0.1814
 5841POPC   C3A70879  13.928   2.849   5.215 -0.1331 -0.1971  0.1084
 5841POPC   C4A70880  14.062   2.532   5.576  0.2472 -0.0488 -0.0601
 5841POPC   C1B70881  13.716   3.145   4.235 -0.1055  0.1834 -0.0023
 5841POPC   C2B70882  13.509   2.961   4.589 -0.1412  0.1428 -0.1773
 5841POPC   C3B70883  13.516   2.847   4.993 -0.2687 -0.2507 -0.0684
 5841POPC   C4B70884  13.417   2.935   5.439 -0.0215  0.2801  0.0590
 5842POPC   NC370885  20.499  20.846   3.240  0.0448  0.0210  0.0520
 5842POPC   PO470886  20.569  20.691   3.583 -0.0722  0.0090 -0.0084
 5842POPC   GL170887  20.717  20.497   3.977  0.0294 -0.0640 -0.1226
 5842POPC   GL270888  20.925  20.567   4.207  0.0531 -0.0048 -0.2801
 5842POPC   C1A70889  20.472  20.382   4.391  0.2648 -0.0239 -0.0140
 5842POPC   D2A70890  20.304  19.923   4.467  0.3325  0.1273  0.0045
 5842POPC   C3A70891  20.413  19.899   4.936  0.0408  0.2627 -0.1781
 5842POPC   C4A70892  20.382  19.752   5.393 -0.0489 -0.1166  0.1016
 5842POPC   C1B70893  20.777  20.714   4.611 -0.0652  0.0016  0.0038
 5842POPC   C2B70894  20.653  20.941   4.954  0.0942 -0.1482 -0.0273
 5842POPC   C3B70895  20.692  20.992   5.398 -0.1402  0.0833  0.0728
 5842POPC   C4B70896  20.566  21.241   5.767 -0.1750  0.1057 -0.2568
 5843POPC   NC370897  19.613   0.832   3.631  0.0910 -0.0439  0.4614
 5843POPC   PO470898  19.649   1.166   3.537 -0.0871  0.3052  0.0697
 5843POPC   GL170899  19.615   1.205   3.951  0.1603  0.0591 -0.0785
 5843POPC   GL270900  19.383   1.100   4.042 -0.2681  0.1218 -0.0304
 5843POPC   C1A70901  19.750   1.324   4.382 -0.1294 -0.2360  0.0656
 5843POPC   D2A70902  19.798   1.555   4.760  0.1948 -0.0765 -0.1139
 5843POPC   C3A70903  19.638   1.890   4.978 -0.0637 -0.2459  0.0066
 5843POPC   C4A70904  19.426   2.210   5.212 -0.1237 -0.3482 -0.3593
 5843POPC   C1B70905  19.299   1.052   4.488 -0.0320  0.0587  0.1671
 5843POPC   C2B70906  19.422   1.238   4.877  0.0340  0.2555 -0.1779
 5843POPC   C3B70907  19.441   1.516   5.255  0.0787  0.1854  0.1478
 5843POPC   C4B70908  19.546   1.769   5.631 -0.2141  0.3313 -0.1428
 5844POPC   NC370909  11.549  29.577   4.058  0.1174  0.0188  0.1412
 5844POPC   PO470910  11.284  29.281   3.970 -0.1242  0.0448 -0.2267
 5844POPC   GL170911  11.194  29.281   4.377 -0.3831  0.1434  0.1003
 5844POPC   GL270912  11.197  29.568   4.409  0.0683  0.2940  0.1496
 5844POPC   C1A70913  11.505  29.073   4.648 -0.3046 -0.1400 -0.2570
 5844POPC   D2A70914  11.526  28.879   5.049  0.1737 -0.1854 -0.3086
 5844POPC   C3A70915  11.718  28.752   5.474 -0.0801  0.0768  0.1221
 5844POPC   C4A70916  11.865  28.987   5.829 -0.3422 -0.2337  0.3105
 5844POPC   C1B70917  11.270  29.502   4.885 -0.1941 -0.0386 -0.3160
 5844POPC   C2B70918  11.381  29.316   5.290  0.0253  0.2054 -0.0659
 5844POPC   C3B70919  11.254  29.018   5.556  0.0583 -0.3329 -0.1861
 5844POPC   C4B70920  11.164  28.529   5.428 -0.1520  0.3641  0.1221
 5845POPC   NC370921  19.569  18.355   2.478 -0.1432 -0.0738 -0.3510
 5845POPC   PO470922  19.533  18.629   2.799 -0.3843  0.1456  0.2190
 5845POPC   GL170923  19.844  18.446   2.988 -0.1592  0.5550  0.0905
 5845POPC   GL270924  19.998  18.290   2.778  0.1493 -0.0819 -0.0613
 5845POPC   C1A70925  20.286  18.520   3.150  0.1044 -0.4320  0.1835
 5845POPC   D2A70926  20.510  18.718   3.442 -0.3605 -0.0372 -0.1694
 5845POPC   C3A70927  20.624  19.050   3.277 -0.1669 -0.0403 -0.0289
 5845POPC   C4A70928  20.896  19.451   3.240  0.0553  0.2854 -0.0964
 5845POPC   C1B70929  20.460  18.210   2.591  0.1564 -0.0428 -0.0434
 5845POPC   C2B70930  20.788  18.453   2.621  0.2923 -0.0294  0.0761
 5845POPC   C3B70931  21.220  18.659   2.737  0.1213  0.0222 -0.1513
 5845POPC   C4B70932  21.634  18.600   2.742 -0.0660  0.0135  0.0926
 5846POPC   NC370933  11.116   5.008   3.316 -0.3841  0.0971 -0.1763
 5846POPC   PO470934  11.110   4.725   3.559  0.0431  0.2301  0.1152
 5846POPC   GL170935  11.182   4.649   3.986  0.3808 -0.2221 -0.1990
 5846POPC   GL270936  11.197   4.922   4.034  0.1781 -0.2714  0.2174
 5846POPC   C1A70937  11.028   4.343   4.290 -0.1229  0.0824  0.0340
 5846POPC   D2A70938  11.107   4.202   4.682 -0.1426 -0.0160  0.1441
 5846POPC   C3A70939  11.198   4.488   5.070 -0.2161 -0.1859  0.4174
 5846POPC   C4A70940  11.362   4.778   5.419 -0.1600 -0.4291  0.0779
 5846POPC   C1B70941  11.191   5.148   4.427  0.3387 -0.1241 -0.0045
 5846POPC   C2B70942  11.343   5.041   4.848  0.0490 -0.0846 -0.1996
 5846POPC   C3B70943  11.621   5.204   5.178 -0.1247  0.1238 -0.2860
 5846POPC   C4B70944  11.802   5.686   5.204  0.0303 -0.0738 -0.1631
 5847POPC   NC370945  29.874  17.173   3.298  0.2535 -0.0029  0.2462
 5847POPC   PO470946  30.006  17.555   3.352 -0.0378  0.0303  0.0072
 5847POPC   GL170947  29.927  17.458   3.699  0.1880 -0.3577  0.1038
 5847POPC   GL270948  30.187  17.522   3.847  0.0001 -0.0057  0.1400
 5847POPC   C1A70949  29.619  17.136   3.933 -0.0385  0.1616  0.1512
 5847POPC   D2A70950  29.709  16.768   4.135 -0.1999 -0.1181 -0.1932
 5847POPC   C3A70951  29.484  16.679   4.513  0.1254  0.3017  0.4066
 5847POPC   C4A70952  29.290  16.991   4.740 -0.1623  0.0000 -0.1300
 5847POPC   C1B70953  30.098  17.159   4.177 -0.0928  0.0533  0.1673
 5847POPC   C2B70954  29.982  16.882   4.560 -0.0396  0.2410  0.0877
 5847POPC   C3B70955  29.738  16.679   4.906  0.0240 -0.0398 -0.2206
 5847POPC   C4B70956  29.447  16.699   5.263  0.1521 -0.1548  0.2329
 5848POPC   NC370957   4.508  25.222   3.775  0.3336 -0.4628  0.1994
 5848POPC   PO470958   4.696  25.547   3.673  0.0048  0.0592  0.1525
 5848POPC   GL170959   4.592  25.652   4.060 -0.1374 -0.2629  0.2777
 5848POPC   GL270960   4.327  25.616   3.968  0.0103 -0.2371 -0.0254
 5848POPC   C1A70961   4.700  25.528   4.481  0.0694  0.0007 -0.2996
 5848POPC   D2A70962   4.665  25.687   4.897 -0.5586  0.0568  0.0976
 5848POPC   C3A70963   4.399  25.461   5.224 -0.0463  0.1344  0.0473
 5848POPC   C4A70964   4.336  25.504   5.631  0.0610 -0.0604  0.3413
 5848POPC   C1B70965   4.207  25.623   4.402 -0.0719  0.2712  0.0056
 5848POPC   C2B70966   4.115  25.688   4.852 -0.2981  0.1256 -0.0193
 5848POPC   C3B70967   3.954  25.683   5.270 -0.1689  0.1475  0.0095
 5848POPC   C4B70968   3.852  25.475   5.690  0.4204  0.1496  0.0742
 5849POPC   NC370969  27.718  18.161   3.288  0.1131 -0.0733  0.3490
 5849POPC   PO470970  27.787  18.327   3.610  0.1539  0.3117 -0.0208
 5849POPC   GL170971  27.735  18.528   3.968 -0.0853  0.1128  0.1874
 5849POPC   GL270972  27.735  18.301   4.128  0.1127 -0.1217  0.3653
 5849POPC   C1A70973  27.680  18.679   4.435 -0.2951 -0.0337 -0.0533
 5849POPC   D2A70974  27.727  18.687   4.933 -0.0699  0.4320  0.1551
 5849POPC   C3A70975  27.402  18.422   5.108 -0.0013 -0.0304 -0.1785
 5849POPC   C4A70976  27.211  18.017   5.239 -0.0292 -0.2493  0.0980
 5849POPC   C1B70977  28.030  18.221   4.496  0.6008  0.0751  0.0671
 5849POPC   C2B70978  28.108  18.326   4.902 -0.3160 -0.1669 -0.1472
 5849POPC   C3B70979  28.277  18.603   5.231 -0.0939  0.3161 -0.1196
 5849POPC   C4B70980  28.551  18.759   5.613  0.0483  0.1000  0.1824
 5850POPC   NC370981  17.549  10.471   4.042 -0.0274  0.2928 -0.1364
 5850POPC   PO470982  17.222  10.619   3.913  0.1683  0.0874  0.1438
 5850POPC   GL170983  17.144  10.769   4.275 -0.1985 -0.2612  0.1228
 5850POPC   GL270984  17.393  10.815   4.372  0.0284  0.1457 -0.0660
 5850POPC   C1A70985  17.095  11.145   4.485  0.1283 -0.0619 -0.1684
 5850POPC   D2A70986  17.035  11.390   4.867  0.2396 -0.0769  0.3590
 5850POPC   C3A70987  17.165  11.649   5.232  0.3420  0.0568  0.1382
 5850POPC   C4A70988  17.171  11.668   5.699 -0.0520  0.0349  0.1951
 5850POPC   C1B70989  17.262  10.874   4.842  0.0340 -0.2860 -0.0059
 5850POPC   C2B70990  17.173  11.003   5.305 -0.0041 -0.0807  0.3177
 5850POPC   C3B70991  17.114  11.162   5.695 -0.1360 -0.1057 -0.0125
 5850POPC   C4B70992  17.062  11.373   6.106 -0.0999  0.1430 -0.3292
 5851POPC   NC370993   4.869  31.499   3.320 -0.1175 -0.1109 -0.0023
 5851POPC   PO470994   5.094  31.450   3.578 -0.3065 -0.0128  0.0649
 5851POPC   GL170995   5.036  31.555   3.985 -0.1872 -0.0628  0.2725
 5851POPC   GL270996   5.217  31.777   4.182  0.1370  0.1725  0.1583
 5851POPC   C1A70997   5.019  31.221   4.264 -0.2046 -0.0363 -0.0304
 5851POPC   D2A70998   5.136  31.028   4.609 -0.3059 -0.2168  0.1017
 5851POPC   C3A70999   4.979  31.008   5.045  0.0541  0.0759  0.2883
 5851POPC   C4A71000   4.785  31.191   5.454  0.0558  0.1447 -0.0195
 5851POPC   C1B71001   5.076  31.996   4.603  0.0386 -0.4822  0.0619
 5851POPC   C2B71002   5.069  32.436   4.817  0.2145  0.1391 -0.1196
 5851POPC   C3B71003   4.921  32.652   5.213  0.5514 -0.5197 -0.0020
 5851POPC   C4B71004   4.799  32.973   5.521 -0.1177 -0.1537  0.3911
 5852POPC   NC371005   6.334   9.710   3.085 -0.0560  0.1205 -0.2115
 5852POPC   PO471006   6.481   9.639   3.469 -0.2787  0.2062  0.0174
 5852POPC   GL171007   6.581   9.866   3.764 -0.0907 -0.0751  0.3188
 5852POPC   GL271008   6.498  10.129   3.670  0.0381  0.2410  0.2325
 5852POPC   C1A71009   6.689  10.104   4.134 -0.1244  0.2392 -0.1758
 5852POPC   D2A71010   7.022  10.098   4.465  0.1202  0.0156 -0.2525
 5852POPC   C3A71011   7.043  10.391   4.811 -0.0372  0.0090  0.0866
 5852POPC   C4A71012   6.859  10.744   5.185 -0.0744  0.1223  0.1204
 5852POPC   C1B71013   6.368  10.351   3.319  0.0351 -0.1619  0.2924
 5852POPC   C2B71014   6.493  10.458   2.925  0.0687 -0.3643 -0.2041
 5852POPC   C3B71015   6.676  10.661   2.505  0.3032  0.1422  0.0961
 5852POPC   C4B71016   6.381  10.881   2.285  0.2604 -0.1016  0.1616
 5853POPC   NC371017   7.677  21.516   3.902  0.0103  0.4293 -0.1349
 5853POPC   PO471018   7.587  21.887   3.858  0.1544  0.0450  0.1037
 5853POPC   GL171019   7.401  21.815   4.143  0.3098  0.0486  0.2575
 5853POPC   GL271020   7.174  21.625   4.029  0.1485  0.2121 -0.0036
 5853POPC   C1A71021   7.089  22.011   4.411 -0.2380  0.0015 -0.0923
 5853POPC   D2A71022   6.848  22.089   4.821 -0.1834  0.0811 -0.1667
 5853POPC   C3A71023   7.092  22.084   5.226  0.2322  0.2262  0.3164
 5853POPC   C4A71024   7.436  22.060   5.452 -0.0200  0.1131 -0.4116
 5853POPC   C1B71025   7.199  21.485   4.469  0.2205  0.0575 -0.0636
 5853POPC   C2B71026   6.947  21.572   4.852  0.1586 -0.0110 -0.0661
 5853POPC   C3B71027   6.828  21.511   5.270 -0.0719 -0.0095  0.1802
 5853POPC   C4B71028   6.778  21.438   5.772  0.0901  0.0009  0.2922
 5854POPC   NC371029   5.859  21.178   3.556 -0.2733 -0.3218  0.0780
 5854POPC   PO471030   5.863  21.513   3.633  0.0401 -0.0933 -0.0474
 5854POPC   GL171031   5.799  21.664   3.985 -0.0067 -0.3361 -0.2044
 5854POPC   GL271032   5.822  21.419   4.134 -0.4633  0.2692  0.1375
 5854POPC   C1A71033   5.485  21.719   4.295  0.1576  0.3200  0.0498
 5854POPC   D2A71034   5.240  21.673   4.706  0.1776  0.2989 -0.0293
 5854POPC   C3A71035   5.265  21.823   5.161  0.0311 -0.1727  0.1107
 5854POPC   C4A71036   5.372  22.099   5.545 -0.1239  0.1092 -0.2107
 5854POPC   C1B71037   6.217  21.346   4.348 -0.4053 -0.0493 -0.0573
 5854POPC   C2B71038   6.394  21.593   4.682  0.0686  0.2590 -0.3441
 5854POPC   C3B71039   6.378  21.700   5.115 -0.0412 -0.0607  0.1323
 5854POPC   C4B71040   6.613  21.882   5.468 -0.1315 -0.1153  0.0464
 5855POPC   NC371041  16.693  12.531   3.902  0.0210 -0.0985 -0.1480
 5855POPC   PO471042  16.950  12.172   3.795 -0.1232 -0.0074 -0.0563
 5855POPC   GL171043  16.689  12.126   4.189  0.1705 -0.1363  0.1363
 5855POPC   GL271044  16.541  11.918   4.314  0.1843 -0.0280 -0.2186
 5855POPC   C1A71045  16.657  12.321   4.596  0.5365 -0.0309 -0.0246
 5855POPC   D2A71046  16.579  12.451   5.043  0.2032  0.2151  0.1599
 5855POPC   C3A71047  16.757  12.350   5.382 -0.0150  0.2114 -0.2608
 5855POPC   C4A71048  16.654  12.263   5.815 -0.0843  0.0284 -0.3559
 5855POPC   C1B71049  16.321  11.948   4.730 -0.1140 -0.1980 -0.0355
 5855POPC   C2B71050  16.212  11.931   5.179  0.1705 -0.0004 -0.2804
 5855POPC   C3B71051  16.170  12.111   5.603 -0.0080 -0.1063  0.0554
 5855POPC   C4B71052  16.092  12.406   5.949 -0.0342  0.0053 -0.1053
 5856POPC   NC371053  29.771   6.581   3.207 -0.0302  0.1291 -0.0946
 5856POPC   PO471054  29.763   6.530   3.563  0.0403  0.0468 -0.4345
 5856POPC   GL171055  29.714   6.601   3.857  0.3522 -0.0159 -0.3304
 5856POPC   GL271056  29.909   6.397   3.978 -0.0065  0.0187  0.1693
 5856POPC   C1A71057  29.819   6.860   4.250  0.3049 -0.0585 -0.0523
 5856POPC   D2A71058  29.830   7.112   4.645  0.2465  0.2683 -0.0115
 5856POPC   C3A71059  29.659   7.043   5.059 -0.1025  0.1642 -0.2770
 5856POPC   C4A71060  29.952   7.174   5.427  0.1266 -0.0779  0.2650
 5856POPC   C1B71061  30.052   6.017   4.229 -0.2149  0.1023 -0.0444
 5856POPC   C2B71062  30.014   5.896   4.719 -0.1591  0.1963  0.3797
 5856POPC   C3B71063  29.821   5.680   5.034 -0.2524 -0.2081  0.1170
 5856POPC   C4B71064  29.512   5.355   5.115  0.1428  0.2506  0.0838
 5857POPC   NC371065   7.574   4.472   3.111  0.1680  0.3437 -0.3275
 5857POPC   PO471066   7.903   4.719   3.171 -0.1261  0.1255 -0.0258
 5857POPC   GL171067   7.929   4.649   3.610  0.0685 -0.0751 -0.1559
 5857POPC   GL271068   8.075   4.378   3.642 -0.0009 -0.1695  0.1489
 5857POPC   C1A71069   7.754   4.802   3.988 -0.1183 -0.0870 -0.1442
 5857POPC   D2A71070   7.577   4.746   4.460 -0.1303 -0.3217  0.0928
 5857POPC   C3A71071   7.477   4.452   4.771  0.1896  0.0799 -0.2163
 5857POPC   C4A71072   7.098   4.297   5.008 -0.3860 -0.1094  0.0439
 5857POPC   C1B71073   8.196   4.435   4.092  0.2555 -0.0330  0.2166
 5857POPC   C2B71074   8.194   4.191   4.473  0.2634 -0.0692 -0.2241
 5857POPC   C3B71075   8.035   4.319   4.917 -0.1135 -0.3876  0.0557
 5857POPC   C4B71076   7.972   4.225   5.354  0.3026 -0.1531 -0.1028
 5858POPC   NC371077  19.754  19.276   2.337  0.1575  0.1161  0.3220
 5858POPC   PO471078  19.765  19.242   2.701 -0.0911 -0.0038 -0.0236
 5858POPC   GL171079  19.982  18.928   2.909  0.0230  0.1553 -0.1115
 5858POPC   GL271080  20.167  19.090   3.032  0.0553 -0.0003  0.0836
 5858POPC   C1A71081  19.933  18.748   3.334 -0.1697  0.1208 -0.1392
 5858POPC   D2A71082  19.925  18.596   3.731 -0.1063 -0.1610 -0.0505
 5858POPC   C3A71083  19.954  18.251   3.997  0.1336 -0.1664 -0.1269
 5858POPC   C4A71084  19.881  18.029   4.384 -0.0621 -0.0983  0.0681
 5858POPC   C1B71085  20.460  18.823   2.805  0.1124 -0.0532 -0.0570
 5858POPC   C2B71086  20.843  19.027   2.676  0.1741  0.3165 -0.0498
 5858POPC   C3B71087  21.175  19.150   2.911 -0.0608 -0.4061  0.1802
 5858POPC   C4B71088  21.662  19.062   3.002  0.1941 -0.1538 -0.1760
 5859POPC   NC371089   0.609   4.310   3.755  0.0410 -0.0044 -0.0740
 5859POPC   PO471090   0.226   4.407   3.855 -0.2903  0.0607  0.3056
 5859POPC   GL171091   0.166   4.447   4.226 -0.1882  0.0264 -0.1605
 5859POPC   GL271092  -0.062   4.668   4.260 -0.0531  0.0820  0.1211
 5859POPC   C1A71093   0.195   4.085   4.518 -0.2847 -0.1171  0.0344
 5859POPC   D2A71094   0.387   3.899   4.922  0.0740  0.1844 -0.0755
 5859POPC   C3A71095   0.148   3.878   5.326 -0.3355 -0.1609  0.1797
 5859POPC   C4A71096  -0.075   3.628   5.639  0.0768  0.0234 -0.2588
 5859POPC   C1B71097   0.047   4.495   4.639  0.3690 -0.2834 -0.1692
 5859POPC   C2B71098  -0.147   4.220   4.962  0.0712 -0.0750 -0.3850
 5859POPC   C3B71099  -0.378   4.215   5.321  0.0734  0.1363  0.1665
 5859POPC   C4B71100  -0.644   4.005   5.642 -0.1602  0.0746  0.0778
 5860POPC   NC371101   4.489  27.167   3.712  0.2329  0.0117  0.3554
 5860POPC   PO471102   4.171  27.021   3.517 -0.0188 -0.1051 -0.2978
 5860POPC   GL171103   4.010  27.176   3.882  0.0373  0.1225 -0.1042
 5860POPC   GL271104   3.846  27.132   4.113  0.0140 -0.1846 -0.0719
 5860POPC   C1A71105   4.299  27.417   4.199 -0.2748 -0.2176  0.3150
 5860POPC   D2A71106   4.640  27.316   4.522  0.1054 -0.0035  0.3584
 5860POPC   C3A71107   4.490  27.011   4.826 -0.3017 -0.0597 -0.4162
 5860POPC   C4A71108   4.500  26.691   5.151  0.0150 -0.0620 -0.0723
 5860POPC   C1B71109   3.809  26.738   4.440  0.2160 -0.0365  0.1606
 5860POPC   C2B71110   3.702  26.446   4.774  0.0386 -0.2455  0.0920
 5860POPC   C3B71111   3.357  26.337   5.059 -0.1757  0.0971  0.0263
 5860POPC   C4B71112   3.106  26.455   5.408  0.0021 -0.0878  0.1065
 5861POPC   NC371113  21.052  20.968   3.746 -0.0585  0.0311  0.2159
 5861POPC   PO471114  21.291  20.674   3.778  0.1230  0.2215 -0.3003
 5861POPC   GL171115  21.311  20.369   4.096 -0.2313 -0.3067 -0.0234
 5861POPC   GL271116  21.658  20.312   4.175 -0.1025 -0.1566 -0.0441
 5861POPC   C1A71117  21.328  20.365   4.584  0.1943 -0.1961  0.1700
 5861POPC   D2A71118  21.301  20.133   4.983  0.2014 -0.1076 -0.0203
 5861POPC   C3A71119  21.263  20.243   5.438  0.2537 -0.4753  0.1876
 5861POPC   C4A71120  21.037  20.136   5.838 -0.2034 -0.2444  0.5025
 5861POPC   C1B71121  21.861  20.354   4.619 -0.1480  0.1756 -0.0833
 5861POPC   C2B71122  22.100  20.318   4.958  0.0925 -0.0249  0.3869
 5861POPC   C3B71123  22.390  20.166   5.287  0.2616 -0.0007  0.0376
 5861POPC   C4B71124  22.376  19.879   5.625  0.0482 -0.4424  0.0477
 5862POPC   NC371125  28.419  18.486   3.429 -0.0587  0.0436  0.0421
 5862POPC   PO471126  28.220  18.169   3.295  0.1738  0.4596 -0.1375
 5862POPC   GL171127  28.218  18.077   3.715 -0.0492 -0.1946 -0.3122
 5862POPC   GL271128  28.239  18.323   3.945 -0.1370  0.1387 -0.1346
 5862POPC   C1A71129  28.263  17.713   3.982 -0.0166 -0.0076 -0.1411
 5862POPC   D2A71130  28.435  17.446   4.308  0.1930  0.5784 -0.0080
 5862POPC   C3A71131  28.878  17.630   4.341  0.2379 -0.0257  0.0258
 5862POPC   C4A71132  29.318  17.588   4.186 -0.0094  0.1289  0.2617
 5862POPC   C1B71133  28.448  18.031   4.313 -0.0685 -0.1859  0.0662
 5862POPC   C2B71134  28.826  18.169   4.603 -0.2854  0.1883 -0.2156
 5862POPC   C3B71135  29.071  18.147   5.034  0.1293  0.0196 -0.0446
 5862POPC   C4B71136  29.244  17.781   5.265 -0.4785 -0.0001 -0.0759
 5863POPC   NC371137  12.710   0.708   3.747 -0.1637 -0.1809 -0.1824
 5863POPC   PO471138  12.685   0.336   3.709  0.0345  0.3661  0.1629
 5863POPC   GL171139  12.760   0.400   4.117  0.1766 -0.1056  0.0352
 5863POPC   GL271140  12.651   0.178   4.296  0.2176  0.0641  0.1835
 5863POPC   C1A71141  13.031   0.525   4.449 -0.0780 -0.0411 -0.0439
 5863POPC   D2A71142  13.349   0.643   4.697 -0.0697 -0.0209 -0.2170
 5863POPC   C3A71143  13.693   0.897   4.782 -0.1111  0.1924  0.0641
 5863POPC   C4A71144  13.996   1.163   5.018 -0.0265  0.2630  0.2578
 5863POPC   C1B71145  12.634   0.007   4.709 -0.1254  0.1877 -0.1421
 5863POPC   C2B71146  12.741  -0.112   5.144 -0.1798 -0.3481  0.1316
 5863POPC   C3B71147  12.822  -0.605   5.257  0.0664  0.1986  0.1258
 5863POPC   C4B71148  13.190  -0.854   5.270 -0.2124  0.2926  0.0367
 5864POPC   NC371149  11.881  28.004   4.043  0.0895 -0.1402 -0.0373
 5864POPC   PO471150  12.259  28.107   3.958 -0.0221  0.0929 -0.0723
 5864POPC   GL171151  12.197  28.372   4.325 -0.0203 -0.0039  0.2233
 5864POPC   GL271152  12.209  28.186   4.477  0.1562  0.0903 -0.3910
 5864POPC   C1A71153  11.876  28.653   4.596  0.0063 -0.4724  0.0524
 5864POPC   D2A71154  11.444  28.630   4.581  0.0525  0.0308 -0.0605
 5864POPC   C3A71155  11.501  28.422   5.015 -0.1013 -0.3050  0.2492
 5864POPC   C4A71156  11.665  28.251   5.472 -0.0738 -0.2065 -0.0554
 5864POPC   C1B71157  12.466  28.119   4.864 -0.1781  0.2305  0.0796
 5864POPC   C2B71158  12.380  28.191   5.317 -0.0406  0.0274  0.1775
 5864POPC   C3B71159  12.278  28.517   5.553  0.2775 -0.1632  0.0387
 5864POPC   C4B71160  11.913  28.480   5.813  0.0013 -0.1048  0.3006
 5865POPC   NC371161  27.548  10.751   3.466  0.1354 -0.0446  0.0098
 5865POPC   PO471162  27.198  10.811   3.574 -0.1062 -0.1607 -0.0238
 5865POPC   GL171163  27.113  10.993   3.873  0.4783 -0.1217  0.1404
 5865POPC   GL271164  26.975  11.243   3.698 -0.1152 -0.0373 -0.1450
 5865POPC   C1A71165  26.799  11.115   4.187 -0.0881 -0.2268  0.0134
 5865POPC   D2A71166  26.685  11.338   4.606  0.3463  0.1821 -0.2647
 5865POPC   C3A71167  26.800  11.679   4.884  0.0320 -0.0464 -0.0824
 5865POPC   C4A71168  26.914  11.710   5.332 -0.2987  0.1311  0.1377
 5865POPC   C1B71169  27.086  11.527   4.065  0.1959  0.3816 -0.3108
 5865POPC   C2B71170  26.980  11.802   4.428  0.0730  0.0634  0.0463
 5865POPC   C3B71171  27.186  11.988   4.824  0.0413 -0.0361 -0.0170
 5865POPC   C4B71172  27.237  12.119   5.244 -0.0273  0.0190  0.0841
 5866POPC   NC371173  17.002  23.894   3.799  0.1617  0.0536 -0.1790
 5866POPC   PO471174  16.836  23.719   3.505 -0.0661  0.0573 -0.2214
 5866POPC   GL171175  16.784  23.499   3.875  0.2533  0.1281  0.1694
 5866POPC   GL271176  16.574  23.449   3.913  0.4451  0.0768 -0.1901
 5866POPC   C1A71177  17.013  23.616   4.329  0.0313 -0.1753  0.0986
 5866POPC   D2A71178  17.012  23.468   4.795  0.0846 -0.0287 -0.3456
 5866POPC   C3A71179  16.937  23.421   5.259  0.3727 -0.2393 -0.1233
 5866POPC   C4A71180  16.694  23.511   5.627 -0.0420 -0.0292 -0.0312
 5866POPC   C1B71181  16.361  23.238   4.275  0.3136  0.2794 -0.1222
 5866POPC   C2B71182  16.105  22.993   4.621 -0.0322 -0.2526  0.1519
 5866POPC   C3B71183  16.124  22.968   5.103 -0.2003  0.1273 -0.0085
 5866POPC   C4B71184  15.962  22.814   5.459 -0.0483 -0.1857  0.1337
 5867POPC   NC371185   5.367  23.225   3.946 -0.0763 -0.3307  0.1225
 5867POPC   PO471186   5.411  23.562   3.748  0.0628 -0.0785 -0.0425
 5867POPC   GL171187   5.383  23.720   4.127 -0.4677 -0.4351  0.1873
 5867POPC   GL271188   5.187  23.797   4.318  0.0681 -0.1355  0.3350
 5867POPC   C1A71189   5.648  23.635   4.476 -0.1852 -0.0636 -0.2405
 5867POPC   D2A71190   5.902  23.745   4.838  0.0141 -0.2098 -0.0770
 5867POPC   C3A71191   5.722  23.857   5.297 -0.1592  0.0025 -0.0864
 5867POPC   C4A71192   5.261  23.901   5.414 -0.0072  0.2317  0.0341
 5867POPC   C1B71193   5.007  23.628   4.705 -0.1926 -0.0266  0.1245
 5867POPC   C2B71194   4.940  23.582   5.155 -0.2260  0.1270 -0.0400
 5867POPC   C3B71195   4.879  23.533   5.557  0.0838  0.2356 -0.1412
 5867POPC   C4B71196   4.792  23.407   5.969  0.4210 -0.3814 -0.0993
 5868POPC   NC371197  29.934  11.429   3.550 -0.0045 -0.0400 -0.0240
 5868POPC   PO471198  30.120  11.091   3.647  0.1701 -0.2074 -0.0078
 5868POPC   GL171199  30.285  11.290   4.027  0.1809 -0.1557 -0.1968
 5868POPC   GL271200  30.419  11.022   4.071 -0.1250 -0.0976  0.0026
 5868POPC   C1A71201  30.736  11.398   4.053 -0.0783 -0.2489  0.0644
 5868POPC   D2A71202  31.099  11.182   4.254 -0.0774 -0.0494 -0.1923
 5868POPC   C3A71203  31.246  11.309   4.706  0.0654 -0.2287 -0.1259
 5868POPC   C4A71204  31.121  11.297   5.121 -0.0473 -0.1412 -0.1139
 5868POPC   C1B71205  30.768  10.807   4.378  0.2238 -0.2529  0.1141
 5868POPC   C2B71206  30.814  10.566   4.784 -0.1694 -0.1905 -0.0243
 5868POPC   C3B71207  30.713  10.402   5.216  0.2477  0.1283  0.1006
 5868POPC   C4B71208  30.941  10.055   5.448 -0.0878 -0.3679 -0.0297
 5869POPC   NC371209   4.055  28.839   3.674  0.4730 -0.0774 -0.1516
 5869POPC   PO471210   3.873  28.494   3.754  0.1890  0.0628 -0.2940
 5869POPC   GL171211   3.850  28.588   4.197  0.3162  0.3121  0.2313
 5869POPC   GL271212   3.954  28.278   4.291  0.0594 -0.4138 -0.2242
 5869POPC   C1A71213   3.908  28.712   4.636 -0.2213  0.2411 -0.0223
 5869POPC   D2A71214   4.144  28.580   4.949  0.0364 -0.2330 -0.2676
 5869POPC   C3A71215   4.204  28.750   5.418 -0.2529 -0.2738 -0.3422
 5869POPC   C4A71216   4.180  28.655   5.889  0.2447  0.2318 -0.4280
 5869POPC   C1B71217   3.883  28.161   4.717  0.0715  0.1824 -0.1765
 5869POPC   C2B71218   3.739  28.109   5.164 -0.4496 -0.0459  0.1246
 5869POPC   C3B71219   3.982  27.870   5.422  0.1119 -0.0812 -0.0879
 5869POPC   C4B71220   4.448  27.761   5.524 -0.1929 -0.2669 -0.1080
 5870POPC   NC371221  11.459  27.337   3.638  0.3947 -0.1403  0.3060
 5870POPC   PO471222  11.413  27.680   3.847  0.0115  0.2080 -0.1057
 5870POPC   GL171223  11.118  27.478   3.984  0.0419  0.2901 -0.1562
 5870POPC   GL271224  10.906  27.311   3.840  0.2289 -0.2290 -0.2145
 5870POPC   C1A71225  11.138  27.491   4.497 -0.0734 -0.2804 -0.1567
 5870POPC   D2A71226  11.029  27.616   4.897 -0.2706 -0.3084  0.2673
 5870POPC   C3A71227  11.195  27.295   5.152 -0.0696  0.2927 -0.1549
 5870POPC   C4A71228  11.574  27.227   5.410 -0.0740 -0.3538 -0.1531
 5870POPC   C1B71229  10.606  27.281   4.206  0.0089  0.0727  0.3007
 5870POPC   C2B71230  10.424  26.994   4.596 -0.3493 -0.0151  0.1393
 5870POPC   C3B71231  10.368  26.934   5.081  0.2092 -0.2031  0.1651
 5870POPC   C4B71232  10.341  26.957   5.547  0.3599  0.2220 -0.0258
 5871POPC   NC371233  13.285  11.610   3.160  0.0642 -0.1311 -0.0187
 5871POPC   PO471234  13.352  11.821   3.477 -0.1650  0.2973  0.1439
 5871POPC   GL171235  13.487  11.867   3.873 -0.0811  0.3526  0.0264
 5871POPC   GL271236  13.684  12.091   3.762 -0.3893  0.0285  0.1280
 5871POPC   C1A71237  13.442  11.851   4.335 -0.2604  0.0716  0.1321
 5871POPC   D2A71238  13.737  11.829   4.678  0.0392 -0.0314 -0.2552
 5871POPC   C3A71239  13.802  11.981   5.099 -0.0494 -0.0619 -0.1343
 5871POPC   C4A71240  13.932  11.847   5.545 -0.1706  0.0687 -0.0350
 5871POPC   C1B71241  13.945  12.003   4.116 -0.1637  0.0973  0.1106
 5871POPC   C2B71242  14.062  11.631   4.383  0.0409  0.1189 -0.1077
 5871POPC   C3B71243  14.036  11.251   4.646 -0.0427 -0.0031 -0.1934
 5871POPC   C4B71244  14.279  11.057   4.978 -0.0805  0.0672 -0.1120
 5872POPC   NC371245  15.176   3.440   4.001 -0.1762 -0.1935 -0.0230
 5872POPC   PO471246  15.565   3.481   3.852 -0.1968 -0.3168  0.2468
 5872POPC   GL171247  15.708   3.794   4.044 -0.2354  0.0323  0.1531
 5872POPC   GL271248  15.994   3.697   4.031  0.0367 -0.2594 -0.0299
 5872POPC   C1A71249  15.947   3.964   4.411 -0.1076  0.0003  0.1793
 5872POPC   D2A71250  15.983   3.988   4.834 -0.0609  0.0003 -0.0745
 5872POPC   C3A71251  16.251   4.347   4.827 -0.1951  0.3622 -0.0498
 5872POPC   C4A71252  16.704   4.390   4.607 -0.2214  0.1512  0.2513
 5872POPC   C1B71253  15.770   3.507   4.456  0.0944  0.1053  0.1643
 5872POPC   C2B71254  15.900   3.142   4.744 -0.1764 -0.1342 -0.0224
 5872POPC   C3B71255  15.841   3.059   5.186  0.0061  0.1924 -0.0959
 5872POPC   C4B71256  15.544   2.758   5.353  0.3197 -0.3768 -0.0008
 5873POPC   NC371257  28.919  13.267   3.882 -0.1222  0.3398  0.0731
 5873POPC   PO471258  29.047  12.872   3.894 -0.3185 -0.2811 -0.1679
 5873POPC   GL171259  29.102  12.818   4.240  0.3116 -0.1021 -0.2566
 5873POPC   GL271260  28.961  13.005   4.382 -0.2105 -0.2104 -0.2917
 5873POPC   C1A71261  29.498  12.790   4.451  0.1961 -0.0957 -0.0601
 5873POPC   D2A71262  29.527  12.853   4.900 -0.0928 -0.1657 -0.2883
 5873POPC   C3A71263  29.257  12.839   5.280 -0.0785 -0.3554 -0.2366
 5873POPC   C4A71264  29.037  12.652   5.638  0.1969 -0.0573 -0.0632
 5873POPC   C1B71265  28.985  12.735   4.761 -0.0890 -0.0558 -0.0500
 5873POPC   C2B71266  28.776  12.673   5.118  0.1760 -0.1489 -0.0420
 5873POPC   C3B71267  28.842  12.231   5.262 -0.2686 -0.2078 -0.1834
 5873POPC   C4B71268  28.867  11.802   5.542 -0.0452 -0.0016 -0.0492
 5874POPC   NC371269   0.323   9.919   3.234 -0.2274 -0.0980 -0.0971
 5874POPC   PO471270   0.254  10.304   3.374 -0.0395  0.1084  0.1357
 5874POPC   GL171271   0.170  10.039   3.698  0.0539  0.1480  0.1535
 5874POPC   GL271272   0.025  10.233   3.794 -0.1072 -0.1178 -0.3811
 5874POPC   C1A71273   0.384   9.874   4.080  0.0509 -0.1986  0.0122
 5874POPC   D2A71274   0.289   9.953   4.483 -0.0554  0.0912  0.0399
 5874POPC   C3A71275   0.212   9.618   4.745 -0.1263 -0.0279  0.0326
 5874POPC   C4A71276  -0.164   9.447   4.848 -0.0098  0.0157  0.2330
 5874POPC   C1B71277  -0.070  10.194   4.240  0.1424  0.0786 -0.0322
 5874POPC   C2B71278  -0.311  10.326   4.662 -0.3698  0.3473 -0.0113
 5874POPC   C3B71279  -0.522  10.325   5.149 -0.1694  0.0781  0.2333
 5874POPC   C4B71280  -0.417  10.505   5.561 -0.1708 -0.1271  0.1657
 5875POPC   NC371281  26.401   2.433   3.947  0.0882  0.1756  0.0449
 5875POPC   PO471282  26.703   2.633   3.816  0.2742 -0.0541 -0.0864
 5875POPC   GL171283  26.816   2.493   4.169 -0.2576 -0.2810  0.2346
 5875POPC   GL271284  27.084   2.440   4.217 -0.1200  0.0575 -0.0557
 5875POPC   C1A71285  26.916   2.634   4.636  0.0538  0.1963  0.1689
 5875POPC   D2A71286  27.069   2.531   5.031 -0.1265 -0.2685 -0.3003
 5875POPC   C3A71287  26.866   2.619   5.460 -0.0871  0.0823 -0.3774
 5875POPC   C4A71288  26.545   2.530   5.764 -0.1370  0.1455  0.0520
 5875POPC   C1B71289  27.357   2.392   4.554  0.0175 -0.0404  0.0530
 5875POPC   C2B71290  27.455   2.222   5.021 -0.0009  0.1633  0.0062
 5875POPC   C3B71291  27.638   1.981   5.368 -0.3067  0.1363 -0.3091
 5875POPC   C4B71292  28.058   1.823   5.391  0.1318  0.0816  0.0938
 5876POPC   NC371293  12.198   0.286   3.523  0.0446 -0.0402 -0.1517
 5876POPC   PO471294  12.193   0.666   3.594  0.0088 -0.1987 -0.0173
 5876POPC   GL171295  12.275   0.659   4.001  0.3363 -0.3498 -0.0653
 5876POPC   GL271296  12.287   0.356   3.998  0.0615  0.2587  0.0110
 5876POPC   C1A71297  12.574   0.752   4.329  0.1375 -0.2133 -0.1618
 5876POPC   D2A71298  12.533   0.542   4.710 -0.1071 -0.0973 -0.0552
 5876POPC   C3A71299  12.858   0.415   4.970  0.1701  0.0281  0.0898
 5876POPC   C4A71300  13.200   0.577   5.241  0.0257 -0.1152 -0.0508
 5876POPC   C1B71301  12.141   0.435   4.381 -0.0891  0.0397 -0.1632
 5876POPC   C2B71302  11.942   0.412   4.764 -0.1659 -0.3187  0.3967
 5876POPC   C3B71303  11.868   0.410   5.232 -0.1384 -0.1976 -0.0450
 5876POPC   C4B71304  11.596   0.212   5.526  0.1678 -0.1676 -0.0849
 5877POPC   NC371305  18.818  11.756   3.811 -0.1072  0.1784  0.1202
 5877POPC   PO471306  18.435  11.830   3.716  0.1806 -0.1184  0.0335
 5877POPC   GL171307  18.416  11.719   4.064 -0.0915  0.3028 -0.0510
 5877POPC   GL271308  18.381  11.909   4.261 -0.1696  0.0758  0.0202
 5877POPC   C1A71309  18.329  11.395   4.352 -0.0397 -0.0945 -0.0126
 5877POPC   D2A71310  18.104  11.347   4.755  0.2954  0.0546  0.1274
 5877POPC   C3A71311  17.919  11.562   5.114 -0.0129 -0.4674  0.2323
 5877POPC   C4A71312  17.737  11.863   5.380 -0.2362 -0.2913  0.5006
 5877POPC   C1B71313  18.383  11.848   4.714  0.2089  0.0240  0.1351
 5877POPC   C2B71314  18.348  11.864   5.178 -0.1112  0.3810 -0.0854
 5877POPC   C3B71315  18.524  11.932   5.606 -0.0450 -0.0925  0.3088
 5877POPC   C4B71316  18.461  11.977   6.008 -0.2415 -0.0204 -0.2899
 5878POPC   NC371317   3.168   7.676   3.105 -0.0590  0.2896  0.3824
 5878POPC   PO471318   3.335   7.824   3.395 -0.1974  0.0031 -0.0619
 5878POPC   GL171319   3.502   7.871   3.768  0.1853 -0.0289  0.0034
 5878POPC   GL271320   3.574   8.104   3.877  0.2409 -0.0332 -0.0953
 5878POPC   C1A71321   3.434   7.754   4.190  0.1317  0.0798 -0.1103
 5878POPC   D2A71322   3.262   7.483   4.544 -0.1648 -0.2165 -0.1940
 5878POPC   C3A71323   2.959   7.743   4.816 -0.1156 -0.1684  0.3076
 5878POPC   C4A71324   2.687   7.760   5.208  0.1992 -0.0865  0.1190
 5878POPC   C1B71325   3.545   8.217   4.322 -0.2734  0.2631  0.1687
 5878POPC   C2B71326   3.672   8.327   4.741 -0.1179  0.0492  0.1067
 5878POPC   C3B71327   4.031   8.453   5.044  0.1824  0.1512 -0.0335
 5878POPC   C4B71328   4.198   8.574   5.434 -0.0475 -0.0735 -0.2317
 5879POPC   NC371329  18.276   9.373   3.747 -0.2573 -0.0442  0.1214
 5879POPC   PO471330  18.553   9.612   3.900  0.1438  0.1196  0.2620
 5879POPC   GL171331  18.671   9.542   4.235  0.0731 -0.0618 -0.1274
 5879POPC   GL271332  18.806   9.730   4.301  0.1873 -0.2908  0.4810
 5879POPC   C1A71333  18.518   9.530   4.683 -0.2634  0.1216 -0.1919
 5879POPC   D2A71334  18.426   9.522   5.163  0.0359 -0.1459 -0.0822
 5879POPC   C3A71335  18.299   9.621   5.633  0.2310  0.1325  0.0834
 5879POPC   C4A71336  18.537   9.841   5.916  0.1020  0.2145  0.2152
 5879POPC   C1B71337  19.083   9.825   4.644 -0.2049  0.4194 -0.0190
 5879POPC   C2B71338  19.179   9.925   5.102 -0.2863  0.0418  0.0655
 5879POPC   C3B71339  19.263  10.057   5.523  0.0250 -0.1154  0.1604
 5879POPC   C4B71340  19.068   9.955   5.920 -0.2654 -0.0558 -0.3068
 5880POPC   NC371341  20.785   5.254   4.081 -0.2782  0.1629 -0.3791
 5880POPC   PO471342  20.610   4.963   3.827 -0.1829 -0.1295  0.1192
 5880POPC   GL171343  20.469   4.867   4.158  0.0870 -0.1002 -0.0604
 5880POPC   GL271344  20.586   4.904   4.413  0.1077  0.1622 -0.0197
 5880POPC   C1A71345  20.009   4.937   4.260  0.4896  0.1310 -0.1712
 5880POPC   D2A71346  19.664   5.238   4.352 -0.0418  0.1530  0.1154
 5880POPC   C3A71347  19.575   5.313   4.820 -0.3636  0.2152 -0.4273
 5880POPC   C4A71348  19.643   5.432   5.304 -0.2886  0.3118  0.1292
 5880POPC   C1B71349  20.255   4.682   4.656 -0.0670  0.1823  0.1279
 5880POPC   C2B71350  20.254   4.458   5.022  0.0153 -0.1949 -0.2350
 5880POPC   C3B71351  20.131   4.253   5.415 -0.0074  0.0973  0.0027
 5880POPC   C4B71352  19.779   4.367   5.735 -0.6103  0.1095  0.1490
 5881POPC   NC371353  20.092   0.489   3.260 -0.1463 -0.2720 -0.1114
 5881POPC   PO471354  19.909   0.830   3.228 -0.2469 -0.1916 -0.0138
 5881POPC   GL171355  20.020   0.738   3.700 -0.5662  0.2283 -0.1333
 5881POPC   GL271356  20.078   0.992   3.742 -0.1625  0.1935 -0.0691
 5881POPC   C1A71357  20.308   0.457   3.969  0.1590  0.1813  0.0491
 5881POPC   D2A71358  20.291   0.599   4.386 -0.2450 -0.1316  0.0383
 5881POPC   C3A71359  20.200   0.556   4.800  0.2157  0.0807 -0.1374
 5881POPC   C4A71360  20.019   0.333   5.146 -0.6280  0.1294 -0.0508
 5881POPC   C1B71361  20.144   1.077   4.144  0.0527 -0.3357 -0.2416
 5881POPC   C2B71362  19.958   0.973   4.615 -0.0321 -0.0602  0.2171
 5881POPC   C3B71363  19.903   1.183   5.033 -0.1735  0.1249  0.0102
 5881POPC   C4B71364  20.024   1.389   5.462  0.0952 -0.1536  0.1687
 5882POPC   NC371365  19.315  19.902   3.624 -0.0793 -0.0710 -0.1750
 5882POPC   PO471366  19.557  19.829   3.389 -0.0615 -0.1765 -0.3388
 5882POPC   GL171367  19.863  19.718   3.580  0.2363 -0.1135 -0.0892
 5882POPC   GL271368  19.873  19.814   3.878 -0.2115  0.2479  0.0708
 5882POPC   C1A71369  19.973  19.367   3.901  0.0314  0.2880 -0.1239
 5882POPC   D2A71370  19.773  18.961   4.054 -0.0884  0.0852  0.3433
 5882POPC   C3A71371  20.107  18.702   4.266 -0.0748 -0.0347 -0.2670
 5882POPC   C4A71372  20.209  18.414   4.535  0.1756  0.2475  0.0196
 5882POPC   C1B71373  19.770  19.716   4.318 -0.2580  0.1361  0.2043
 5882POPC   C2B71374  19.861  19.506   4.694 -0.1709 -0.0366 -0.0578
 5882POPC   C3B71375  19.959  19.615   5.141  0.0593  0.0651  0.0239
 5882POPC   C4B71376  19.853  19.878   5.498 -0.1325 -0.1338 -0.3615
 5883POPC   NC371377  23.609   6.333   3.819  0.0865 -0.1101  0.0311
 5883POPC   PO471378  23.641   5.945   3.752 -0.5518  0.0070  0.2010
 5883POPC   GL171379  23.454   5.850   4.073  0.0442 -0.4275  0.0001
 5883POPC   GL271380  23.643   5.753   4.274 -0.0042  0.0065 -0.1716
 5883POPC   C1A71381  23.159   6.110   4.380  0.0173  0.1620  0.0953
 5883POPC   D2A71382  23.341   6.220   4.833 -0.2062 -0.0670  0.1698
 5883POPC   C3A71383  23.265   5.975   5.234  0.0217  0.0578 -0.1538
 5883POPC   C4A71384  22.978   5.748   5.605 -0.0723  0.1561  0.0272
 5883POPC   C1B71385  23.454   5.685   4.661  0.0400 -0.1216 -0.4065
 5883POPC   C2B71386  23.364   5.456   5.052 -0.0330  0.1595  0.1491
 5883POPC   C3B71387  23.315   5.421   5.512 -0.1368  0.0879 -0.0311
 5883POPC   C4B71388  23.212   5.203   5.865  0.2416  0.0588  0.1650
 5884POPC   NC371389  26.841   0.401   3.611  0.0333 -0.2039  0.1824
 5884POPC   PO471390  27.113   0.526   3.810  0.3965  0.0993  0.0041
 5884POPC   GL171391  27.096   0.295   4.136 -0.3149 -0.0293 -0.1908
 5884POPC   GL271392  27.331   0.207   4.199 -0.2657  0.0401  0.1106
 5884POPC   C1A71393  26.985   0.253   4.546 -0.0969 -0.1240 -0.3821
 5884POPC   D2A71394  27.093   0.053   5.008 -0.2909  0.1725 -0.0016
 5884POPC   C3A71395  27.251   0.322   5.349 -0.2272 -0.0499 -0.0585
 5884POPC   C4A71396  26.960   0.499   5.706 -0.0996  0.0991  0.2017
 5884POPC   C1B71397  27.260  -0.144   4.448  0.0979  0.0608 -0.0136
 5884POPC   C2B71398  27.242  -0.340   4.827 -0.1141  0.0895 -0.2845
 5884POPC   C3B71399  27.422  -0.611   5.152 -0.1991  0.0188 -0.2488
 5884POPC   C4B71400  27.598  -0.662   5.583 -0.2159  0.2816 -0.1143
 5885POPC   NC371401  18.617  16.470   3.633  0.0502  0.2391  0.1695
 5885POPC   PO471402  18.904  16.279   3.746  0.1212 -0.1216 -0.2326
 5885POPC   GL171403  19.009  16.120   4.051 -0.0526 -0.1933  0.3473
 5885POPC   GL271404  19.347  16.097   4.082  0.1364 -0.1991 -0.0363
 5885POPC   C1A71405  18.959  15.967   4.452  0.0299  0.2226 -0.0568
 5885POPC   D2A71406  19.210  15.846   4.796  0.2007 -0.1620 -0.2667
 5885POPC   C3A71407  19.488  16.159   4.954 -0.2983 -0.1139 -0.2109
 5885POPC   C4A71408  19.724  16.168   5.330 -0.1637 -0.0557  0.0810
 5885POPC   C1B71409  19.660  16.144   4.466  0.2899  0.2128  0.0051
 5885POPC   C2B71410  20.020  16.123   4.818 -0.2711 -0.3369 -0.1001
 5885POPC   C3B71411  20.329  16.125   5.103  0.1317  0.0948 -0.3054
 5885POPC   C4B71412  20.512  16.388   5.475  0.0239 -0.0593  0.1214
 5886POPC   NC371413   4.614   1.162   3.437 -0.0486  0.1329 -0.2647
 5886POPC   PO471414   4.447   1.291   3.781 -0.6609 -0.1011  0.2212
 5886POPC   GL171415   4.582   1.335   4.111 -0.6629  0.4241 -0.2512
 5886POPC   GL271416   4.817   1.400   4.256 -0.1043  0.0718  0.0071
 5886POPC   C1A71417   4.473   1.152   4.520  0.2607 -0.0361 -0.1594
 5886POPC   D2A71418   4.247   1.058   4.914 -0.2903  0.0355 -0.1632
 5886POPC   C3A71419   4.459   0.991   5.323  0.1127  0.1093 -0.3525
 5886POPC   C4A71420   4.619   0.685   5.641  0.1822 -0.1335  0.2082
 5886POPC   C1B71421   4.738   1.594   4.641 -0.1163 -0.0309 -0.1816
 5886POPC   C2B71422   4.718   1.593   5.090  0.1049  0.3163 -0.1314
 5886POPC   C3B71423   4.790   1.890   5.431 -0.3559 -0.1293  0.1209
 5886POPC   C4B71424   4.897   2.208   5.806  0.0977 -0.2677 -0.0316
 5887POPC   NC371425  30.185   3.598   3.051 -0.0176  0.1833  0.0799
 5887POPC   PO471426  30.425   3.376   3.297  0.1235 -0.0538  0.0157
 5887POPC   GL171427  30.528   3.511   3.569  0.2345  0.0209  0.0819
 5887POPC   GL271428  30.420   3.365   3.806 -0.0226 -0.1827  0.1481
 5887POPC   C1A71429  30.404   3.835   3.863 -0.2207  0.4562  0.1389
 5887POPC   D2A71430  30.524   4.195   4.042  0.1551  0.2246  0.1136
 5887POPC   C3A71431  30.195   4.357   4.323 -0.3249 -0.1579  0.3750
 5887POPC   C4A71432  29.950   4.722   4.233  0.0649 -0.1804 -0.0250
 5887POPC   C1B71433  30.182   3.514   4.175  0.1082  0.0155 -0.0013
 5887POPC   C2B71434  29.949   3.859   4.434  0.4182  0.2832 -0.1558
 5887POPC   C3B71435  29.957   4.106   4.823  0.0757  0.0614 -0.0569
 5887POPC   C4B71436  29.837   4.185   5.274 -0.3269 -0.0425 -0.0802
 5888POPC   NC371437  12.414  27.120   4.010  0.1124  0.1419  0.1247
 5888POPC   PO471438  12.451  27.358   3.754  0.0892  0.1367  0.2599
 5888POPC   GL171439  12.441  27.652   4.104 -0.0694  0.4286  0.1075
 5888POPC   GL271440  12.173  27.572   4.229 -0.0957  0.0877 -0.3510
 5888POPC   C1A71441  12.584  27.759   4.540 -0.2809  0.0621 -0.0993
 5888POPC   D2A71442  12.656  27.507   4.930  0.0695  0.0600  0.0157
 5888POPC   C3A71443  13.055  27.481   5.209 -0.0592  0.0296  0.0422
 5888POPC   C4A71444  12.964  27.201   5.603 -0.0928  0.1219 -0.0904
 5888POPC   C1B71445  12.162  27.581   4.714 -0.0106  0.0222 -0.0672
 5888POPC   C2B71446  12.180  27.757   5.143  0.0471  0.1107  0.2096
 5888POPC   C3B71447  12.552  27.725   5.458 -0.0084  0.1454  0.2665
 5888POPC   C4B71448  12.469  27.692   5.863 -0.2531 -0.1652  0.2199
 5889POPC   NC371449   2.830   1.955   3.887 -0.0339 -0.1646  0.3175
 5889POPC   PO471450   3.145   2.073   3.745 -0.1693  0.2983  0.1297
 5889POPC   GL171451   3.108   2.290   4.024 -0.0633  0.1342 -0.1464
 5889POPC   GL271452   2.845   2.491   4.073 -0.1086 -0.0770  0.0309
 5889POPC   C1A71453   2.924   2.145   4.441  0.2607  0.0681 -0.2224
 5889POPC   D2A71454   2.668   2.125   4.845 -0.0209 -0.1325  0.2678
 5889POPC   C3A71455   2.705   1.772   5.101 -0.2319  0.0395  0.0179
 5889POPC   C4A71456   2.563   1.584   5.463 -0.5007  0.0788  0.0084
 5889POPC   C1B71457   2.483   2.225   4.215 -0.0213 -0.1207  0.3688
 5889POPC   C2B71458   2.116   1.997   4.118  0.3048 -0.1265 -0.3266
 5889POPC   C3B71459   1.738   1.707   4.087 -0.1259  0.0102 -0.0789
 5889POPC   C4B71460   1.428   1.499   4.365  0.0787  0.0011  0.0204
 5890POPC   NC371461  19.402  16.238   3.615  0.0441 -0.3843  0.1654
 5890POPC   PO471462  19.631  15.903   3.578 -0.2387 -0.1742 -0.0949
 5890POPC   GL171463  19.955  15.841   3.806  0.1951 -0.0489  0.3146
 5890POPC   GL271464  19.789  15.839   4.049  0.1965  0.1843  0.0464
 5890POPC   C1A71465  20.375  15.977   3.956 -0.0906 -0.0081 -0.2728
 5890POPC   D2A71466  20.681  15.874   4.350  0.1474 -0.2307  0.2370
 5890POPC   C3A71467  21.144  15.850   4.292 -0.4480 -0.1405  0.1239
 5890POPC   C4A71468  21.475  16.106   4.130 -0.3338  0.3224 -0.0796
 5890POPC   C1B71469  20.064  15.772   4.398  0.0969 -0.0407 -0.0436
 5890POPC   C2B71470  20.391  15.779   4.775  0.0128  0.3202  0.2276
 5890POPC   C3B71471  20.707  15.479   4.994 -0.3859  0.1857 -0.1433
 5890POPC   C4B71472  21.091  15.515   5.314  0.0922  0.0434  0.0621
 5891POPC   NC371473  14.663   2.956   3.750  0.0829 -0.0234 -0.1980
 5891POPC   PO471474  14.661   3.362   3.762 -0.1577  0.1290  0.2587
 5891POPC   GL171475  14.846   3.181   4.175  0.4115 -0.1538 -0.2941
 5891POPC   GL271476  14.607   3.068   4.238  0.2231  0.1740  0.0095
 5891POPC   C1A71477  14.870   3.304   4.635  0.2269 -0.4350  0.1742
 5891POPC   D2A71478  14.876   3.334   5.072 -0.3330  0.0735  0.0791
 5891POPC   C3A71479  15.192   3.675   5.112  0.1503 -0.2319  0.0842
 5891POPC   C4A71480  15.401   4.014   5.048 -0.0603  0.3583  0.2530
 5891POPC   C1B71481  14.478   3.029   4.652  0.0726  0.2892 -0.2353
 5891POPC   C2B71482  14.430   2.669   4.999  0.2424 -0.2193  0.2920
 5891POPC   C3B71483  14.629   2.409   5.208 -0.0900  0.0588  0.0099
 5891POPC   C4B71484  14.354   2.154   5.426  0.2305  0.1695  0.1911
 5892POPC   NC371485  26.562  31.558   3.288 -0.3236  0.0853  0.0257
 5892POPC   PO471486  26.347  31.911   3.371 -0.1614 -0.1162 -0.1828
 5892POPC   GL171487  26.342  32.085   3.653 -0.1127  0.3973  0.2137
 5892POPC   GL271488  26.157  31.941   3.903 -0.1139  0.2384  0.3290
 5892POPC   C1A71489  26.203  32.505   3.839  0.0903  0.1101  0.3168
 5892POPC   D2A71490  26.098  32.896   4.030  0.1278  0.0626  0.1302
 5892POPC   C3A71491  26.139  32.854   4.464  0.0696  0.0820  0.2869
 5892POPC   C4A71492  26.361  32.659   4.837  0.2182 -0.2608 -0.1119
 5892POPC   C1B71493  26.304  31.857   4.316 -0.0642  0.0031 -0.0630
 5892POPC   C2B71494  26.465  31.960   4.724  0.1851 -0.1283 -0.1931
 5892POPC   C3B71495  26.691  32.248   4.925 -0.4402 -0.3043 -0.0548
 5892POPC   C4B71496  26.661  32.473   5.338 -0.1328  0.1162 -0.5309
 5893POPC   NC371497  28.388   7.235   3.883  0.1442  0.2499  0.2465
 5893POPC   PO471498  28.252   6.836   3.810  0.0194  0.0053 -0.1633
 5893POPC   GL171499  27.967   7.038   4.140  0.1250 -0.0752 -0.7495
 5893POPC   GL271500  27.712   7.239   4.163  0.0457  0.2138 -0.2776
 5893POPC   C1A71501  28.066   6.844   4.556 -0.0604 -0.4426  0.2441
 5893POPC   D2A71502  28.077   6.611   4.904  0.2701 -0.0524 -0.1117
 5893POPC   C3A71503  27.836   6.494   5.266 -0.0940  0.3476 -0.1478
 5893POPC   C4A71504  27.625   6.379   5.657  0.0480 -0.2159 -0.2149
 5893POPC   C1B71505  27.555   7.108   4.627 -0.2491 -0.0902  0.1420
 5893POPC   C2B71506  27.923   7.054   4.955 -0.3357 -0.0577  0.4269
 5893POPC   C3B71507  27.845   7.099   5.423 -0.0073  0.1901 -0.0161
 5893POPC   C4B71508  28.035   7.041   5.837 -0.0755  0.0950 -0.2214
 5894POPC   NC371509  29.922  30.881   3.872  0.2866 -0.2555 -0.1337
 5894POPC   PO471510  29.693  31.150   3.717 -0.1102 -0.4490  0.2179
 5894POPC   GL171511  29.411  31.169   3.995 -0.0432 -0.1009 -0.2440
 5894POPC   GL271512  29.460  31.471   4.009 -0.0389 -0.2883  0.0140
 5894POPC   C1A71513  29.391  31.084   4.467  0.4772 -0.0265 -0.1843
 5894POPC   D2A71514  29.488  30.786   4.776 -0.0863 -0.2666 -0.1948
 5894POPC   C3A71515  29.293  30.774   5.139 -0.0127 -0.0962  0.0290
 5894POPC   C4A71516  29.241  30.813   5.607 -0.0281 -0.0982 -0.1832
 5894POPC   C1B71517  29.570  31.523   4.432 -0.1617  0.2257  0.0172
 5894POPC   C2B71518  29.618  31.535   4.850  0.2744 -0.0280  0.1706
 5894POPC   C3B71519  29.416  31.413   5.260  0.1497  0.2072  0.2833
 5894POPC   C4B71520  29.387  31.368   5.727 -0.1519 -0.0514 -0.0544
 5895POPC   NC371521   2.673  15.838   3.772  0.0887  0.2634 -0.2382
 5895POPC   PO471522   2.989  15.662   3.703 -0.0837 -0.0271 -0.1233
 5895POPC   GL171523   3.018  15.600   4.065 -0.0173 -0.0963  0.0671
 5895POPC   GL271524   3.231  15.611   4.148  0.1899 -0.4028  0.3305
 5895POPC   C1A71525   2.887  15.686   4.472 -0.1117 -0.0473  0.3095
 5895POPC   D2A71526   2.762  15.582   4.932 -0.2171  0.1687 -0.0547
 5895POPC   C3A71527   2.431  15.827   5.188 -0.0351  0.1325  0.1634
 5895POPC   C4A71528   2.147  16.015   5.529  0.3051  0.0196  0.0918
 5895POPC   C1B71529   3.347  15.893   4.451  0.2491 -0.1121  0.0015
 5895POPC   C2B71530   3.347  16.134   4.828  0.1254  0.0555 -0.1109
 5895POPC   C3B71531   3.498  16.153   5.358  0.2981 -0.0992  0.4124
 5895POPC   C4B71532   3.410  15.944   5.760  0.1613  0.1871 -0.2038
 5896POPC   NC371533  16.258   1.096   3.713  0.1639 -0.3970  0.1108
 5896POPC   PO471534  15.974   1.414   3.706  0.0395 -0.4259 -0.0762
 5896POPC   GL171535  16.048   1.377   4.067 -0.2110 -0.0207  0.2828
 5896POPC   GL271536  16.318   1.529   4.099  0.0406  0.1801 -0.0897
 5896POPC   C1A71537  16.234   1.187   4.465 -0.3204 -0.3187 -0.3443
 5896POPC   D2A71538  16.187   0.856   4.758 -0.0233  0.0419  0.0279
 5896POPC   C3A71539  16.451   0.744   5.120 -0.0614 -0.1307  0.0469
 5896POPC   C4A71540  16.884   0.527   5.116 -0.2124 -0.0831  0.0856
 5896POPC   C1B71541  16.056   1.649   4.444  0.0349  0.3017 -0.0990
 5896POPC   C2B71542  16.182   1.697   4.838 -0.2632  0.2338  0.2184
 5896POPC   C3B71543  16.252   1.290   5.032 -0.0881  0.2543 -0.0963
 5896POPC   C4B71544  16.277   1.134   5.456 -0.0631  0.2379  0.1265
 5897POPC   NC371545   6.219   8.950   4.070 -0.3634 -0.1614 -0.0097
 5897POPC   PO471546   5.920   9.057   3.916  0.3090 -0.0354 -0.0469
 5897POPC   GL171547   5.785   8.894   4.329 -0.0327  0.0173 -0.1649
 5897POPC   GL271548   5.859   9.094   4.497  0.1848 -0.0629 -0.1130
 5897POPC   C1A71549   5.376   8.899   4.527 -0.0900  0.1181  0.0925
 5897POPC   D2A71550   5.309   9.052   4.925 -0.1351 -0.0697 -0.0467
 5897POPC   C3A71551   5.370   8.696   5.168 -0.0459  0.0783  0.3009
 5897POPC   C4A71552   5.055   8.519   5.413  0.1461  0.0910  0.1070
 5897POPC   C1B71553   5.776   9.124   4.952 -0.0900  0.2016  0.2177
 5897POPC   C2B71554   5.593   9.115   5.422 -0.1119 -0.1896 -0.2093
 5897POPC   C3B71555   5.313   9.400   5.518 -0.3094  0.0165  0.1015
 5897POPC   C4B71556   5.092   9.791   5.530  0.1426  0.1648  0.0913
 5898POPC   NC371557  24.450   9.470   3.418 -0.0357  0.1898 -0.1038
 5898POPC   PO471558  24.061   9.401   3.621  0.1113 -0.2951  0.2301
 5898POPC   GL171559  24.084   9.329   4.094 -0.0885  0.2726  0.0487
 5898POPC   GL271560  23.973   9.180   4.317 -0.1016  0.3083  0.3148
 5898POPC   C1A71561  24.319   9.477   4.460 -0.0339  0.5242 -0.0349
 5898POPC   D2A71562  24.428   9.296   4.816  0.1607 -0.0441  0.4221
 5898POPC   C3A71563  24.454   9.508   5.303  0.1561  0.0210  0.3304
 5898POPC   C4A71564  24.234   9.460   5.687 -0.1776  0.0910  0.1225
 5898POPC   C1B71565  23.961   9.358   4.758  0.1293  0.0847 -0.0155
 5898POPC   C2B71566  24.030   9.685   5.074 -0.1199 -0.0271  0.1136
 5898POPC   C3B71567  24.043   9.885   5.496 -0.2267  0.0563 -0.1808
 5898POPC   C4B71568  24.480   9.926   5.705 -0.2267 -0.0922  0.1505
 5899POPC   NC371569   8.963  27.830   3.829  0.1031  0.0538 -0.1010
 5899POPC   PO471570   8.855  27.467   3.876 -0.1218  0.0756 -0.1310
 5899POPC   GL171571   8.752  27.478   4.218 -0.1081 -0.0014  0.1179
 5899POPC   GL271572   8.646  27.724   4.380  0.2494  0.2160  0.1822
 5899POPC   C1A71573   8.730  27.118   4.543  0.2890  0.2139 -0.0101
 5899POPC   D2A71574   8.517  26.961   4.956  0.0376  0.1145 -0.0366
 5899POPC   C3A71575   8.336  27.179   5.334 -0.0860  0.1924 -0.0374
 5899POPC   C4A71576   8.180  27.126   5.792 -0.1378 -0.0076 -0.3378
 5899POPC   C1B71577   8.771  27.954   4.700 -0.0395 -0.2236 -0.2403
 5899POPC   C2B71578   8.689  28.258   5.012  0.0962  0.2895  0.3139
 5899POPC   C3B71579   8.681  28.659   5.291  0.3060  0.1428  0.2351
 5899POPC   C4B71580   8.571  28.876   5.649 -0.0033  0.0759  0.0186
 5900POPC   NC371581  23.291  26.321   3.616 -0.2589 -0.0446  0.0613
 5900POPC   PO471582  23.442  26.152   3.226  0.1617  0.0542  0.2660
 5900POPC   GL171583  23.626  25.928   3.537  0.3270 -0.1650  0.2040
 5900POPC   GL271584  23.468  25.870   3.761  0.2631 -0.0684 -0.0247
 5900POPC   C1A71585  23.947  25.736   3.842 -0.2415 -0.0863  0.0805
 5900POPC   D2A71586  24.073  25.584   4.253 -0.2447 -0.0763 -0.0996
 5900POPC   C3A71587  23.744  25.346   4.516  0.3150 -0.0957  0.1206
 5900POPC   C4A71588  23.683  24.893   4.666  0.1065 -0.0631 -0.1140
 5900POPC   C1B71589  23.496  25.475   4.019  0.2889  0.2802 -0.1283
 5900POPC   C2B71590  23.493  25.070   4.216  0.0115 -0.0383 -0.2878
 5900POPC   C3B71591  23.821  24.673   4.273 -0.0938  0.2930  0.0830
 5900POPC   C4B71592  24.123  24.631   4.620 -0.0406 -0.4122  0.1481
 5901POPC   NC371593   3.731  14.467   3.282 -0.0009 -0.2414  0.2752
 5901POPC   PO471594   4.016  14.355   3.593  0.0399  0.2320 -0.1167
 5901POPC   GL171595   3.971  14.512   4.038  0.5109  0.0676 -0.1804
 5901POPC   GL271596   4.024  14.802   4.120 -0.2532  0.4918 -0.3037
 5901POPC   C1A71597   3.846  14.365   4.472  0.2158  0.0156 -0.1918
 5901POPC   D2A71598   3.790  14.539   4.896 -0.0292 -0.1725  0.1919
 5901POPC   C3A71599   3.988  14.824   5.141 -0.1132  0.0727  0.2853
 5901POPC   C4A71600   4.437  14.895   5.169 -0.1152 -0.0116  0.1805
 5901POPC   C1B71601   3.731  14.882   4.517  0.1563  0.1628 -0.0040
 5901POPC   C2B71602   3.529  15.013   4.955  0.1823  0.2923  0.3854
 5901POPC   C3B71603   3.370  15.372   5.279 -0.2007 -0.2155 -0.0778
 5901POPC   C4B71604   3.164  15.730   5.340 -0.1576  0.1578 -0.2305
 5902POPC   NC371605  30.664  18.967   3.409 -0.1583 -0.1049  0.3149
 5902POPC   PO471606  30.394  19.181   3.646  0.1802  0.0802  0.1536
 5902POPC   GL171607  30.291  19.163   4.115  0.0503  0.2620  0.3801
 5902POPC   GL271608  30.333  18.889   4.130  0.1493 -0.1548 -0.1792
 5902POPC   C1A71609  30.213  19.531   4.434  0.0948 -0.0265 -0.2853
 5902POPC   D2A71610  29.967  19.565   4.832 -0.2201  0.1720  0.0333
 5902POPC   C3A71611  29.728  19.406   5.213 -0.1714 -0.1865 -0.1301
 5902POPC   C4A71612  29.392  19.230   5.463  0.1426  0.0439 -0.1241
 5902POPC   C1B71613  30.363  19.001   4.576  0.1756 -0.1651 -0.1289
 5902POPC   C2B71614  30.184  19.171   4.952  0.3146  0.1268 -0.2247
 5902POPC   C3B71615  29.935  18.948   5.321  0.4149  0.1170  0.1171
 5902POPC   C4B71616  30.217  18.759   5.621  0.0468  0.0731 -0.0838
 5903POPC   NC371617  14.488  12.863   3.198  0.0137 -0.1692  0.2011
 5903POPC   PO471618  14.436  12.629   3.532  0.1614  0.1239  0.1422
 5903POPC   GL171619  14.401  12.766   3.851  0.5786 -0.0564  0.1075
 5903POPC   GL271620  14.193  12.852   3.982  0.1797  0.1342  0.0930
 5903POPC   C1A71621  14.301  12.426   4.206 -0.1233  0.2891 -0.2502
 5903POPC   D2A71622  14.427  12.348   4.625  0.1062  0.0011  0.0015
 5903POPC   C3A71623  14.238  11.907   4.725  0.3674  0.2620  0.2481
 5903POPC   C4A71624  14.472  11.543   4.903 -0.1937  0.0512  0.1629
 5903POPC   C1B71625  14.018  12.791   4.405  0.0897 -0.1996 -0.1123
 5903POPC   C2B71626  13.867  12.916   4.827  0.0323  0.0171 -0.0282
 5903POPC   C3B71627  13.795  13.023   5.274  0.3023 -0.1430 -0.2601
 5903POPC   C4B71628  13.779  13.144   5.747 -0.1412  0.1978  0.2047
 5904POPC   NC371629  28.863   0.867   3.794  0.2309 -0.0268  0.1133
 5904POPC   PO471630  28.787   0.502   3.659  0.1831 -0.0893 -0.0440
 5904POPC   GL171631  28.516   0.456   3.980  0.0544 -0.1166 -0.1381
 5904POPC   GL271632  28.326   0.268   4.114  0.0918  0.1767 -0.3051
 5904POPC   C1A71633  28.667   0.504   4.400 -0.1581  0.1214 -0.1319
 5904POPC   D2A71634  28.930   0.368   4.739  0.2455  0.0035 -0.0566
 5904POPC   C3A71635  28.799   0.323   5.202 -0.0426 -0.2340 -0.2491
 5904POPC   C4A71636  28.670   0.331   5.611 -0.0015  0.1111 -0.0709
 5904POPC   C1B71637  28.195   0.106   4.517  0.0999  0.0925  0.2286
 5904POPC   C2B71638  28.071   0.109   4.993 -0.5308  0.2299 -0.0314
 5904POPC   C3B71639  27.853   0.176   5.358 -0.1955  0.0177 -0.2254
 5904POPC   C4B71640  27.661   0.524   5.514  0.0903  0.1430 -0.0419
 5905POPC   NC371641  27.200   9.903   3.824  0.0932 -0.2303  0.1239
 5905POPC   PO471642  26.804   9.948   3.853 -0.0341  0.0455  0.2683
 5905POPC   GL171643  26.861  10.168   4.127  0.1199  0.2765 -0.4580
 5905POPC   GL271644  27.016  10.077   4.295  0.2953 -0.0325 -0.0624
 5905POPC   C1A71645  26.543  10.225   4.521 -0.3266 -0.1093  0.0517
 5905POPC   D2A71646  26.613  10.315   5.004  0.1249  0.0420 -0.1154
 5905POPC   C3A71647  26.197  10.328   5.220 -0.0301 -0.1129  0.1525
 5905POPC   C4A71648  25.834  10.135   5.463 -0.3801 -0.0268 -0.2529
 5905POPC   C1B71649  27.103  10.240   4.617 -0.0222  0.1619  0.0818
 5905POPC   C2B71650  27.061  10.517   5.012  0.1681  0.2800 -0.1706
 5905POPC   C3B71651  26.815  10.755   5.316 -0.2062 -0.1009 -0.0725
 5905POPC   C4B71652  26.375  10.930   5.467  0.1633  0.4171 -0.2514
 5906POPC   NC371653   8.201  12.464   3.042 -0.2071  0.3399 -0.0155
 5906POPC   PO471654   7.910  12.654   3.216 -0.1680 -0.2942  0.1535
 5906POPC   GL171655   7.665  12.417   3.341  0.1630 -0.0602 -0.1011
 5906POPC   GL271656   7.560  12.480   3.638  0.1032  0.0994  0.1456
 5906POPC   C1A71657   7.247  12.185   3.360  0.0807 -0.1943 -0.1968
 5906POPC   D2A71658   7.106  11.780   3.472 -0.1018 -0.1843 -0.1939
 5906POPC   C3A71659   6.728  11.511   3.436  0.5349 -0.2728  0.0164
 5906POPC   C4A71660   6.763  11.101   3.391  0.0674  0.0520 -0.0351
 5906POPC   C1B71661   7.535  12.472   4.119  0.0709 -0.1030 -0.1324
 5906POPC   C2B71662   7.294  12.480   4.565  0.1006 -0.0514 -0.1135
 5906POPC   C3B71663   7.221  12.470   5.025 -0.5878 -0.1018 -0.1689
 5906POPC   C4B71664   6.996  12.340   5.372  0.3281 -0.0847  0.0510
 5907POPC   NC371665   1.006  12.008   3.623  0.0831 -0.1087  0.0532
 5907POPC   PO471666   0.665  12.076   3.817 -0.2229 -0.1199  0.3309
 5907POPC   GL171667   0.602  12.057   4.165  0.1125  0.0205 -0.0828
 5907POPC   GL271668   0.452  11.857   4.281  0.0015  0.0961 -0.0700
 5907POPC   C1A71669   0.673  12.323   4.541  0.1722 -0.0273  0.2820
 5907POPC   D2A71670   0.477  12.393   4.941 -0.4452 -0.4397 -0.1944
 5907POPC   C3A71671   0.463  12.025   5.226 -0.0898 -0.1597 -0.2101
 5907POPC   C4A71672   0.413  11.571   5.335 -0.0680 -0.1656  0.0294
 5907POPC   C1B71673   0.316  11.982   4.691  0.1917 -0.1813  0.0158
 5907POPC   C2B71674   0.022  11.759   5.015 -0.0209  0.3107  0.0129
 5907POPC   C3B71675  -0.094  11.421   5.296  0.4004  0.2188 -0.0305
 5907POPC   C4B71676   0.124  11.197   5.618 -0.0321 -0.2752  0.1490
 5908POPC   NC371677  25.388  22.175   3.788  0.2263 -0.0721  0.0172
 5908POPC   PO471678  25.006  22.360   3.819  0.0099  0.2587 -0.0223
 5908POPC   GL171679  24.903  22.609   4.153 -0.1261 -0.6243 -0.2400
 5908POPC   GL271680  25.020  22.843   4.026 -0.1673 -0.2217 -0.1525
 5908POPC   C1A71681  24.741  22.679   4.621  0.2568  0.1258  0.4209
 5908POPC   D2A71682  24.890  22.655   5.071 -0.0210  0.1805  0.1363
 5908POPC   C3A71683  24.963  22.841   5.497  0.1586 -0.1013  0.1054
 5908POPC   C4A71684  25.291  22.823   5.847 -0.1118 -0.3392  0.0798
 5908POPC   C1B71685  24.941  23.085   4.409  0.2677 -0.0378 -0.4369
 5908POPC   C2B71686  24.729  23.121   4.834 -0.0836  0.0387  0.3357
 5908POPC   C3B71687  24.883  23.387   5.231 -0.0024 -0.0338 -0.0048
 5908POPC   C4B71688  25.225  23.632   5.327 -0.2376  0.3815  0.0642
 5909POPC   NC371689   6.337  23.293   3.945  0.1462  0.1587 -0.2791
 5909POPC   PO471690   6.639  23.098   4.138  0.1803 -0.0052 -0.0534
 5909POPC   GL171691   6.292  22.996   4.350 -0.0838 -0.1329  0.1136
 5909POPC   GL271692   6.312  22.754   4.393 -0.0974  0.1850 -0.0314
 5909POPC   C1A71693   6.390  23.046   4.802 -0.2875  0.0202 -0.0197
 5909POPC   D2A71694   6.522  23.067   5.248 -0.2452 -0.0738  0.0986
 5909POPC   C3A71695   6.428  23.162   5.693  0.2870  0.0036  0.0579
 5909POPC   C4A71696   6.269  23.434   6.027 -0.4541 -0.0188  0.0664
 5909POPC   C1B71697   6.723  22.648   4.638 -0.3079  0.2179  0.0195
 5909POPC   C2B71698   7.012  22.962   4.875 -0.0428  0.0092  0.2579
 5909POPC   C3B71699   7.141  23.085   5.280  0.1706 -0.0879 -0.1061
 5909POPC   C4B71700   7.305  23.194   5.684  0.5483 -0.0739  0.0662
 5910POPC   NC371701  11.869  23.406   4.046 -0.0911  0.0054 -0.0857
 5910POPC   PO471702  11.551  23.573   3.873  0.4120  0.0032 -0.0233
 5910POPC   GL171703  11.830  23.844   4.140  0.0338  0.0461 -0.0971
 5910POPC   GL271704  12.020  24.048   4.002  0.1320  0.3581 -0.2014
 5910POPC   C1A71705  11.558  24.002   4.459  0.2429 -0.0162 -0.1325
 5910POPC   D2A71706  11.322  23.926   4.859  0.2087 -0.0791  0.4440
 5910POPC   C3A71707  11.392  24.085   5.314  0.2905 -0.4004  0.3735
 5910POPC   C4A71708  11.693  24.084   5.694 -0.1164 -0.2670 -0.1382
 5910POPC   C1B71709  12.167  24.070   4.434 -0.0032 -0.0175  0.0786
 5910POPC   C2B71710  12.309  23.911   4.866 -0.4026  0.1626  0.0911
 5910POPC   C3B71711  12.259  23.570   5.216  0.2519 -0.0521 -0.0640
 5910POPC   C4B71712  12.252  23.304   5.599  0.1830  0.0340  0.0029
 5911POPC   NC371713  22.097  27.778   3.644 -0.1817 -0.0893  0.3956
 5911POPC   PO471714  22.458  27.691   3.590  0.0590 -0.1381 -0.0044
 5911POPC   GL171715  22.386  27.595   3.945 -0.2063 -0.0017  0.0298
 5911POPC   GL271716  22.133  27.395   3.991  0.3971  0.0771  0.3445
 5911POPC   C1A71717  22.541  27.842   4.334  0.0251 -0.2663  0.1476
 5911POPC   D2A71718  22.600  28.027   4.709  0.0432 -0.2662  0.1410
 5911POPC   C3A71719  22.922  28.190   4.978 -0.2302  0.1225 -0.0463
 5911POPC   C4A71720  23.093  28.296   5.379  0.0808  0.2135  0.2691
 5911POPC   C1B71721  22.416  27.355   4.358 -0.0927 -0.2665  0.0275
 5911POPC   C2B71722  22.464  27.504   4.776  0.0273 -0.1267  0.0356
 5911POPC   C3B71723  22.502  27.756   5.203 -0.2965 -0.3203  0.1336
 5911POPC   C4B71724  22.543  27.552   5.610 -0.0410  0.1169 -0.1447
 5912POPC   NC371725  15.866   6.835   4.296  0.0738 -0.0979 -0.0362
 5912POPC   PO471726  15.865   7.051   3.960 -0.0771  0.0851  0.0652
 5912POPC   GL171727  15.548   7.185   4.281 -0.1149  0.1496 -0.3872
 5912POPC   GL271728  15.694   7.299   4.499  0.4440 -0.0069  0.0142
 5912POPC   C1A71729  15.479   6.860   4.605  0.2158 -0.1345  0.4243
 5912POPC   D2A71730  15.527   6.661   5.007  0.3264 -0.1765 -0.2074
 5912POPC   C3A71731  15.140   6.532   5.215 -0.0528 -0.5269 -0.2850
 5912POPC   C4A71732  14.941   6.781   5.518 -0.0929 -0.0497 -0.0194
 5912POPC   C1B71733  15.511   7.283   4.923  0.3276 -0.0900 -0.0318
 5912POPC   C2B71734  15.144   7.411   5.195  0.1345  0.1704  0.0641
 5912POPC   C3B71735  14.886   7.755   5.383 -0.0985 -0.0211 -0.1180
 5912POPC   C4B71736  14.923   8.179   5.602  0.1196  0.0971 -0.1727
 5913POPC   NC371737  22.284  24.078   3.446 -0.1893 -0.1286  0.2064
 5913POPC   PO471738  22.184  23.682   3.515 -0.4027 -0.0083 -0.0408
 5913POPC   GL171739  22.421  23.746   3.763  0.1445 -0.3283  0.0885
 5913POPC   GL271740  22.463  24.001   3.941 -0.0812  0.2241  0.6567
 5913POPC   C1A71741  22.771  23.582   3.957  0.0915  0.1335 -0.2569
 5913POPC   D2A71742  23.144  23.537   4.209  0.1645 -0.2538  0.1836
 5913POPC   C3A71743  23.149  23.616   4.675  0.0229  0.0692  0.0520
 5913POPC   C4A71744  23.156  23.718   5.142 -0.3112  0.1092 -0.1503
 5913POPC   C1B71745  22.328  24.158   4.381 -0.0371 -0.1005 -0.0350
 5913POPC   C2B71746  22.318  24.237   4.870  0.3615  0.0438  0.2022
 5913POPC   C3B71747  22.252  24.048   5.282  0.2808 -0.3104 -0.2357
 5913POPC   C4B71748  22.382  24.043   5.732  0.1752 -0.2289  0.0084
 5914POPC   NC371749  25.334  21.365   3.856  0.0791  0.0003  0.1712
 5914POPC   PO471750  25.607  21.626   3.716  0.2111 -0.0320  0.4375
 5914POPC   GL171751  25.605  21.711   4.071 -0.1367  0.2452 -0.2637
 5914POPC   GL271752  25.711  22.022   4.145  0.0986  0.2621  0.3625
 5914POPC   C1A71753  25.572  21.614   4.505  0.1818  0.0365  0.1518
 5914POPC   D2A71754  25.705  21.612   4.950 -0.0390 -0.1211 -0.3070
 5914POPC   C3A71755  25.556  21.441   5.313 -0.1951  0.0715  0.0823
 5914POPC   C4A71756  25.462  21.661   5.731  0.2544 -0.1876 -0.0463
 5914POPC   C1B71757  25.545  22.208   4.621  0.0966  0.0769  0.0247
 5914POPC   C2B71758  25.364  22.418   4.936  0.0150 -0.0842 -0.2752
 5914POPC   C3B71759  25.370  22.513   5.417 -0.0029  0.0538 -0.0130
 5914POPC   C4B71760  25.512  22.276   5.794  0.0747 -0.1133  0.0967
 5915POPC   NC371761  19.414   4.294   3.612  0.0152  0.1914 -0.1479
 5915POPC   PO471762  19.149   4.319   3.320 -0.1400  0.1007  0.1200
 5915POPC   GL171763  18.936   4.472   3.523 -0.0665  0.6151 -0.1714
 5915POPC   GL271764  19.017   4.653   3.706  0.1755 -0.0115  0.0166
 5915POPC   C1A71765  18.461   4.516   3.558 -0.1514 -0.0634 -0.0561
 5915POPC   D2A71766  18.137   4.850   3.628  0.0444 -0.2195 -0.0422
 5915POPC   C3A71767  17.887   5.102   3.312  0.0065 -0.0472 -0.2285
 5915POPC   C4A71768  17.583   5.058   2.940  0.1238 -0.0762 -0.2322
 5915POPC   C1B71769  18.811   4.898   3.367  0.1541 -0.2728  0.4630
 5915POPC   C2B71770  18.531   5.254   3.297  0.1936  0.0628 -0.0887
 5915POPC   C3B71771  18.176   5.379   3.032 -0.0722 -0.1334 -0.3519
 5915POPC   C4B71772  18.035   5.083   2.718  0.0133  0.2692  0.2225
 5916POPC   NC371773  25.956  17.482   3.973  0.0786 -0.0994  0.0881
 5916POPC   PO471774  26.212  17.214   3.874 -0.1741 -0.2840  0.1595
 5916POPC   GL171775  26.264  17.359   4.237 -0.5559 -0.1210 -0.1366
 5916POPC   GL271776  26.349  17.089   4.373  0.0079  0.1089 -0.2363
 5916POPC   C1A71777  26.368  17.717   4.503  0.1891 -0.1874 -0.1952
 5916POPC   D2A71778  26.371  17.649   4.945 -0.2674 -0.1905 -0.0207
 5916POPC   C3A71779  26.715  17.760   5.234  0.1326  0.1058  0.2676
 5916POPC   C4A71780  26.603  17.680   5.711  0.2651  0.0494  0.1683
 5916POPC   C1B71781  26.623  17.221   4.731  0.1179 -0.0461  0.1948
 5916POPC   C2B71782  26.668  17.273   5.198 -0.1419 -0.1829 -0.0634
 5916POPC   C3B71783  26.857  17.271   5.606  0.1070  0.2268 -0.0472
 5916POPC   C4B71784  26.861  17.389   6.069  0.0148 -0.3450 -0.2334
 5917POPC   NC371785  19.364  19.551   4.070  0.0715 -0.0829  0.1163
 5917POPC   PO471786  19.191  19.247   3.971  0.2185 -0.0821 -0.0628
 5917POPC   GL171787  19.310  19.092   4.321  0.0337 -0.2743 -0.0328
 5917POPC   GL271788  19.421  19.338   4.490 -0.0877 -0.1808 -0.0523
 5917POPC   C1A71789  19.613  18.755   4.546  0.2882  0.0167 -0.0659
 5917POPC   D2A71790  19.910  18.569   4.858 -0.2263  0.4207  0.1616
 5917POPC   C3A71791  19.683  18.604   5.240  0.0951  0.0308 -0.1670
 5917POPC   C4A71792  19.321  18.611   5.548  0.1294 -0.2709  0.1950
 5917POPC   C1B71793  19.557  19.166   4.893 -0.0427  0.4100 -0.0028
 5917POPC   C2B71794  19.877  19.108   5.221 -0.2186  0.0231 -0.3875
 5917POPC   C3B71795  20.261  18.817   5.228 -0.0127 -0.2219  0.1081
 5917POPC   C4B71796  20.144  18.364   5.254 -0.1425  0.2481  0.2307
 5918POPC   NC371797  18.570  15.116   3.542 -0.2258 -0.1587 -0.0124
 5918POPC   PO471798  18.447  14.809   3.722  0.1489  0.0445 -0.4115
 5918POPC   GL171799  18.432  14.558   4.056  0.1536 -0.1305  0.1403
 5918POPC   GL271800  18.568  14.375   4.006 -0.2250  0.3241  0.4829
 5918POPC   C1A71801  18.504  14.716   4.473 -0.0783  0.0358  0.1227
 5918POPC   D2A71802  18.829  14.638   4.838 -0.0334 -0.2129  0.2314
 5918POPC   C3A71803  18.782  14.427   5.290 -0.0749  0.1242  0.3612
 5918POPC   C4A71804  18.935  14.302   5.756 -0.1175 -0.2826 -0.2400
 5918POPC   C1B71805  18.782  14.226   4.403  0.2783  0.0553 -0.1986
 5918POPC   C2B71806  18.980  14.094   4.776 -0.0556 -0.3699 -0.0193
 5918POPC   C3B71807  19.034  14.022   5.238 -0.1642  0.1549 -0.3685
 5918POPC   C4B71808  19.011  13.745   5.578  0.4887  0.2085 -0.3202
 5919POPC   NC371809  12.601  11.888   3.413  0.3084 -0.1178  0.1989
 5919POPC   PO471810  12.758  11.641   3.605  0.1012  0.1971  0.0369
 5919POPC   GL171811  12.521  11.496   3.848  0.0612  0.0053 -0.1373
 5919POPC   GL271812  12.656  11.386   4.037  0.0335 -0.3970  0.0369
 5919POPC   C1A71813  12.289  11.532   4.286 -0.4061  0.1204 -0.0481
 5919POPC   D2A71814  12.120  11.594   4.708 -0.2139 -0.1191 -0.1478
 5919POPC   C3A71815  11.831  11.274   4.768 -0.0620 -0.1381  0.3120
 5919POPC   C4A71816  11.486  11.019   4.747 -0.2450 -0.2105 -0.0519
 5919POPC   C1B71817  12.671  11.374   4.513 -0.0791 -0.0604 -0.0809
 5919POPC   C2B71818  12.550  11.501   4.965 -0.1145 -0.0364  0.1311
 5919POPC   C3B71819  12.236  11.424   5.295 -0.1249 -0.0052 -0.0309
 5919POPC   C4B71820  11.835  11.196   5.345 -0.1561 -0.0921  0.1491
 5920POPC   NC371821   1.296   9.052   3.103 -0.2566 -0.1019  0.1418
 5920POPC   PO471822   1.565   8.821   2.983  0.0890 -0.0615 -0.0309
 5920POPC   GL171823   1.645   8.695   3.431  0.2682  0.0935 -0.1531
 5920POPC   GL271824   1.806   8.546   3.343 -0.2217  0.0770 -0.0601
 5920POPC   C1A71825   1.882   8.784   3.812 -0.1841  0.0709 -0.0031
 5920POPC   D2A71826   2.143   9.030   4.060 -0.0962  0.1018 -0.0056
 5920POPC   C3A71827   2.120   8.999   4.483 -0.0216 -0.4602  0.0988
 5920POPC   C4A71828   1.916   8.784   4.831 -0.0911 -0.2296  0.0918
 5920POPC   C1B71829   1.566   8.301   3.666  0.0669 -0.3954  0.2431
 5920POPC   C2B71830   1.383   8.478   4.070  0.4414 -0.2464  0.2494
 5920POPC   C3B71831   1.103   8.638   4.424  0.1565  0.1164 -0.0252
 5920POPC   C4B71832   1.005   8.950   4.728  0.0230  0.1420 -0.3233
 5921POPC   NC371833   8.098  21.149   3.800  0.0910  0.0446 -0.0170
 5921POPC   PO471834   8.332  21.421   3.930  0.3686  0.0711  0.0526
 5921POPC   GL171835   8.595  21.547   4.221  0.2453  0.0740  0.1776
 5921POPC   GL271836   8.777  21.375   4.311 -0.1029 -0.0338  0.2174
 5921POPC   C1A71837   8.798  21.946   4.368  0.4252 -0.1436  0.0469
 5921POPC   D2A71838   8.776  22.027   4.874  0.1308 -0.1681 -0.0910
 5921POPC   C3A71839   8.827  22.412   5.080 -0.2749 -0.2295  0.1879
 5921POPC   C4A71840   8.846  22.781   4.842 -0.2069  0.1553  0.0144
 5921POPC   C1B71841   8.623  21.563   4.661 -0.4978  0.0361 -0.3612
 5921POPC   C2B71842   8.720  21.576   5.115  0.0838 -0.1013  0.1569
 5921POPC   C3B71843   8.805  21.956   5.391 -0.0189 -0.0355 -0.0625
 5921POPC   C4B71844   8.805  22.408   5.589 -0.4049  0.1194  0.0997
 5922POPC   NC371845  20.973   1.737   3.517 -0.2559  0.1302  0.0067
 5922POPC   PO471846  20.875   2.049   3.305  0.0382 -0.0282 -0.0042
 5922POPC   GL171847  20.612   1.917   3.677 -0.0849  0.1839 -0.1723
 5922POPC   GL271848  20.695   1.912   3.960  0.1269 -0.2148 -0.0485
 5922POPC   C1A71849  20.553   2.385   3.895  0.0429 -0.0416 -0.0488
 5922POPC   D2A71850  20.601   2.715   4.171  0.0022 -0.0572  0.3809
 5922POPC   C3A71851  20.578   2.541   4.594 -0.1038  0.1429 -0.1220
 5922POPC   C4A71852  20.553   2.223   4.926  0.2529 -0.3696 -0.0911
 5922POPC   C1B71853  20.960   2.198   4.206 -0.0605 -0.2399 -0.0582
 5922POPC   C2B71854  20.968   2.214   4.660  0.2001  0.2362 -0.1740
 5922POPC   C3B71855  21.083   2.086   5.097 -0.3411  0.4292  0.1761
 5922POPC   C4B71856  21.254   1.793   5.440  0.0778 -0.4317  0.0149
 5923POPC   NC371857  17.519   9.728   3.955  0.0595 -0.3388 -0.1411
 5923POPC   PO471858  17.895   9.672   4.009 -0.2523  0.0920  0.2335
 5923POPC   GL171859  17.817   9.511   4.306 -0.0389 -0.0617 -0.0523
 5923POPC   GL271860  17.697   9.240   4.452  0.1853  0.0211  0.0919
 5923POPC   C1A71861  18.029   9.558   4.746 -0.2026  0.1662 -0.1949
 5923POPC   D2A71862  17.932   9.540   5.196  0.1821  0.0286 -0.1518
 5923POPC   C3A71863  17.740   9.655   5.632 -0.1090  0.2499 -0.0599
 5923POPC   C4A71864  17.337   9.568   5.913 -0.1424  0.2597 -0.0415
 5923POPC   C1B71865  17.804   9.146   4.942 -0.2647 -0.1946  0.0698
 5923POPC   C2B71866  17.637   9.208   5.365  0.1527 -0.0260  0.1896
 5923POPC   C3B71867  17.511   8.988   5.800  0.2372  0.1640 -0.1747
 5923POPC   C4B71868  17.410   8.567   5.940  0.2130 -0.3736 -0.1203
 5924POPC   NC371869  22.463  14.213   3.576 -0.2348 -0.1425  0.1840
 5924POPC   PO471870  22.634  13.884   3.507 -0.0273 -0.2500 -0.3654
 5924POPC   GL171871  22.551  13.758   3.832  0.5696 -0.1603  0.1737
 5924POPC   GL271872  22.299  13.655   3.914  0.0150  0.0685  0.0305
 5924POPC   C1A71873  22.456  13.943   4.262  0.0605 -0.0296  0.1705
 5924POPC   D2A71874  22.431  13.976   4.749 -0.0262  0.2151 -0.0085
 5924POPC   C3A71875  22.557  13.880   5.156  0.1112  0.1306  0.2584
 5924POPC   C4A71876  22.550  13.502   5.415 -0.1887  0.0794 -0.1242
 5924POPC   C1B71877  21.990  13.719   4.276 -0.1818  0.1084 -0.0430
 5924POPC   C2B71878  21.847  13.791   4.694  0.2484  0.1210 -0.3651
 5924POPC   C3B71879  21.941  14.014   5.062  0.2797  0.3401 -0.0465
 5924POPC   C4B71880  22.289  14.290   5.095 -0.2398  0.2242  0.2536
 5925POPC   NC371881   1.432  13.617   3.975 -0.2642  0.0787  0.0876
 5925POPC   PO471882   1.791  13.797   3.979  0.0744 -0.1174 -0.1149
 5925POPC   GL171883   1.542  14.139   4.171 -0.1652  0.3154  0.0426
 5925POPC   GL271884   1.567  13.975   4.398  0.1627 -0.1563 -0.1134
 5925POPC   C1A71885   1.792  14.454   4.400 -0.1121  0.1250  0.1384
 5925POPC   D2A71886   2.213  14.476   4.614  0.0732 -0.2188 -0.0735
 5925POPC   C3A71887   2.510  14.861   4.631  0.1904 -0.0152  0.3707
 5925POPC   C4A71888   2.548  15.147   5.005 -0.1917 -0.2342 -0.0550
 5925POPC   C1B71889   1.837  14.101   4.718 -0.0344  0.1257  0.0141
 5925POPC   C2B71890   1.848  13.973   5.186  0.2252 -0.1486 -0.0786
 5925POPC   C3B71891   2.065  14.184   5.505 -0.0213  0.1855 -0.0859
 5925POPC   C4B71892   2.129  14.306   5.918  0.0077  0.0403 -0.0026
 5926POPC   NC371893  24.467  31.082   3.447 -0.1649  0.0574 -0.1943
 5926POPC   PO471894  24.669  30.994   3.811 -0.0654 -0.2725 -0.0003
 5926POPC   GL171895  24.855  30.903   4.160 -0.2648  0.1019  0.0674
 5926POPC   GL271896  24.958  31.152   4.142 -0.0448  0.3416  0.1264
 5926POPC   C1A71897  24.844  30.593   4.469 -0.3023 -0.3442 -0.0387
 5926POPC   D2A71898  24.788  30.664   4.946 -0.1416 -0.1524  0.0569
 5926POPC   C3A71899  25.134  30.577   5.223  0.1954  0.1057  0.0701
 5926POPC   C4A71900  25.577  30.534   5.388  0.1774  0.0666 -0.1279
 5926POPC   C1B71901  25.195  31.128   4.572  0.1132  0.0237  0.1220
 5926POPC   C2B71902  25.652  31.001   4.553  0.0015 -0.0329 -0.0147
 5926POPC   C3B71903  25.745  30.600   4.423  0.3131 -0.1836  0.0891
 5926POPC   C4B71904  26.006  30.249   4.654 -0.2135  0.0159 -0.1236
 5927POPC   NC371905  14.438  25.376   3.612  0.0540 -0.1011  0.1525
 5927POPC   PO471906  14.061  25.347   3.669 -0.0597  0.2688 -0.0988
 5927POPC   GL171907  14.124  25.344   4.057  0.3014 -0.1777  0.1724
 5927POPC   GL271908  14.341  25.456   4.127 -0.1816 -0.0413  0.0850
 5927POPC   C1A71909  13.962  25.565   4.441  0.0803  0.0917  0.3421
 5927POPC   D2A71910  13.955  25.685   4.895 -0.4602  0.0835 -0.1032
 5927POPC   C3A71911  14.173  25.432   5.226  0.1310  0.0246 -0.0631
 5927POPC   C4A71912  14.078  25.092   5.507  0.0281  0.0375  0.1198
 5927POPC   C1B71913  14.606  25.785   4.308  0.1751  0.0259 -0.1227
 5927POPC   C2B71914  14.792  26.134   4.447 -0.2108 -0.0118  0.3662
 5927POPC   C3B71915  14.988  26.486   4.673  0.1868  0.2113 -0.1019
 5927POPC   C4B71916  15.303  26.710   4.958 -0.1993  0.2444 -0.0087
 5928POPC   NC371917  22.056  26.317   3.742  0.2051  0.2168  0.0182
 5928POPC   PO471918  22.324  26.043   3.725  0.2452  0.2493 -0.1980
 5928POPC   GL171919  22.653  26.004   3.945 -0.0583 -0.0884  0.3086
 5928POPC   GL271920  22.506  25.861   4.159 -0.1949  0.1245 -0.1736
 5928POPC   C1A71921  23.121  25.970   4.085 -0.1985 -0.0049  0.3025
 5928POPC   D2A71922  23.520  26.031   4.301 -0.0118  0.0177  0.0197
 5928POPC   C3A71923  23.480  25.770   4.716  0.0818  0.0062  0.1180
 5928POPC   C4A71924  23.817  25.521   5.021 -0.0594  0.0249  0.1196
 5928POPC   C1B71925  22.788  26.239   4.348  0.2385  0.0545 -0.0673
 5928POPC   C2B71926  22.856  26.622   4.608  0.0143  0.1506  0.3932
 5928POPC   C3B71927  23.063  26.852   4.952  0.1497  0.0521 -0.0222
 5928POPC   C4B71928  22.948  26.822   5.436 -0.1177  0.2097  0.2835
 5929POPC   NC371929  29.809   9.559   3.687 -0.0505  0.1543  0.0679
 5929POPC   PO471930  29.736   9.921   3.654  0.0143 -0.0850  0.0841
 5929POPC   GL171931  29.526  10.049   3.974 -0.0064 -0.0349  0.3535
 5929POPC   GL271932  29.484  10.326   3.926  0.0007  0.0219  0.0803
 5929POPC   C1A71933  29.476   9.924   4.436 -0.2625 -0.1962  0.0255
 5929POPC   D2A71934  29.360   9.656   4.870 -0.0031  0.0276  0.0517
 5929POPC   C3A71935  29.496   9.773   5.303  0.3008 -0.0553 -0.0789
 5929POPC   C4A71936  29.507   9.564   5.729  0.2852 -0.1296  0.2539
 5929POPC   C1B71937  29.710  10.452   4.289  0.0693  0.0821 -0.1967
 5929POPC   C2B71938  29.616  10.648   4.668  0.0423  0.2868  0.2560
 5929POPC   C3B71939  29.478  10.715   5.069 -0.2306  0.0229  0.1203
 5929POPC   C4B71940  29.439  10.605   5.532 -0.1253  0.0270  0.0219
 5930POPC   NC371941  30.774  21.426   3.593  0.0825  0.4026 -0.1344
 5930POPC   PO471942  30.979  21.716   3.583 -0.0734 -0.0911  0.0287
 5930POPC   GL171943  30.942  21.811   3.983  0.0856 -0.3007  0.1384
 5930POPC   GL271944  30.650  21.695   3.983  0.0845 -0.1557 -0.0893
 5930POPC   C1A71945  30.906  22.102   4.367 -0.0398 -0.1349 -0.1317
 5930POPC   D2A71946  30.978  22.261   4.771 -0.2519  0.2752  0.1749
 5930POPC   C3A71947  30.826  21.926   5.053 -0.3727 -0.0862  0.1359
 5930POPC   C4A71948  30.797  21.534   5.282 -0.1811  0.2243  0.0637
 5930POPC   C1B71949  30.419  21.500   4.306  0.0396  0.1260  0.2366
 5930POPC   C2B71950  30.182  21.225   4.583  0.2608 -0.1465  0.2413
 5930POPC   C3B71951  29.989  21.129   5.004 -0.1810  0.0514 -0.5408
 5930POPC   C4B71952  30.103  21.084   5.512 -0.0410 -0.3953 -0.1931
 5931POPC   NC371953   8.097   7.815   3.660  0.0804  0.5810 -0.0278
 5931POPC   PO471954   8.411   8.089   3.735 -0.3128  0.0224 -0.0417
 5931POPC   GL171955   8.392   7.870   4.081 -0.0458  0.0949 -0.1936
 5931POPC   GL271956   8.116   7.984   4.216 -0.1793 -0.1531 -0.1325
 5931POPC   C1A71957   8.429   7.661   4.495 -0.1787 -0.2215  0.0754
 5931POPC   D2A71958   8.677   7.409   4.740 -0.2839  0.1978  0.0544
 5931POPC   C3A71959   8.471   7.342   5.190  0.0173 -0.0316  0.0050
 5931POPC   C4A71960   8.252   7.641   5.524 -0.1860 -0.3225 -0.0155
 5931POPC   C1B71961   7.837   7.978   4.619 -0.0152 -0.3234  0.0970
 5931POPC   C2B71962   7.704   7.945   5.059 -0.1130 -0.1797 -0.0159
 5931POPC   C3B71963   7.518   8.252   5.297  0.1598 -0.0464 -0.2049
 5931POPC   C4B71964   7.464   8.194   5.753  0.1962  0.0162  0.2003
 5932POPC   NC371965   0.441   4.866   3.764  0.1693 -0.1091  0.0226
 5932POPC   PO471966   0.199   5.063   4.002 -0.1330  0.0712 -0.1635
 5932POPC   GL171967   0.173   5.019   4.377  0.1639  0.0630  0.1232
 5932POPC   GL271968   0.386   4.730   4.429  0.0015  0.1789  0.0119
 5932POPC   C1A71969  -0.024   5.031   4.790  0.2279 -0.2128 -0.0323
 5932POPC   D2A71970  -0.116   5.331   5.123 -0.0223  0.0060 -0.2589
 5932POPC   C3A71971  -0.287   5.293   5.582 -0.1616  0.0033  0.2038
 5932POPC   C4A71972  -0.602   4.982   5.800 -0.1943 -0.2461  0.1075
 5932POPC   C1B71973   0.453   4.857   4.842 -0.0054  0.0112  0.0746
 5932POPC   C2B71974   0.185   4.931   5.249  0.1786  0.1370  0.0866
 5932POPC   C3B71975   0.268   5.181   5.623 -0.0446  0.1726 -0.2475
 5932POPC   C4B71976   0.582   5.454   5.852 -0.0707  0.1180  0.0441
 5933POPC   NC371977  10.022   8.158   3.377 -0.1090  0.0727 -0.3147
 5933POPC   PO471978  10.000   8.146   3.719  0.6390  0.0020 -0.3515
 5933POPC   GL171979   9.988   8.230   4.075  0.0225 -0.1313  0.2321
 5933POPC   GL271980  10.067   7.950   4.227  0.2436 -0.0188  0.1057
 5933POPC   C1A71981   9.655   8.347   4.337 -0.0493  0.0045 -0.0337
 5933POPC   D2A71982   9.489   8.311   4.759 -0.1654  0.5155  0.0735
 5933POPC   C3A71983   9.318   8.567   5.064  0.1201  0.1345 -0.0525
 5933POPC   C4A71984   9.312   8.784   5.444 -0.3851  0.0359 -0.2857
 5933POPC   C1B71985  10.142   8.072   4.618 -0.4603  0.1875 -0.0540
 5933POPC   C2B71986  10.191   7.956   5.061  0.2346 -0.0407  0.0640
 5933POPC   C3B71987  10.247   7.970   5.544 -0.2073 -0.1912  0.0146
 5933POPC   C4B71988  10.308   7.729   5.955  0.2394  0.0021 -0.0425
 5934POPC   NC371989  14.464   7.898   3.996 -0.0749  0.0466 -0.2337
 5934POPC   PO471990  14.432   7.512   3.869  0.0202 -0.0816 -0.0113
 5934POPC   GL171991  14.051   7.369   3.973  0.3334  0.0821 -0.0993
 5934POPC   GL271992  14.163   7.144   4.179  0.1677 -0.0173  0.1388
 5934POPC   C1A71993  13.701   7.380   4.299 -0.0021 -0.3407  0.1709
 5934POPC   D2A71994  13.497   7.096   4.601  0.3729 -0.0319  0.4570
 5934POPC   C3A71995  13.626   6.938   5.032 -0.1100  0.0642 -0.1141
 5934POPC   C4A71996  13.817   6.929   5.466 -0.2008 -0.1238 -0.2778
 5934POPC   C1B71997  14.023   7.084   4.575  0.0020  0.0346  0.1065
 5934POPC   C2B71998  14.205   6.994   4.995  0.0729  0.0593  0.0860
 5934POPC   C3B71999  14.200   7.241   5.342 -0.3041 -0.1874  0.0770
 5934POPC   C4B72000  13.997   7.552   5.570  0.1407 -0.2217 -0.1434
 5935POPC   NC372001  14.604  29.029   3.293  0.1211 -0.1008 -0.0192
 5935POPC   PO472002  14.819  28.724   3.291  0.2744  0.0296 -0.2413
 5935POPC   GL172003  14.943  28.858   3.595  0.0788  0.1672 -0.1404
 5935POPC   GL272004  14.723  28.860   3.770 -0.2263  0.0431  0.2810
 5935POPC   C1A72005  15.202  29.116   3.826 -0.1691  0.1231 -0.2393
 5935POPC   D2A72006  15.406  29.102   4.279  0.2323 -0.0437  0.0361
 5935POPC   C3A72007  15.370  28.849   4.609  0.2747  0.0968  0.0378
 5935POPC   C4A72008  15.240  28.988   5.011 -0.0668 -0.0037 -0.1212
 5935POPC   C1B72009  14.894  28.861   4.198 -0.2194  0.0041  0.1868
 5935POPC   C2B72010  14.886  28.919   4.716  0.1512 -0.3596  0.2439
 5935POPC   C3B72011  14.783  28.661   5.095 -0.1630  0.1194 -0.1192
 5935POPC   C4B72012  14.958  28.429   5.485  0.0897 -0.0361  0.0856
 5936POPC   NC372013  19.245  12.717   3.237 -0.0980  0.0101 -0.0336
 5936POPC   PO472014  19.426  12.467   3.460  0.1412  0.2691 -0.0753
 5936POPC   GL172015  19.251  12.650   3.799  0.0884 -0.1206  0.0946
 5936POPC   GL272016  19.341  12.914   3.695  0.0564  0.2674 -0.0745
 5936POPC   C1A72017  19.065  12.547   4.196  0.0168 -0.0015 -0.0647
 5936POPC   D2A72018  19.186  12.603   4.631  0.2515  0.1150  0.1835
 5936POPC   C3A72019  19.089  12.537   5.067 -0.0646 -0.1506  0.0235
 5936POPC   C4A72020  19.268  12.539   5.503 -0.3968 -0.1575 -0.2779
 5936POPC   C1B72021  19.469  12.862   4.132  0.1657 -0.0413 -0.0242
 5936POPC   C2B72022  19.674  12.819   4.560 -0.0416  0.1366 -0.1950
 5936POPC   C3B72023  19.668  12.490   4.904  0.3058  0.1539 -0.1451
 5936POPC   C4B72024  19.831  12.470   5.329 -0.2435 -0.0480 -0.0935
 5937POPC   NC372025  19.141   9.900   3.424 -0.0239 -0.0811  0.0348
 5937POPC   PO472026  19.184   9.683   3.760  0.0575  0.0872  0.0266
 5937POPC   GL172027  19.523   9.639   3.932 -0.1948 -0.2145  0.2727
 5937POPC   GL272028  19.403   9.330   4.032 -0.0449 -0.1847  0.0163
 5937POPC   C1A72029  19.532   9.748   4.351  0.2417  0.2296  0.1502
 5937POPC   D2A72030  19.549   9.792   4.774 -0.1810  0.0916  0.0874
 5937POPC   C3A72031  19.562  10.220   4.914  0.1757  0.0364 -0.0547
 5937POPC   C4A72032  19.339  10.519   5.162  0.0708  0.0180 -0.0306
 5937POPC   C1B72033  19.142   9.332   4.468 -0.0207  0.2760 -0.0185
 5937POPC   C2B72034  18.990   9.421   4.945 -0.0035  0.0415 -0.0351
 5937POPC   C3B72035  19.170   9.450   5.357 -0.3185 -0.0499  0.1303
 5937POPC   C4B72036  19.408   9.622   5.728  0.0161 -0.0945 -0.1097
 5938POPC   NC372037  11.590   2.296   3.938 -0.1452  0.1048 -0.3672
 5938POPC   PO472038  11.862   2.103   3.714 -0.1065 -0.1979  0.4147
 5938POPC   GL172039  11.949   1.792   3.872 -0.3005 -0.1233 -0.2028
 5938POPC   GL272040  11.700   1.812   4.110 -0.0443  0.1300 -0.1265
 5938POPC   C1A72041  12.111   1.562   4.276  0.0037  0.0714 -0.4179
 5938POPC   D2A72042  12.363   1.548   4.690 -0.0183  0.1497 -0.2194
 5938POPC   C3A72043  12.407   1.295   5.022  0.1807  0.2091 -0.2343
 5938POPC   C4A72044  12.545   1.223   5.495  0.0118  0.0557 -0.0386
 5938POPC   C1B72045  11.770   1.737   4.608 -0.4527 -0.0389 -0.0969
 5938POPC   C2B72046  11.946   1.483   4.914  0.1193  0.4302 -0.0111
 5938POPC   C3B72047  12.144   1.568   5.330  0.0343  0.3208 -0.0616
 5938POPC   C4B72048  12.118   1.884   5.656  0.2229  0.2203  0.2121
 5939POPC   NC372049  14.652   6.582   4.008 -0.2904 -0.0884 -0.1584
 5939POPC   PO472050  15.000   6.621   3.842  0.0788 -0.1793 -0.3857
 5939POPC   GL172051  15.094   6.433   4.191  0.1317  0.4629 -0.1707
 5939POPC   GL272052  14.851   6.234   4.273  0.3609  0.0827 -0.0770
 5939POPC   C1A72053  15.443   6.371   4.468  0.0027  0.0833 -0.0837
 5939POPC   D2A72054  15.832   6.542   4.694 -0.2375 -0.3499 -0.0516
 5939POPC   C3A72055  15.900   6.964   4.865  0.1583 -0.0469  0.1211
 5939POPC   C4A72056  15.856   7.118   5.308 -0.0575  0.3264  0.1088
 5939POPC   C1B72057  15.018   6.096   4.623  0.0937 -0.2293 -0.1372
 5939POPC   C2B72058  15.290   6.145   4.961  0.2123 -0.2289 -0.0226
 5939POPC   C3B72059  15.537   6.122   5.311 -0.2714 -0.2232  0.2562
 5939POPC   C4B72060  15.579   5.940   5.754  0.0545 -0.1443  0.2858
 5940POPC   NC372061  13.054  12.023   3.805 -0.0987 -0.1884 -0.0497
 5940POPC   PO472062  13.255  12.303   3.850 -0.2218 -0.0689 -0.3983
 5940POPC   GL172063  13.070  12.375   4.211 -0.1108 -0.1285 -0.1871
 5940POPC   GL272064  13.133  12.238   4.489  0.0770 -0.1298 -0.2447
 5940POPC   C1A72065  12.863  12.627   4.504  0.1230  0.0673 -0.0509
 5940POPC   D2A72066  12.535  12.984   4.593  0.0763 -0.0998  0.0947
 5940POPC   C3A72067  12.185  12.844   4.913  0.0813  0.0611  0.2232
 5940POPC   C4A72068  11.890  12.891   5.249 -0.0908 -0.1487 -0.0135
 5940POPC   C1B72069  13.330  12.231   4.935  0.0530  0.0982 -0.2228
 5940POPC   C2B72070  13.576  12.355   5.292 -0.0188 -0.2809  0.0005
 5940POPC   C3B72071  13.560  12.156   5.737  0.0175  0.3214 -0.1219
 5940POPC   C4B72072  13.681  11.795   6.013  0.0706 -0.1539  0.3362
 5941POPC   NC372073   5.396   8.976   3.971  0.2348 -0.1869 -0.1074
 5941POPC   PO472074   5.179   9.262   3.888 -0.0208 -0.1664  0.0719
 5941POPC   GL172075   5.188   9.299   4.247 -0.0513 -0.2078 -0.2573
 5941POPC   GL272076   5.033   9.625   4.241  0.1084  0.0420  0.2395
 5941POPC   C1A72077   5.369   9.450   4.628  0.3388 -0.0059 -0.0933
 5941POPC   D2A72078   5.478   9.532   5.062 -0.1380  0.0069  0.3993
 5941POPC   C3A72079   5.367   9.993   5.216 -0.0238  0.2543  0.3644
 5941POPC   C4A72080   5.394  10.456   5.140 -0.0121  0.0070 -0.0313
 5941POPC   C1B72081   5.439   9.790   4.292  0.0001 -0.0543  0.1304
 5941POPC   C2B72082   5.638  10.219   4.242  0.1974  0.3063  0.1024
 5941POPC   C3B72083   5.921  10.568   4.210 -0.2457  0.2135  0.1228
 5941POPC   C4B72084   6.368  10.565   4.126  0.0083 -0.0340  0.0611
 5942POPC   NC372085  24.696  27.362   3.984 -0.0696  0.1048 -0.0971
 5942POPC   PO472086  24.672  26.981   3.890 -0.4813  0.3511  0.0646
 5942POPC   GL172087  24.649  26.631   4.208 -0.1377 -0.0026 -0.1183
 5942POPC   GL272088  24.682  26.387   4.066  0.1091 -0.1825 -0.0980
 5942POPC   C1A72089  24.761  26.587   4.665  0.0662  0.3337  0.2613
 5942POPC   D2A72090  25.017  26.517   4.998  0.2585  0.3473 -0.1080
 5942POPC   C3A72091  24.906  26.064   5.195  0.2717 -0.0402  0.0822
 5942POPC   C4A72092  24.790  25.615   5.216  0.1547 -0.0212 -0.0901
 5942POPC   C1B72093  24.887  26.054   4.408 -0.2638 -0.1298  0.2888
 5942POPC   C2B72094  24.940  25.829   4.776 -0.0409  0.1579  0.3177
 5942POPC   C3B72095  25.196  25.547   4.962 -0.2105 -0.2507 -0.1044
 5942POPC   C4B72096  25.285  25.572   5.420 -0.0390  0.0869  0.0430
 5943POPC   NC372097  21.723  10.026   3.135  0.1669  0.4309 -0.3673
 5943POPC   PO472098  21.805  10.013   3.563 -0.2498  0.3278 -0.0702
 5943POPC   GL172099  21.748  10.050   3.908  0.1022  0.2305  0.0875
 5943POPC   GL272100  21.447   9.907   3.920 -0.0763  0.2531 -0.1048
 5943POPC   C1A72101  21.901  10.115   4.362  0.1444 -0.2879 -0.2124
 5943POPC   D2A72102  21.990  10.528   4.606  0.4780  0.0201  0.1382
 5943POPC   C3A72103  22.186  10.446   5.019 -0.0026  0.0472 -0.3111
 5943POPC   C4A72104  22.390  10.533   5.430 -0.1579 -0.1045 -0.1659
 5943POPC   C1B72105  21.373   9.832   4.347  0.0929  0.1847 -0.1402
 5943POPC   C2B72106  21.204   9.677   4.722  0.0630  0.0665 -0.0113
 5943POPC   C3B72107  20.957   9.486   5.072  0.0803 -0.0049 -0.1148
 5943POPC   C4B72108  20.636   9.321   5.353 -0.0352  0.0687 -0.1451
 5944POPC   NC372109   5.732  23.887   3.882  0.1986 -0.1830  0.0253
 5944POPC   PO472110   5.664  24.271   3.737 -0.1454 -0.3250 -0.1716
 5944POPC   GL172111   5.732  24.522   4.096  0.1968  0.0420  0.2125
 5944POPC   GL272112   5.987  24.401   4.274  0.0792  0.2872  0.2705
 5944POPC   C1A72113   5.840  24.856   4.422  0.0257  0.1014  0.0015
 5944POPC   D2A72114   6.197  25.165   4.601  0.2916  0.1314 -0.3272
 5944POPC   C3A72115   6.144  25.373   4.951 -0.2016 -0.1806  0.2061
 5944POPC   C4A72116   5.986  25.594   5.306  0.1289  0.3820  0.2033
 5944POPC   C1B72117   5.852  24.352   4.682  0.1191  0.2559  0.0680
 5944POPC   C2B72118   5.569  24.338   5.080 -0.1109 -0.0898 -0.1629
 5944POPC   C3B72119   5.619  24.312   5.588  0.2614 -0.0617  0.0877
 5944POPC   C4B72120   5.484  24.344   6.032 -0.2110  0.4030 -0.3082
 5945POPC   NC372121   3.813   9.690   4.027 -0.1907  0.1578  0.2391
 5945POPC   PO472122   3.937  10.032   3.884  0.1344 -0.1909 -0.2277
 5945POPC   GL172123   3.885  10.073   4.281 -0.0238  0.1293  0.0127
 5945POPC   GL272124   3.663  10.192   4.525  0.1207  0.0552 -0.2459
 5945POPC   C1A72125   3.878   9.716   4.602 -0.1799  0.0258 -0.2608
 5945POPC   D2A72126   3.856   9.714   5.062 -0.4332  0.1321  0.3162
 5945POPC   C3A72127   4.203   9.548   5.268 -0.1283  0.0417 -0.1911
 5945POPC   C4A72128   4.473   9.210   5.228 -0.2931  0.0933  0.1688
 5945POPC   C1B72129   3.969  10.156   4.862  0.1628 -0.1055 -0.0995
 5945POPC   C2B72130   4.283  10.429   5.096  0.2699  0.3293 -0.0878
 5945POPC   C3B72131   4.627  10.589   5.332 -0.3930 -0.1347  0.0774
 5945POPC   C4B72132   4.696  10.729   5.804 -0.0460 -0.1667  0.1471
 5946POPC   NC372133  22.356  18.117   3.380  0.1284  0.0854  0.0440
 5946POPC   PO472134  22.609  18.275   3.644 -0.1258 -0.0330 -0.1129
 5946POPC   GL172135  22.392  18.315   3.922 -0.0180 -0.3456 -0.0838
 5946POPC   GL272136  22.140  18.352   3.812 -0.1009  0.0586 -0.2720
 5946POPC   C1A72137  22.271  18.061   4.246 -0.2845  0.2830 -0.0233
 5946POPC   D2A72138  22.195  18.159   4.744 -0.0786 -0.0920 -0.1626
 5946POPC   C3A72139  22.576  18.151   4.992  0.1021 -0.0875  0.1276
 5946POPC   C4A72140  22.954  18.126   5.301 -0.0721 -0.2420 -0.0302
 5946POPC   C1B72141  21.825  18.145   3.501 -0.1583 -0.1201  0.1301
 5946POPC   C2B72142  21.583  17.778   3.338  0.1472  0.1870 -0.2053
 5946POPC   C3B72143  21.352  17.398   3.248  0.1580  0.2011  0.1125
 5946POPC   C4B72144  21.112  16.986   3.204  0.0443 -0.0156 -0.0654
 5947POPC   NC372145  15.015  12.444   3.243  0.1112 -0.1007  0.1006
 5947POPC   PO472146  14.769  12.224   3.486 -0.0648 -0.1529 -0.1622
 5947POPC   GL172147  14.993  12.016   3.910 -0.4532 -0.3165 -0.2367
 5947POPC   GL272148  15.213  11.927   3.971 -0.0831  0.0328  0.5370
 5947POPC   C1A72149  14.932  11.694   4.241  0.1061  0.3294 -0.2541
 5947POPC   D2A72150  14.579  11.466   4.438 -0.0842  0.1677  0.2723
 5947POPC   C3A72151  14.459  11.067   4.521  0.2246  0.0820  0.3357
 5947POPC   C4A72152  14.631  10.665   4.652 -0.2263 -0.3281 -0.1163
 5947POPC   C1B72153  15.362  11.423   3.989  0.4376 -0.0991  0.1867
 5947POPC   C2B72154  15.353  11.113   4.362 -0.1432 -0.2046  0.2925
 5947POPC   C3B72155  15.530  10.870   4.713 -0.0376 -0.1575  0.0960
 5947POPC   C4B72156  15.565  10.583   5.004 -0.1417 -0.1489 -0.1289
 5948POPC   NC372157  30.684  20.536   4.053  0.2894  0.2071  0.0797
 5948POPC   PO472158  30.495  20.161   4.064  0.2753 -0.0944  0.2137
 5948POPC   GL172159  30.527  20.123   4.408 -0.1481  0.0754  0.1630
 5948POPC   GL272160  30.275  20.234   4.532 -0.3747 -0.2574 -0.4408
 5948POPC   C1A72161  30.491  19.768   4.743  0.1088 -0.0835  0.2777
 5948POPC   D2A72162  30.237  19.769   5.183 -0.1542  0.1785 -0.3449
 5948POPC   C3A72163  30.229  19.346   5.425  0.2514  0.1063  0.1245
 5948POPC   C4A72164  30.002  19.215   5.750 -0.1848 -0.0074 -0.0243
 5948POPC   C1B72165  30.401  20.292   5.031  0.0781 -0.1477 -0.0430
 5948POPC   C2B72166  30.220  20.232   5.445  0.2578  0.0737 -0.1225
 5948POPC   C3B72167  30.261  20.277   5.882 -0.1521  0.0226 -0.1385
 5948POPC   C4B72168  30.424  20.484   6.224  0.0273 -0.0045 -0.0794
 5949POPC   NC372169  13.919  18.607   3.107 -0.3220  0.1456  0.2885
 5949POPC   PO472170  14.228  18.337   3.126  0.2607  0.0146  0.1549
 5949POPC   GL172171  14.022  18.318   3.422  0.0059  0.1687 -0.2665
 5949POPC   GL272172  14.185  18.357   3.670  0.0897  0.2357  0.3167
 5949POPC   C1A72173  13.743  18.500   3.776  0.3063  0.0922 -0.1423
 5949POPC   D2A72174  13.429  18.535   4.106 -0.0402 -0.4470  0.1085
 5949POPC   C3A72175  13.522  18.536   4.635  0.1621  0.0935  0.4136
 5949POPC   C4A72176  13.278  18.766   4.991 -0.1883  0.2508  0.1543
 5949POPC   C1B72177  14.018  18.235   4.040 -0.0938 -0.2190 -0.2130
 5949POPC   C2B72178  13.730  18.073   4.323  0.3227 -0.0779  0.0045
 5949POPC   C3B72179  13.637  17.747   4.640  0.4450  0.4114  0.3336
 5949POPC   C4B72180  13.516  17.495   5.041  0.2615  0.2015 -0.1535
 5950POPC   NC372181  18.217  11.380   3.812 -0.0195  0.1579 -0.1130
 5950POPC   PO472182  17.981  11.080   3.638  0.0340  0.1789 -0.0382
 5950POPC   GL172183  18.011  10.991   4.131  0.1100  0.2079  0.1173
 5950POPC   GL272184  17.837  11.260   4.263 -0.0689  0.3916  0.0005
 5950POPC   C1A72185  18.205  10.940   4.531  0.0537  0.1326  0.0532
 5950POPC   D2A72186  18.396  10.882   4.932 -0.0970 -0.1043  0.0887
 5950POPC   C3A72187  18.028  11.038   5.190 -0.2137 -0.2797  0.1761
 5950POPC   C4A72188  17.994  11.022   5.660 -0.1463 -0.1280  0.0880
 5950POPC   C1B72189  17.544  11.473   4.624  0.0877 -0.0968  0.1193
 5950POPC   C2B72190  17.461  11.289   5.038 -0.0591 -0.2635 -0.0616
 5950POPC   C3B72191  17.632  11.336   5.451 -0.2909 -0.0429 -0.0737
 5950POPC   C4B72192  17.571  11.311   5.893  0.0946 -0.0181 -0.1153
 5951POPC   NC372193  27.213  13.675   3.554 -0.1407  0.0947  0.0330
 5951POPC   PO472194  27.316  14.043   3.623 -0.1663 -0.0225  0.1049
 5951POPC   GL172195  27.544  13.940   3.856 -0.0023  0.1611 -0.0290
 5951POPC   GL272196  27.515  13.644   3.954  0.0935  0.1418 -0.0841
 5951POPC   C1A72197  27.897  13.983   4.183  0.0266  0.1251 -0.0693
 5951POPC   D2A72198  28.285  13.767   4.378 -0.0604  0.2191 -0.1986
 5951POPC   C3A72199  28.175  13.537   4.674 -0.3682  0.0231  0.3861
 5951POPC   C4A72200  28.088  13.371   5.111 -0.2996  0.0795 -0.0656
 5951POPC   C1B72201  27.176  13.840   4.332  0.0724 -0.0512  0.2219
 5951POPC   C2B72202  26.898  13.599   4.592 -0.0683  0.0348  0.1203
 5951POPC   C3B72203  26.936  13.548   5.095  0.0610  0.1348  0.0715
 5951POPC   C4B72204  27.001  13.148   5.315 -0.0848 -0.1598  0.1536
 5952POPC   NC372205  10.624  16.348   3.558  0.0636  0.1382 -0.0208
 5952POPC   PO472206  10.825  16.702   3.595 -0.0076  0.2068  0.0973
 5952POPC   GL172207  11.108  16.695   3.839  0.1558  0.2365  0.1734
 5952POPC   GL272208  10.963  16.439   3.982 -0.2245  0.1217  0.1355
 5952POPC   C1A72209  11.035  16.840   4.333  0.1136  0.0553  0.1163
 5952POPC   D2A72210  10.990  16.639   4.732 -0.1082 -0.1296 -0.2744
 5952POPC   C3A72211  11.382  16.634   5.023  0.2833 -0.0175  0.1288
 5952POPC   C4A72212  11.739  16.706   5.343  0.1122  0.1105 -0.1454
 5952POPC   C1B72213  11.121  16.350   4.380 -0.3652  0.1696 -0.1018
 5952POPC   C2B72214  11.512  16.257   4.657 -0.1262  0.3704  0.0362
 5952POPC   C3B72215  11.865  16.231   4.989  0.1168  0.0436  0.0229
 5952POPC   C4B72216  12.272  16.303   5.204  0.0137 -0.3293  0.1667
 5953POPC   NC372217   5.698   6.616   3.662 -0.1353 -0.2056  0.0522
 5953POPC   PO472218   5.369   6.730   3.835 -0.2779  0.2289  0.0065
 5953POPC   GL172219   5.440   6.497   4.145  0.4889  0.3892 -0.0996
 5953POPC   GL272220   5.087   6.420   4.204  0.0252  0.3056  0.1720
 5953POPC   C1A72221   5.740   6.473   4.502  0.1915 -0.3585  0.1996
 5953POPC   D2A72222   5.961   6.470   4.927  0.2923  0.0190 -0.0969
 5953POPC   C3A72223   6.154   6.790   5.131  0.2569 -0.2901 -0.0029
 5953POPC   C4A72224   6.298   6.860   5.559 -0.1380 -0.1314 -0.2252
 5953POPC   C1B72225   5.228   6.496   4.654  0.0728 -0.0585  0.1017
 5953POPC   C2B72226   5.035   6.387   5.091  0.1069  0.0395  0.3367
 5953POPC   C3B72227   5.067   6.190   5.552  0.0698 -0.1569  0.2561
 5953POPC   C4B72228   5.277   6.355   5.966 -0.0347 -0.0664  0.1563
 5954POPC   NC372229  31.540  22.938   3.228 -0.0701 -0.1488  0.0746
 5954POPC   PO472230  31.576  23.309   3.322  0.0102  0.0466 -0.0235
 5954POPC   GL172231  31.888  23.352   3.663  0.3750 -0.0283  0.2995
 5954POPC   GL272232  32.145  23.386   3.602  0.1848 -0.1102  0.0636
 5954POPC   C1A72233  31.861  23.559   4.045 -0.1445 -0.2230  0.1263
 5954POPC   D2A72234  31.411  23.683   4.170 -0.0676 -0.1552  0.0898
 5954POPC   C3A72235  31.488  23.644   4.597 -0.1147 -0.0574  0.0221
 5954POPC   C4A72236  31.321  23.759   5.008  0.2688 -0.0217 -0.1676
 5954POPC   C1B72237  32.278  23.309   4.032  0.3577  0.0591 -0.0007
 5954POPC   C2B72238  32.318  23.215   4.456  0.0505  0.3516  0.2653
 5954POPC   C3B72239  32.274  23.308   4.913  0.1682  0.1979  0.1934
 5954POPC   C4B72240  32.198  23.029   5.289  0.2073  0.0231  0.1203
 5955POPC   NC372241  13.167  29.982   3.900  0.1066 -0.1065 -0.3739
 5955POPC   PO472242  12.778  30.086   3.857 -0.1510  0.2282  0.1009
 5955POPC   GL172243  12.612  30.143   4.156  0.0676 -0.4166  0.0827
 5955POPC   GL272244  12.633  30.402   4.277  0.1054  0.0288 -0.2102
 5955POPC   C1A72245  12.464  30.064   4.565  0.0574  0.2894  0.1278
 5955POPC   D2A72246  12.605  30.063   5.013  0.2205 -0.0701 -0.0492
 5955POPC   C3A72247  12.380  30.161   5.423  0.0953 -0.0175 -0.2922
 5955POPC   C4A72248  12.053  30.189   5.765  0.0343  0.1292  0.0056
 5955POPC   C1B72249  12.736  30.437   4.718 -0.0712  0.1308 -0.0622
 5955POPC   C2B72250  12.804  30.498   5.137 -0.0509 -0.3630 -0.3953
 5955POPC   C3B72251  12.663  30.740   5.479 -0.0367 -0.1118  0.1302
 5955POPC   C4B72252  12.605  30.892   5.908  0.0162 -0.1953  0.2302
 5956POPC   NC372253  20.570  24.873   3.647  0.1381 -0.0643  0.2178
 5956POPC   PO472254  20.303  25.006   3.902  0.1314 -0.1549  0.1474
 5956POPC   GL172255  20.056  25.233   4.227 -0.1180  0.0082  0.3497
 5956POPC   GL272256  20.075  24.984   4.341 -0.1131  0.4526  0.0046
 5956POPC   C1A72257  19.682  25.308   4.524 -0.4639  0.0207  0.1694
 5956POPC   D2A72258  19.541  25.274   4.953  0.0201  0.2394  0.2769
 5956POPC   C3A72259  19.423  25.209   5.413  0.3822 -0.0207 -0.0574
 5956POPC   C4A72260  19.636  25.008   5.749 -0.0123  0.0416  0.0049
 5956POPC   C1B72261  19.989  24.951   4.794  0.0082  0.1180 -0.0693
 5956POPC   C2B72262  19.784  24.733   5.114 -0.0186 -0.2556 -0.1604
 5956POPC   C3B72263  19.832  24.548   5.537 -0.0429 -0.1800 -0.0879
 5956POPC   C4B72264  19.918  24.346   5.969 -0.0431 -0.0492  0.1052
 5957POPC   NC372265  20.177  29.190   4.118  0.0236 -0.1787  0.0768
 5957POPC   PO472266  20.203  29.444   3.796 -0.0839 -0.0884  0.1324
 5957POPC   GL172267  20.270  29.645   4.168  0.1007 -0.4901 -0.5822
 5957POPC   GL272268  20.022  29.697   4.262 -0.1979  0.1327 -0.0499
 5957POPC   C1A72269  20.306  29.594   4.660 -0.1418 -0.0293 -0.2795
 5957POPC   D2A72270  20.440  29.842   5.071  0.1610 -0.3027  0.0786
 5957POPC   C3A72271  20.501  29.687   5.460 -0.0695 -0.1123  0.0503
 5957POPC   C4A72272  20.347  29.376   5.766  0.0657 -0.1157 -0.1156
 5957POPC   C1B72273  19.894  29.953   4.657 -0.0606 -0.3346  0.1160
 5957POPC   C2B72274  19.867  29.942   5.053 -0.4095 -0.0001  0.0073
 5957POPC   C3B72275  19.542  29.797   5.363  0.1272  0.1806  0.1343
 5957POPC   C4B72276  19.124  29.703   5.559  0.1043 -0.2679 -0.4561
 5958POPC   NC372277   2.716  25.415   4.045  0.2615 -0.0884 -0.0245
 5958POPC   PO472278   2.490  25.342   3.774 -0.0053 -0.1046 -0.1811
 5958POPC   GL172279   2.247  25.246   4.037 -0.1111 -0.1434 -0.0021
 5958POPC   GL272280   2.278  24.894   4.060 -0.0483  0.1666 -0.2005
 5958POPC   C1A72281   2.228  25.461   4.431 -0.5739  0.1438 -0.1742
 5958POPC   D2A72282   2.104  25.691   4.803 -0.0814 -0.0833 -0.0093
 5958POPC   C3A72283   1.841  25.717   5.197  0.0675 -0.0093 -0.0243
 5958POPC   C4A72284   1.687  25.639   5.631  0.0483  0.1992 -0.2194
 5958POPC   C1B72285   2.182  24.935   4.495  0.1342 -0.1176  0.3390
 5958POPC   C2B72286   1.921  25.232   4.809  0.0188 -0.0770 -0.1826
 5958POPC   C3B72287   1.589  25.195   5.078  0.2122 -0.1496 -0.0145
 5958POPC   C4B72288   1.318  25.186   5.441 -0.1281 -0.0993  0.2260
 5959POPC   NC372289   0.978  15.690   3.705  0.0084 -0.3587  0.2210
 5959POPC   PO472290   0.925  15.295   3.665 -0.0487 -0.3381 -0.0831
 5959POPC   GL172291   0.867  15.160   4.021  0.1163 -0.0348  0.1015
 5959POPC   GL272292   1.004  14.918   4.044 -0.1252  0.0198  0.1257
 5959POPC   C1A72293   0.595  15.214   4.436 -0.1731  0.0422 -0.0552
 5959POPC   D2A72294   0.232  15.240   4.682  0.0361  0.1459  0.0670
 5959POPC   C3A72295   0.109  15.297   5.100 -0.1189  0.2175 -0.3461
 5959POPC   C4A72296   0.114  15.490   5.501  0.1847  0.2042 -0.0473
 5959POPC   C1B72297   1.076  14.984   4.450 -0.0636 -0.1360  0.0294
 5959POPC   C2B72298   1.148  15.054   4.905  0.4094 -0.0951  0.3710
 5959POPC   C3B72299   1.021  15.041   5.342 -0.2178 -0.1106 -0.1724
 5959POPC   C4B72300   0.758  14.788   5.581  0.0635  0.0296 -0.2369
 5960POPC   NC372301   7.175  27.353   3.551  0.0358  0.0882  0.0453
 5960POPC   PO472302   6.929  27.096   3.702 -0.1617  0.1280  0.1136
 5960POPC   GL172303   7.039  27.317   3.997 -0.6632  0.3158 -0.1206
 5960POPC   GL272304   7.162  27.209   4.237 -0.1783 -0.0601  0.0675
 5960POPC   C1A72305   6.957  27.659   4.290  0.0777  0.0521 -0.2255
 5960POPC   D2A72306   7.179  27.966   4.566  0.3532 -0.2056 -0.0538
 5960POPC   C3A72307   6.942  28.026   4.939  0.3046 -0.4338  0.2775
 5960POPC   C4A72308   6.911  28.252   5.345  0.1274  0.2354  0.1596
 5960POPC   C1B72309   7.060  27.001   4.659 -0.3069 -0.0907  0.1959
 5960POPC   C2B72310   6.996  27.011   5.151 -0.0485  0.2857  0.1420
 5960POPC   C3B72311   6.651  27.047   5.489 -0.2111 -0.0866 -0.2494
 5960POPC   C4B72312   6.292  27.252   5.757  0.1433  0.0391 -0.1600
 5961POPC   NC372313  26.850  12.648   3.510  0.0197  0.3635 -0.0066
 5961POPC   PO472314  27.180  12.472   3.335 -0.4628  0.0106  0.0798
 5961POPC   GL172315  27.217  12.410   3.738 -0.1005 -0.1678 -0.6128
 5961POPC   GL272316  26.974  12.170   3.712 -0.2079  0.1257  0.1425
 5961POPC   C1A72317  27.243  12.787   4.023 -0.2823 -0.0106  0.0606
 5961POPC   D2A72318  26.854  13.125   3.954 -0.1591 -0.1153 -0.2954
 5961POPC   C3A72319  26.839  13.594   4.065  0.0445  0.0114  0.3092
 5961POPC   C4A72320  26.813  14.022   3.953  0.3508  0.0506 -0.3505
 5961POPC   C1B72321  26.988  12.363   4.087  0.1028  0.0988  0.2131
 5961POPC   C2B72322  26.969  12.352   4.528  0.1360  0.4412 -0.0231
 5961POPC   C3B72323  26.618  12.145   4.748 -0.0161  0.1221 -0.0042
 5961POPC   C4B72324  26.326  11.786   4.549 -0.0876  0.3428 -0.0543
 5962POPC   NC372325   5.042  12.172   2.699  0.1086  0.1276  0.0198
 5962POPC   PO472326   5.017  12.252   3.064  0.0722 -0.6327 -0.0090
 5962POPC   GL172327   5.381  12.134   3.171 -0.1372 -0.2056 -0.2160
 5962POPC   GL272328   5.368  11.905   3.012 -0.2009  0.1077  0.1824
 5962POPC   C1A72329   5.645  11.907   3.493 -0.0513 -0.1638  0.1209
 5962POPC   D2A72330   5.718  11.482   3.727  0.2029 -0.0604  0.4636
 5962POPC   C3A72331   5.967  11.131   3.483  0.0153  0.3379 -0.0954
 5962POPC   C4A72332   6.309  11.303   3.199 -0.0711 -0.0080  0.1838
 5962POPC   C1B72333   5.288  11.579   3.289 -0.1333  0.0040 -0.0373
 5962POPC   C2B72334   5.455  11.161   3.434 -0.0616 -0.0016 -0.1604
 5962POPC   C3B72335   5.518  10.758   3.215  0.1617  0.0476  0.2742
 5962POPC   C4B72336   5.515  10.376   2.934  0.1438  0.1058 -0.1422
 5963POPC   NC372337  26.580  10.239   3.405  0.2942 -0.2246  0.0580
 5963POPC   PO472338  26.385   9.933   3.593 -0.0559 -0.1345 -0.0863
 5963POPC   GL172339  26.419  10.162   4.000  0.0205 -0.0647  0.1686
 5963POPC   GL272340  26.338   9.879   4.080  0.1869  0.0489  0.1242
 5963POPC   C1A72341  26.151  10.450   4.256  0.0554 -0.0890  0.1892
 5963POPC   D2A72342  25.973  10.811   4.429 -0.2237  0.2135  0.2391
 5963POPC   C3A72343  25.883  10.825   4.845  0.1703  0.0091 -0.2754
 5963POPC   C4A72344  25.970  11.069   5.228  0.3386  0.2838  0.2180
 5963POPC   C1B72345  26.542   9.683   4.470  0.1129  0.0511 -0.0995
 5963POPC   C2B72346  26.832   9.868   4.766  0.1307 -0.1200 -0.1223
 5963POPC   C3B72347  27.170  10.001   5.060  0.1736  0.2517  0.1077
 5963POPC   C4B72348  27.102  10.265   5.405 -0.1451 -0.1051 -0.2586
 5964POPC   NC372349  26.140  12.294   3.442  0.2162  0.2682 -0.1923
 5964POPC   PO472350  25.934  12.373   3.761 -0.2581 -0.0847 -0.0955
 5964POPC   GL172351  25.886  12.320   4.166 -0.1001  0.0798 -0.0840
 5964POPC   GL272352  26.043  12.566   4.241 -0.0514 -0.2928  0.1061
 5964POPC   C1A72353  25.788  11.953   4.437  0.1914 -0.0451  0.1447
 5964POPC   D2A72354  25.605  11.520   4.391  0.2268 -0.1172 -0.0238
 5964POPC   C3A72355  25.806  11.203   4.195  0.0228  0.0810 -0.0857
 5964POPC   C4A72356  25.878  10.793   3.944  0.1116 -0.2786  0.3338
 5964POPC   C1B72357  26.178  12.264   4.575  0.3596  0.2362 -0.2498
 5964POPC   C2B72358  26.199  12.003   4.968 -0.0114  0.1921 -0.0560
 5964POPC   C3B72359  26.424  11.915   5.267  0.0694  0.0658 -0.0773
 5964POPC   C4B72360  26.621  11.817   5.734  0.0612 -0.0850  0.0688
 5965POPC   NC372361  22.650  25.744   3.308  0.1678 -0.0358 -0.0677
 5965POPC   PO472362  22.905  25.944   3.455 -0.1583 -0.0118  0.2137
 5965POPC   GL172363  22.855  25.571   3.680  0.0806 -0.1531  0.1573
 5965POPC   GL272364  22.570  25.509   3.722  0.0447 -0.3018 -0.0057
 5965POPC   C1A72365  22.911  25.541   4.134 -0.0817 -0.3953  0.1947
 5965POPC   D2A72366  23.014  25.816   4.530 -0.0438  0.1456 -0.0935
 5965POPC   C3A72367  22.765  25.552   4.822  0.0597  0.3259 -0.0590
 5965POPC   C4A72368  22.406  25.294   4.980 -0.0993 -0.0475 -0.1793
 5965POPC   C1B72369  22.728  25.095   3.800 -0.0009 -0.0438  0.0285
 5965POPC   C2B72370  23.062  24.862   4.034  0.0622 -0.1976  0.2147
 5965POPC   C3B72371  23.184  24.770   4.429 -0.0451 -0.0016  0.0291
 5965POPC   C4B72372  23.244  24.802   4.920  0.0199  0.4234 -0.1827
 5966POPC   NC372373  29.439  12.643   3.975 -0.2538  0.0262  0.1538
 5966POPC   PO472374  29.591  12.419   3.724  0.0645 -0.0102  0.2997
 5966POPC   GL172375  29.579  12.130   4.045  0.0016 -0.2149  0.2234
 5966POPC   GL272376  29.743  11.895   4.134 -0.0220 -0.0990  0.2273
 5966POPC   C1A72377  29.325  11.855   4.377  0.2081 -0.1165  0.0347
 5966POPC   D2A72378  29.374  11.693   4.763 -0.1869  0.2746  0.1906
 5966POPC   C3A72379  29.280  11.969   5.110  0.0306  0.0807  0.1282
 5966POPC   C4A72380  29.254  12.150   5.512  0.2694 -0.0199 -0.2890
 5966POPC   C1B72381  29.808  11.654   4.514 -0.0754  0.1769  0.2046
 5966POPC   C2B72382  30.129  11.432   4.835 -0.1109 -0.1153 -0.1298
 5966POPC   C3B72383  30.437  11.322   5.131  0.0804 -0.2811 -0.1141
 5966POPC   C4B72384  30.757  11.426   5.444  0.1192 -0.0391 -0.2738
 5967POPC   NC372385  27.620   5.079   3.286  0.0491  0.0434 -0.0417
 5967POPC   PO472386  27.644   5.376   3.561  0.0826 -0.3288 -0.0073
 5967POPC   GL172387  27.394   5.614   3.905 -0.0377  0.3500 -0.0555
 5967POPC   GL272388  27.474   5.868   3.900 -0.0210  0.1771  0.0291
 5967POPC   C1A72389  27.349   5.371   4.290  0.0652  0.1705  0.1430
 5967POPC   D2A72390  27.483   4.997   4.405  0.2463  0.0001  0.0251
 5967POPC   C3A72391  27.702   4.899   4.805 -0.0754  0.1314  0.1000
 5967POPC   C4A72392  27.662   4.992   5.242 -0.0007 -0.0076  0.1609
 5967POPC   C1B72393  27.449   5.847   4.321  0.0363 -0.0892  0.2150
 5967POPC   C2B72394  27.789   5.885   4.617 -0.3947 -0.1186 -0.0831
 5967POPC   C3B72395  28.121   6.155   4.852  0.2965  0.2428  0.0109
 5967POPC   C4B72396  28.323   6.329   5.222  0.0480 -0.0096  0.1612
 5968POPC   NC372397  15.720  29.802   3.815  0.1194  0.2497  0.2215
 5968POPC   PO472398  16.017  29.939   3.651 -0.2656 -0.2303 -0.1412
 5968POPC   GL172399  15.891  30.202   4.029  0.2748  0.1472  0.2629
 5968POPC   GL272400  15.971  30.021   4.200  0.1308 -0.4595 -0.0796
 5968POPC   C1A72401  15.971  30.515   4.320  0.0065 -0.0728 -0.3706
 5968POPC   D2A72402  15.619  30.654   4.637  0.0011  0.0575  0.1930
 5968POPC   C3A72403  15.754  30.905   5.018  0.0066  0.2252 -0.2035
 5968POPC   C4A72404  15.583  31.158   5.380 -0.1007 -0.1135 -0.0268
 5968POPC   C1B72405  16.184  30.119   4.566 -0.0405 -0.0734 -0.1246
 5968POPC   C2B72406  16.102  29.912   4.979 -0.1004  0.3420  0.2336
 5968POPC   C3B72407  16.120  29.964   5.464  0.3549  0.0908 -0.1448
 5968POPC   C4B72408  16.207  30.273   5.762  0.2249 -0.2256  0.1534
 5969POPC   NC372409   9.777  28.720   3.471 -0.0561  0.1834  0.0926
 5969POPC   PO472410   9.622  28.884   3.762 -0.0640 -0.2682  0.1848
 5969POPC   GL172411   9.294  28.964   3.967  0.0109 -0.0738 -0.1708
 5969POPC   GL272412   9.062  28.750   4.082  0.0760 -0.1614 -0.1087
 5969POPC   C1A72413   9.095  29.349   4.118  0.2601  0.2131 -0.0395
 5969POPC   D2A72414   9.101  29.832   4.238 -0.0237  0.1342 -0.2269
 5969POPC   C3A72415   9.492  29.806   4.473 -0.1377 -0.2280  0.0068
 5969POPC   C4A72416   9.687  29.810   4.841  0.3545  0.2777 -0.1545
 5969POPC   C1B72417   8.943  28.933   4.481 -0.1103 -0.3547 -0.2380
 5969POPC   C2B72418   8.960  28.878   4.920 -0.0653  0.0504 -0.2785
 5969POPC   C3B72419   9.026  29.039   5.369  0.3511 -0.1180  0.0044
 5969POPC   C4B72420   8.986  29.164   5.831 -0.0138  0.2533 -0.0874
 5970POPC   NC372421  10.051   5.586   3.642  0.0981  0.0186  0.1653
 5970POPC   PO472422  10.285   5.852   3.716 -0.0353  0.0129  0.0986
 5970POPC   GL172423  10.294   5.552   4.005  0.0472  0.3596  0.4184
 5970POPC   GL272424  10.407   5.800   4.233 -0.0239 -0.0973  0.1504
 5970POPC   C1A72425  10.310   5.247   4.359  0.0886 -0.1775  0.2074
 5970POPC   D2A72426  10.510   4.984   4.678 -0.3738  0.1050  0.1279
 5970POPC   C3A72427  10.587   4.692   5.022 -0.0105 -0.1549  0.2905
 5970POPC   C4A72428  10.770   4.560   5.381 -0.0432  0.2017  0.2837
 5970POPC   C1B72429  10.272   5.664   4.690 -0.1126 -0.0582 -0.1157
 5970POPC   C2B72430  10.088   5.707   5.141 -0.1408  0.0228 -0.1337
 5970POPC   C3B72431  10.263   5.922   5.498  0.0682  0.0559  0.2537
 5970POPC   C4B72432  10.423   5.710   5.894 -0.0213  0.0955 -0.1880
 5971POPC   NC372433  25.993  25.546   3.585 -0.0103  0.3586 -0.1194
 5971POPC   PO472434  26.309  25.324   3.465 -0.2564 -0.1497 -0.1134
 5971POPC   GL172435  26.034  25.126   3.582  0.2442  0.4858  0.0964
 5971POPC   GL272436  26.132  24.962   3.832  0.2618  0.1510  0.2415
 5971POPC   C1A72437  25.596  25.203   3.541  0.1327 -0.0148 -0.1031
 5971POPC   D2A72438  25.470  25.627   3.354 -0.0405  0.1060  0.0486
 5971POPC   C3A72439  25.571  25.979   3.607 -0.1418 -0.1403  0.2738
 5971POPC   C4A72440  25.898  25.872   3.947  0.1672  0.0901  0.0201
 5971POPC   C1B72441  25.694  24.874   3.893 -0.3942  0.1368  0.2014
 5971POPC   C2B72442  25.426  25.007   4.223 -0.4214 -0.2152  0.0483
 5971POPC   C3B72443  25.236  25.073   4.638 -0.2758 -0.1898 -0.1833
 5971POPC   C4B72444  24.849  25.289   4.716  0.1384 -0.0172 -0.2094
 5972POPC   NC372445  31.025  16.539   3.593  0.1414 -0.0164 -0.1967
 5972POPC   PO472446  30.857  16.153   3.587 -0.1448  0.0975 -0.0589
 5972POPC   GL172447  30.743  16.418   3.961  0.2356  0.0157  0.0360
 5972POPC   GL272448  30.425  16.346   3.847 -0.0474  0.1061 -0.1534
 5972POPC   C1A72449  30.934  16.644   4.323  0.0139  0.1483 -0.1878
 5972POPC   D2A72450  31.039  16.980   4.640 -0.1424 -0.1782  0.2677
 5972POPC   C3A72451  30.905  16.782   5.001  0.0569  0.2884  0.0026
 5972POPC   C4A72452  30.667  16.819   5.363  0.0982  0.5262  0.2429
 5972POPC   C1B72453  30.329  16.156   4.253 -0.1080 -0.3157 -0.1773
 5972POPC   C2B72454  30.227  16.085   4.682  0.2656 -0.0211 -0.0278
 5972POPC   C3B72455  30.249  15.954   5.123 -0.0543  0.1308  0.1817
 5972POPC   C4B72456  30.180  15.623   5.437 -0.1539 -0.2316  0.1378
 5973POPC   NC372457  30.894  28.590   3.894  0.0119  0.0013  0.0785
 5973POPC   PO472458  30.739  28.318   4.150  0.3988 -0.2227  0.2061
 5973POPC   GL172459  30.894  28.316   4.544 -0.0588 -0.4371  0.1004
 5973POPC   GL272460  30.755  28.023   4.602  0.3344 -0.0051 -0.1940
 5973POPC   C1A72461  30.913  28.570   4.943  0.1108 -0.0023  0.0425
 5973POPC   D2A72462  31.173  28.857   5.180 -0.0925  0.2104  0.1055
 5973POPC   C3A72463  31.283  28.891   5.632  0.0182  0.1168  0.2998
 5973POPC   C4A72464  31.122  29.053   6.027  0.0480 -0.2090 -0.0738
 5973POPC   C1B72465  30.620  28.064   5.052 -0.2610  0.0428 -0.0968
 5973POPC   C2B72466  30.873  28.158   5.441  0.0917 -0.1041  0.0712
 5973POPC   C3B72467  31.051  28.471   5.704 -0.1134 -0.0033 -0.0695
 5973POPC   C4B72468  31.201  28.554   6.127 -0.2984 -0.0999  0.1530
 5974POPC   NC372469   0.225   7.521   3.487 -0.0608  0.1397 -0.1551
 5974POPC   PO472470   0.398   7.884   3.425  0.2352  0.3534 -0.1062
 5974POPC   GL172471   0.391   7.933   3.831  0.2851  0.2517  0.1985
 5974POPC   GL272472   0.466   8.248   3.783 -0.4363 -0.1722  0.2674
 5974POPC   C1A72473   0.294   7.546   3.995  0.2685 -0.0039 -0.2196
 5974POPC   D2A72474   0.093   7.307   4.385 -0.5268  0.0657 -0.1626
 5974POPC   C3A72475   0.398   7.159   4.641  0.0647  0.0621  0.2581
 5974POPC   C4A72476   0.546   6.999   5.095 -0.0123  0.0311  0.1190
 5974POPC   C1B72477   0.183   8.293   4.104  0.0253  0.2076  0.1472
 5974POPC   C2B72478   0.159   8.340   4.609  0.1378 -0.0892  0.1990
 5974POPC   C3B72479   0.390   8.628   4.872 -0.3941 -0.3859 -0.1892
 5974POPC   C4B72480   0.691   8.947   5.093  0.1560  0.1783  0.1567
 5975POPC   NC372481  10.694  24.681   3.805  0.0967  0.2441 -0.0664
 5975POPC   PO472482  10.479  24.338   3.702  0.0084 -0.0484 -0.1712
 5975POPC   GL172483  10.366  24.326   4.053  0.0475 -0.0277 -0.1084
 5975POPC   GL272484  10.676  24.263   4.203  0.0936  0.0820  0.3299
 5975POPC   C1A72485  10.220  24.429   4.503  0.0788  0.3191  0.2340
 5975POPC   D2A72486  10.046  24.526   4.876  0.0518 -0.0527 -0.0798
 5975POPC   C3A72487  10.142  24.801   5.264 -0.1403 -0.2670  0.2427
 5975POPC   C4A72488   9.938  25.157   5.348  0.2414  0.1107 -0.1973
 5975POPC   C1B72489  10.666  24.358   4.690  0.0019 -0.2480 -0.1336
 5975POPC   C2B72490  10.858  24.245   5.081 -0.2492  0.1497  0.0608
 5975POPC   C3B72491  10.854  24.365   5.477 -0.2759  0.0805 -0.1005
 5975POPC   C4B72492  11.177  24.345   5.747  0.2155 -0.2468  0.2984
 5976POPC   NC372493   5.398   7.794   4.067 -0.1030  0.2207  0.0942
 5976POPC   PO472494   5.090   7.685   3.873  0.1548 -0.1927  0.0656
 5976POPC   GL172495   4.981   7.613   4.218  0.1722  0.1438  0.0681
 5976POPC   GL272496   5.087   7.380   4.266 -0.1865 -0.1018  0.3243
 5976POPC   C1A72497   4.766   7.491   4.579 -0.3094 -0.3809 -0.0689
 5976POPC   D2A72498   4.641   7.198   4.955  0.2572 -0.4046  0.1564
 5976POPC   C3A72499   4.573   6.796   5.105 -0.1146  0.2706  0.0786
 5976POPC   C4A72500   4.676   6.508   4.738  0.2782 -0.1578  0.0718
 5976POPC   C1B72501   5.207   7.285   4.688  0.1147 -0.0185  0.1207
 5976POPC   C2B72502   5.329   7.226   5.133  0.1066  0.3945  0.1449
 5976POPC   C3B72503   5.385   7.216   5.608 -0.0214  0.0810 -0.0617
 5976POPC   C4B72504   5.475   6.828   5.878 -0.0498  0.1159  0.2433
 5977POPC   NC372505  30.421  11.522   3.610  0.0725  0.0641  0.0601
 5977POPC   PO472506  30.249  11.739   3.882  0.2080  0.1110  0.0262
 5977POPC   GL172507  30.163  11.929   4.266  0.1243 -0.4056 -0.0046
 5977POPC   GL272508  30.291  11.665   4.403  0.0297 -0.0067  0.0986
 5977POPC   C1A72509  30.204  12.090   4.700  0.0865 -0.0904  0.1298
 5977POPC   D2A72510  30.124  12.259   5.158 -0.0702 -0.0082 -0.3530
 5977POPC   C3A72511  29.933  12.584   5.371 -0.2884 -0.1835 -0.3919
 5977POPC   C4A72512  30.248  12.839   5.575  0.7229 -0.2327  0.0675
 5977POPC   C1B72513  30.615  11.321   4.485  0.1473  0.0812  0.0381
 5977POPC   C2B72514  30.738  11.072   4.832  0.0142 -0.0052  0.2116
 5977POPC   C3B72515  30.879  10.885   5.279  0.1137 -0.1051  0.3110
 5977POPC   C4B72516  30.832  10.660   5.693  0.0978 -0.0309 -0.0225
 5978POPC   NC372517  18.061  30.940   3.581  0.1081 -0.1129 -0.1935
 5978POPC   PO472518  18.257  31.265   3.742  0.1708  0.2064  0.2270
 5978POPC   GL172519  18.201  31.377   4.088 -0.1476 -0.0845  0.1738
 5978POPC   GL272520  18.498  31.303   4.202  0.1832  0.1704 -0.1748
 5978POPC   C1A72521  18.021  31.441   4.515  0.1844  0.0796  0.1170
 5978POPC   D2A72522  17.973  31.559   4.979 -0.1375  0.0305 -0.2356
 5978POPC   C3A72523  17.972  31.967   5.129 -0.0409  0.3592  0.5143
 5978POPC   C4A72524  18.271  32.186   5.371 -0.2069  0.0114  0.1595
 5978POPC   C1B72525  18.645  31.428   4.585 -0.0092 -0.0415 -0.0671
 5978POPC   C2B72526  18.533  31.617   4.955 -0.2451 -0.1861  0.0517
 5978POPC   C3B72527  18.429  31.752   5.357 -0.2094 -0.2536  0.0348
 5978POPC   C4B72528  18.135  31.572   5.662  0.1271 -0.0154 -0.0626
 5979POPC   NC372529  12.016  22.576   3.765  0.0797 -0.0192 -0.2623
 5979POPC   PO472530  11.665  22.700   3.878 -0.1110  0.0689 -0.1314
 5979POPC   GL172531  11.733  22.777   4.168  0.3464 -0.0774 -0.1660
 5979POPC   GL272532  11.641  22.549   4.382 -0.1329  0.1445 -0.0465
 5979POPC   C1A72533  11.987  23.009   4.459  0.2691 -0.0134  0.0934
 5979POPC   D2A72534  12.199  23.351   4.784 -0.0664 -0.0472  0.2158
 5979POPC   C3A72535  12.359  23.121   5.138  0.0375  0.0726  0.5515
 5979POPC   C4A72536  12.652  22.978   5.454  0.1809  0.2591  0.2021
 5979POPC   C1B72537  11.621  22.437   4.851  0.1701 -0.1645 -0.1545
 5979POPC   C2B72538  11.591  22.670   5.247 -0.1082 -0.0964 -0.0508
 5979POPC   C3B72539  11.367  22.904   5.620 -0.1854  0.1254 -0.2715
 5979POPC   C4B72540  11.290  23.198   5.904  0.3445  0.0341  0.2818
 5980POPC   NC372541   9.181  18.686   3.608  0.0867 -0.6233 -0.3388
 5980POPC   PO472542   9.303  19.000   3.774  0.2773  0.0224 -0.1507
 5980POPC   GL172543   9.151  19.086   4.096  0.0009  0.0186  0.0669
 5980POPC   GL272544   8.977  18.743   4.110 -0.1168  0.2594 -0.0447
 5980POPC   C1A72545   8.789  19.240   4.246  0.2053 -0.1184 -0.2415
 5980POPC   D2A72546   8.424  19.287   4.504  0.2396  0.3641 -0.5328
 5980POPC   C3A72547   8.557  19.269   4.984 -0.1163  0.3744  0.2935
 5980POPC   C4A72548   8.757  19.410   5.417  0.4930 -0.0450  0.0670
 5980POPC   C1B72549   8.905  18.525   4.558 -0.0447  0.3787 -0.1415
 5980POPC   C2B72550   9.210  18.480   4.910 -0.6504  0.3670 -0.1810
 5980POPC   C3B72551   9.449  18.629   5.261  0.0883 -0.1470 -0.1841
 5980POPC   C4B72552   9.578  19.008   5.547  0.1242  0.2383 -0.2198
 5981POPC   NC372553   0.267  13.411   3.859 -0.1633 -0.3456 -0.0906
 5981POPC   PO472554   0.502  13.142   3.655  0.0908  0.0916  0.0455
 5981POPC   GL172555   0.631  13.225   4.018  0.2134 -0.1469 -0.0049
 5981POPC   GL272556   0.841  13.128   4.211  0.1345  0.0766  0.2582
 5981POPC   C1A72557   0.400  13.331   4.419 -0.3268  0.3532  0.2160
 5981POPC   D2A72558   0.337  13.294   4.871 -0.1788  0.1775  0.1446
 5981POPC   C3A72559   0.182  13.200   5.232 -0.0949 -0.2075 -0.2044
 5981POPC   C4A72560   0.106  13.103   5.711 -0.2509  0.2017 -0.0860
 5981POPC   C1B72561   0.981  13.222   4.623  0.1999 -0.1190  0.1682
 5981POPC   C2B72562   1.079  13.332   5.085 -0.2578  0.1411  0.1337
 5981POPC   C3B72563   1.031  13.599   5.487 -0.0874  0.0164  0.3808
 5981POPC   C4B72564   1.115  13.427   5.914  0.1027  0.4276  0.3186
 5982POPC   NC372565   7.899  28.884   3.601  0.3080  0.4629  0.1580
 5982POPC   PO472566   7.683  29.205   3.514 -0.0866 -0.2090 -0.4308
 5982POPC   GL172567   7.579  29.229   3.953  0.1097 -0.0074  0.1084
 5982POPC   GL272568   7.745  29.071   4.142 -0.1866 -0.2519  0.0610
 5982POPC   C1A72569   7.338  29.264   4.374 -0.0498 -0.1758 -0.1382
 5982POPC   D2A72570   7.298  29.407   4.786 -0.2083 -0.1992 -0.1993
 5982POPC   C3A72571   7.578  29.624   5.058  0.2251 -0.3824 -0.1990
 5982POPC   C4A72572   7.892  29.431   5.328  0.1346 -0.2280 -0.1760
 5982POPC   C1B72573   7.868  29.288   4.501 -0.1102  0.1445  0.0935
 5982POPC   C2B72574   7.752  29.176   4.921  0.0285  0.1543  0.1472
 5982POPC   C3B72575   7.852  28.788   5.178 -0.2521 -0.0453 -0.2954
 5982POPC   C4B72576   8.198  28.604   5.455  0.2219  0.0133  0.1804
 5983POPC   NC372577  18.266   1.805   3.851 -0.0978 -0.1213 -0.0027
 5983POPC   PO472578  18.419   1.447   3.845  0.0248 -0.0582  0.0353
 5983POPC   GL172579  18.708   1.501   4.138 -0.0527 -0.1812 -0.1821
 5983POPC   GL272580  18.671   1.784   4.192 -0.2080 -0.1131  0.0281
 5983POPC   C1A72581  18.467   1.399   4.551 -0.2231 -0.5421  0.3117
 5983POPC   D2A72582  18.504   1.321   5.020 -0.1364 -0.1454  0.2342
 5983POPC   C3A72583  18.102   1.178   5.237  0.0413 -0.1114  0.0647
 5983POPC   C4A72584  18.099   1.335   5.670  0.0951 -0.1197 -0.0620
 5983POPC   C1B72585  18.836   2.137   4.490 -0.0803  0.1587  0.0081
 5983POPC   C2B72586  18.875   2.569   4.459  0.2981  0.1182 -0.1673
 5983POPC   C3B72587  18.755   2.834   4.822  0.2018  0.0490 -0.0394
 5983POPC   C4B72588  18.930   2.979   5.237  0.2165  0.1952  0.2242
 5984POPC   NC372589  19.935  21.032   4.057  0.0684  0.1349 -0.0485
 5984POPC   PO472590  20.147  20.768   3.876 -0.0495  0.2467 -0.1779
 5984POPC   GL172591  19.970  20.564   4.181 -0.2469  0.0873 -0.0021
 5984POPC   GL272592  19.681  20.543   4.095  0.1966  0.0041 -0.0806
 5984POPC   C1A72593  20.015  20.473   4.651 -0.1641  0.3393 -0.2488
 5984POPC   D2A72594  19.779  20.686   4.966 -0.0558  0.1676  0.2532
 5984POPC   C3A72595  19.906  20.731   5.427 -0.0882  0.0782  0.0657
 5984POPC   C4A72596  19.753  20.679   5.861  0.0762 -0.1736 -0.1994
 5984POPC   C1B72597  19.676  20.255   4.453 -0.0260 -0.2027 -0.1914
 5984POPC   C2B72598  19.731  20.132   4.907 -0.2010  0.2980 -0.0189
 5984POPC   C3B72599  19.999  20.240   5.258 -0.1725  0.1002 -0.0968
 5984POPC   C4B72600  20.082  20.244   5.724 -0.1417  0.1493  0.1785
 5985POPC   NC372601  10.850  10.778   3.846  0.0187 -0.2126 -0.0608
 5985POPC   PO472602  11.171  10.983   3.942  0.3824 -0.0472 -0.2099
 5985POPC   GL172603  10.872  11.065   4.263 -0.1854 -0.0637  0.0106
 5985POPC   GL272604  10.637  11.032   4.251  0.1482 -0.0975 -0.0942
 5985POPC   C1A72605  10.998  11.171   4.696 -0.0369 -0.0876  0.1747
 5985POPC   D2A72606  11.021  11.104   5.145 -0.0720  0.0221 -0.0795
 5985POPC   C3A72607  10.920  11.042   5.572 -0.0469 -0.2281 -0.0143
 5985POPC   C4A72608  10.666  11.021   5.990  0.0010 -0.0398 -0.4230
 5985POPC   C1B72609  10.387  11.153   4.586  0.1081 -0.2390 -0.0045
 5985POPC   C2B72610  10.233  11.144   5.033  0.0328  0.0821 -0.2794
 5985POPC   C3B72611   9.991  11.269   5.372  0.1043 -0.0238 -0.1214
 5985POPC   C4B72612   9.695  11.078   5.673 -0.0487 -0.0488  0.1638
 5986POPC   NC372613  23.716  19.198   3.809 -0.0359  0.4116  0.1998
 5986POPC   PO472614  23.491  18.892   3.817  0.0009  0.1897  0.0722
 5986POPC   GL172615  23.408  18.883   4.211  0.0859  0.0209  0.1808
 5986POPC   GL272616  23.143  18.893   4.271 -0.0136  0.0869  0.0893
 5986POPC   C1A72617  23.415  18.813   4.697 -0.0400  0.3654 -0.0752
 5986POPC   D2A72618  23.395  18.493   5.054  0.3113 -0.1639 -0.0633
 5986POPC   C3A72619  23.318  18.626   5.424  0.0899 -0.0345  0.2346
 5986POPC   C4A72620  23.632  18.870   5.674  0.1034 -0.1738 -0.0392
 5986POPC   C1B72621  22.802  18.884   4.601 -0.0347 -0.3039  0.0334
 5986POPC   C2B72622  22.423  18.679   4.753  0.0646  0.3183  0.0907
 5986POPC   C3B72623  22.043  18.563   5.035  0.1446 -0.0680 -0.0884
 5986POPC   C4B72624  21.655  18.294   5.106 -0.0948 -0.0727 -0.1523
 5987POPC   NC372625   8.832   7.157   3.091  0.1138 -0.1994 -0.1444
 5987POPC   PO472626   8.796   7.106   3.470  0.0477 -0.2000 -0.1257
 5987POPC   GL172627   8.721   7.173   3.894 -0.0139 -0.1288 -0.4906
 5987POPC   GL272628   8.713   6.849   4.087  0.2354 -0.1819  0.0297
 5987POPC   C1A72629   8.741   7.582   4.159 -0.0848  0.4512  0.0880
 5987POPC   D2A72630   8.949   7.933   4.402 -0.0369  0.2468  0.3823
 5987POPC   C3A72631   9.122   7.891   4.806  0.0122  0.2924  0.0422
 5987POPC   C4A72632   9.278   8.081   5.187 -0.2570 -0.0338  0.0999
 5987POPC   C1B72633   8.946   7.177   4.368  0.3000 -0.0166  0.2365
 5987POPC   C2B72634   9.184   7.481   4.588 -0.1558 -0.0282 -0.1382
 5987POPC   C3B72635   9.374   7.512   4.991 -0.2093 -0.1274 -0.1501
 5987POPC   C4B72636   9.368   7.282   5.439 -0.2970 -0.2298 -0.0149
 5988POPC   NC372637  16.141  15.375   3.977  0.1300  0.2436  0.1194
 5988POPC   PO472638  16.192  15.193   3.615  0.2032  0.0529  0.2443
 5988POPC   GL172639  16.085  14.861   3.876 -0.2294  0.1455 -0.3695
 5988POPC   GL272640  16.038  14.639   3.862 -0.3246 -0.0838  0.0189
 5988POPC   C1A72641  15.720  14.941   4.157  0.1067 -0.0302  0.1154
 5988POPC   D2A72642  15.452  14.962   4.550  0.2303  0.1649 -0.0875
 5988POPC   C3A72643  15.406  15.255   4.903  0.0225 -0.0755  0.2618
 5988POPC   C4A72644  15.311  15.643   5.160  0.3160 -0.0045 -0.3597
 5988POPC   C1B72645  16.064  14.628   4.298  0.0676  0.0062  0.1692
 5988POPC   C2B72646  15.941  14.608   4.746  0.1319  0.2513  0.0846
 5988POPC   C3B72647  15.661  14.796   5.069  0.3379 -0.1393  0.2841
 5988POPC   C4B72648  15.537  15.106   5.412  0.3673  0.0403  0.1351
 5989POPC   NC372649   4.159  20.321   3.740  0.2512 -0.1621  0.2875
 5989POPC   PO472650   4.510  20.223   3.702 -0.0393  0.2502  0.2490
 5989POPC   GL172651   4.355  19.989   4.060 -0.2640 -0.0476 -0.1350
 5989POPC   GL272652   4.362  20.137   4.206  0.1141  0.0852 -0.0475
 5989POPC   C1A72653   4.261  19.634   4.376 -0.1426 -0.2503  0.0466
 5989POPC   D2A72654   3.977  19.512   4.722 -0.1542  0.0989 -0.0400
 5989POPC   C3A72655   4.279  19.456   5.035  0.1691 -0.0830 -0.2619
 5989POPC   C4A72656   4.655  19.660   5.236  0.1028  0.0828 -0.0791
 5989POPC   C1B72657   4.585  19.959   4.578 -0.0913 -0.2170  0.0841
 5989POPC   C2B72658   4.758  19.547   4.659  0.3473 -0.2920  0.1908
 5989POPC   C3B72659   4.957  19.143   4.427 -0.1323 -0.1427  0.1020
 5989POPC   C4B72660   4.977  18.829   4.098 -0.1318  0.1243  0.0343
 5990POPC   NC372661  22.490  18.861   3.074  0.0933  0.1120 -0.1437
 5990POPC   PO472662  22.689  18.530   3.214  0.0398 -0.0279  0.0158
 5990POPC   GL172663  22.301  18.570   3.422 -0.3425  0.1568 -0.0055
 5990POPC   GL272664  22.238  18.807   3.554  0.1558 -0.0108  0.0487
 5990POPC   C1A72665  21.928  18.532   3.148 -0.2904  0.0274  0.0299
 5990POPC   D2A72666  21.493  18.622   3.196  0.1178 -0.3578 -0.1550
 5990POPC   C3A72667  21.201  18.265   3.373 -0.0298 -0.1565  0.1045
 5990POPC   C4A72668  20.799  18.239   3.597  0.2372  0.4952  0.1031
 5990POPC   C1B72669  22.037  18.870   3.946  0.2010 -0.1205 -0.0896
 5990POPC   C2B72670  21.836  18.859   4.349 -0.1933  0.0969 -0.0064
 5990POPC   C3B72671  21.644  18.891   4.700 -0.0681  0.0587 -0.1806
 5990POPC   C4B72672  21.608  18.776   5.160 -0.2652  0.2393  0.0675
 5991POPC   NC372673  18.289   9.840   4.234 -0.1404 -0.0912 -0.0886
 5991POPC   PO472674  18.291  10.037   3.881 -0.0887 -0.0564  0.1977
 5991POPC   GL172675  18.444  10.241   4.134  0.0884 -0.1467 -0.2329
 5991POPC   GL272676  18.377  10.520   4.197 -0.2143 -0.0933  0.0678
 5991POPC   C1A72677  18.688  10.119   4.551  0.2763 -0.2976 -0.0477
 5991POPC   D2A72678  18.698   9.915   4.974  0.0805 -0.0906 -0.0034
 5991POPC   C3A72679  18.775   9.792   5.371  0.0463  0.2342 -0.0674
 5991POPC   C4A72680  18.877   9.538   5.753  0.1104  0.1380 -0.0431
 5991POPC   C1B72681  18.211  10.258   4.505  0.1867 -0.3487  0.0437
 5991POPC   C2B72682  18.090   9.995   4.900  0.0234 -0.0698 -0.0880
 5991POPC   C3B72683  17.981  10.087   5.377  0.2296  0.1215 -0.0243
 5991POPC   C4B72684  18.024  10.004   5.832 -0.1920 -0.2184  0.1216
 5992POPC   NC372685  21.728   6.948   3.563 -0.1772 -0.1447  0.0136
 5992POPC   PO472686  21.442   7.154   3.632 -0.1439 -0.0917 -0.4015
 5992POPC   GL172687  21.391   7.213   3.974 -0.0155 -0.1524 -0.3657
 5992POPC   GL272688  21.386   7.520   4.073 -0.0662 -0.2646  0.1507
 5992POPC   C1A72689  21.133   7.294   4.381  0.1118  0.1666 -0.1341
 5992POPC   D2A72690  21.103   7.100   4.777 -0.1227  0.0622  0.0187
 5992POPC   C3A72691  21.021   7.240   5.225  0.2230  0.2743  0.0802
 5992POPC   C4A72692  21.075   7.015   5.608  0.2525 -0.0725 -0.2026
 5992POPC   C1B72693  21.495   7.714   4.460 -0.2945 -0.0445 -0.1457
 5992POPC   C2B72694  21.801   7.751   4.800 -0.0067  0.1208  0.1375
 5992POPC   C3B72695  21.677   7.888   5.262 -0.1458  0.0625 -0.0919
 5992POPC   C4B72696  21.768   7.768   5.715  0.1559  0.0056 -0.3172
 5993POPC   NC372697  19.776  19.315   3.168 -0.2256  0.0261  0.0050
 5993POPC   PO472698  19.903  19.649   3.022 -0.0622  0.0276 -0.0864
 5993POPC   GL172699  20.221  19.518   3.290 -0.2384 -0.2102  0.2908
 5993POPC   GL272700  20.335  19.721   3.548  0.0914 -0.2705 -0.2710
 5993POPC   C1A72701  20.199  19.144   3.543 -0.3098  0.1499 -0.2084
 5993POPC   D2A72702  20.366  19.019   3.983 -0.1260 -0.0578 -0.3324
 5993POPC   C3A72703  20.136  19.213   4.335 -0.1388  0.2423 -0.0976
 5993POPC   C4A72704  20.087  19.051   4.814 -0.0507 -0.0534  0.1321
 5993POPC   C1B72705  20.555  19.431   3.713 -0.0401  0.1757 -0.1146
 5993POPC   C2B72706  20.790  19.054   3.749  0.1542 -0.0880  0.3042
 5993POPC   C3B72707  20.833  18.715   4.081 -0.2711  0.3492  0.0263
 5993POPC   C4B72708  20.633  18.358   4.273 -0.0722 -0.3486  0.0972
 5994POPC   NC372709  21.004   3.850   3.826  0.1831 -0.2382  0.1791
 5994POPC   PO472710  21.302   4.145   3.838  0.1638  0.2789 -0.1603
 5994POPC   GL172711  21.133   4.145   4.202  0.1446  0.1283  0.4523
 5994POPC   GL272712  21.346   4.210   4.430  0.0290 -0.2147 -0.0577
 5994POPC   C1A72713  20.895   4.421   4.552 -0.0595  0.1124  0.3136
 5994POPC   D2A72714  20.706   4.693   4.896 -0.0271  0.0267  0.0427
 5994POPC   C3A72715  20.952   4.854   5.225 -0.2112  0.4350 -0.3286
 5994POPC   C4A72716  21.017   5.289   5.139  0.1330 -0.0464  0.1398
 5994POPC   C1B72717  21.430   4.130   4.896 -0.1380  0.1061  0.0091
 5994POPC   C2B72718  21.501   4.358   5.267 -0.2061  0.1827  0.1862
 5994POPC   C3B72719  21.708   4.743   5.407  0.0756  0.1269 -0.1176
 5994POPC   C4B72720  21.867   5.099   5.204 -0.1182 -0.1029  0.2531
 5995POPC   NC372721  14.629  24.465   3.341 -0.0510 -0.0098  0.1209
 5995POPC   PO472722  14.425  24.508   3.651 -0.4057  0.2334 -0.1379
 5995POPC   GL172723  14.432  24.320   3.976 -0.1658 -0.2725 -0.0281
 5995POPC   GL272724  14.367  24.047   3.917  0.1653  0.0317 -0.0606
 5995POPC   C1A72725  14.561  24.152   4.339  0.0338  0.3108  0.2526
 5995POPC   D2A72726  14.543  24.133   4.809  0.0457 -0.1472  0.1895
 5995POPC   C3A72727  14.384  24.494   5.044 -0.2745  0.2136 -0.4097
 5995POPC   C4A72728  14.264  24.953   5.063  0.0775  0.4730  0.0619
 5995POPC   C1B72729  14.202  23.855   4.280 -0.1626 -0.2044  0.3587
 5995POPC   C2B72730  14.405  23.684   4.670  0.2870  0.3267  0.2221
 5995POPC   C3B72731  14.042  23.534   4.965 -0.1681  0.2880 -0.1212
 5995POPC   C4B72732  13.794  23.228   5.191 -0.1013 -0.0354  0.2907
 5996POPC   NC372733   4.779  16.904   3.669  0.2142  0.0733  0.2146
 5996POPC   PO472734   4.982  16.541   3.678 -0.2308 -0.0588 -0.0261
 5996POPC   GL172735   5.037  16.598   4.095 -0.1446  0.0447 -0.1594
 5996POPC   GL272736   4.989  16.902   4.135 -0.0730 -0.2635  0.1099
 5996POPC   C1A72737   5.279  16.547   4.511 -0.0522  0.1403  0.1750
 5996POPC   D2A72738   5.301  16.397   4.959  0.2753  0.0400 -0.0322
 5996POPC   C3A72739   5.274  16.406   5.388  0.2187  0.0616 -0.0104
 5996POPC   C4A72740   5.439  16.655   5.755  0.0131  0.0249  0.2171
 5996POPC   C1B72741   4.797  16.801   4.544 -0.0859  0.3818 -0.4778
 5996POPC   C2B72742   4.800  16.457   4.841  0.1446  0.1683 -0.1984
 5996POPC   C3B72743   4.735  16.277   5.241 -0.0146 -0.2765 -0.1277
 5996POPC   C4B72744   4.659  16.055   5.620 -0.1401  0.1300 -0.2165
 5997POPC   NC372745   4.772   5.546   3.602  0.0233  0.1743 -0.0100
 5997POPC   PO472746   4.393   5.418   3.589  0.2192 -0.0143 -0.1173
 5997POPC   GL172747   4.327   5.359   3.994 -0.0665  0.0845  0.0855
 5997POPC   GL272748   4.503   5.620   4.040  0.2336  0.1298 -0.2363
 5997POPC   C1A72749   4.107   5.424   4.378  0.2555 -0.0429  0.1268
 5997POPC   D2A72750   4.214   5.483   4.805  0.0608 -0.0765  0.3153
 5997POPC   C3A72751   4.042   5.265   5.120 -0.3917 -0.3025  0.3437
 5997POPC   C4A72752   3.734   5.046   5.313  0.0835 -0.3578  0.0223
 5997POPC   C1B72753   4.623   5.518   4.542 -0.0032 -0.1804  0.1506
 5997POPC   C2B72754   4.677   5.535   5.008 -0.4201 -0.0943  0.0304
 5997POPC   C3B72755   4.466   5.611   5.439  0.2364  0.0846 -0.1229
 5997POPC   C4B72756   4.587   5.609   5.844  0.1405  0.1225 -0.0972
 5998POPC   NC372757  25.557  31.163   3.984  0.1403 -0.1147 -0.1033
 5998POPC   PO472758  25.582  31.366   3.623  0.0437  0.0729 -0.0824
 5998POPC   GL172759  25.943  31.453   3.839 -0.1079 -0.3066  0.0991
 5998POPC   GL272760  25.749  31.636   3.989 -0.0057  0.2942 -0.0445
 5998POPC   C1A72761  26.320  31.474   4.057 -0.0530 -0.1127  0.1216
 5998POPC   D2A72762  26.704  31.559   4.266 -0.0531 -0.1034 -0.1559
 5998POPC   C3A72763  26.735  31.549   4.765  0.0704  0.0025 -0.0628
 5998POPC   C4A72764  26.869  31.343   5.180  0.0795  0.0771  0.3981
 5998POPC   C1B72765  25.925  31.394   4.342  0.2591  0.2849 -0.2929
 5998POPC   C2B72766  26.134  31.407   4.724  0.0933 -0.1931  0.1073
 5998POPC   C3B72767  26.388  31.577   5.085  0.0697 -0.0464  0.1207
 5998POPC   C4B72768  26.689  31.914   5.294  0.2817 -0.0886 -0.2547
 5999POPC   NC372769   9.624  12.252   3.446 -0.0010  0.0437 -0.0235
 5999POPC   PO472770   9.478  12.327   3.815  0.1310 -0.0724  0.1257
 5999POPC   GL172771   9.532  12.322   4.200  0.1494 -0.0863  0.1468
 5999POPC   GL272772   9.651  12.070   4.248  0.1308 -0.0450  0.1204
 5999POPC   C1A72773   9.915  12.452   4.466 -0.0558 -0.1101 -0.3219
 5999POPC   D2A72774  10.088  12.180   4.876  0.3439  0.2260  0.0287
 5999POPC   C3A72775   9.747  12.257   5.187  0.1883 -0.1629  0.5317
 5999POPC   C4A72776   9.423  12.206   5.574  0.1020  0.2329 -0.1327
 5999POPC   C1B72777   9.582  12.096   4.679 -0.3001 -0.0609 -0.2730
 5999POPC   C2B72778   9.336  11.918   5.019  0.0701 -0.3967 -0.0208
 5999POPC   C3B72779   9.164  11.506   5.008 -0.0159 -0.1176 -0.1754
 5999POPC   C4B72780   8.945  11.210   5.294  0.2951  0.0651 -0.2268
 6000POPC   NC372781   2.287  22.868   3.533 -0.0431  0.1309  0.0092
 6000POPC   PO472782   1.931  23.070   3.464  0.1686  0.4056 -0.1056
 6000POPC   GL172783   1.734  23.078   3.854  0.3904  0.0841 -0.2135
 6000POPC   GL272784   1.966  23.226   4.035 -0.0092 -0.0200 -0.1233
 6000POPC   C1A72785   1.519  23.398   4.078 -0.2663 -0.2073  0.3087
 6000POPC   D2A72786   1.374  23.357   4.483 -0.0158  0.0128 -0.1092
 6000POPC   C3A72787   1.301  23.602   4.870 -0.1369 -0.1599  0.1295
 6000POPC   C4A72788   1.464  23.882   5.161 -0.2687  0.0649 -0.1217
 6000POPC   C1B72789   1.866  23.391   4.484  0.2775  0.0952 -0.2681
 6000POPC   C2B72790   1.654  23.254   4.902 -0.2673  0.2724  0.2377
 6000POPC   C3B72791   1.415  23.343   5.265 -0.0947 -0.0956  0.2417
 6000POPC   C4B72792   1.153  23.271   5.636 -0.0751 -0.0657  0.1523
 6001POPC   NC372793  26.038  16.717   3.966  0.2395 -0.1277 -0.3824
 6001POPC   PO472794  25.641  16.707   4.013  0.0194  0.1645 -0.0408
 6001POPC   GL172795  25.714  16.608   4.404 -0.2411 -0.0288  0.3125
 6001POPC   GL272796  25.491  16.471   4.583  0.5225  0.0809  0.2510
 6001POPC   C1A72797  25.752  16.845   4.800 -0.1882 -0.0393 -0.0811
 6001POPC   D2A72798  25.763  16.789   5.245 -0.2632 -0.4052  0.0258
 6001POPC   C3A72799  26.008  16.890   5.640 -0.1086 -0.3358  0.2249
 6001POPC   C4A72800  26.440  16.894   5.719 -0.4049  0.1442  0.1663
 6001POPC   C1B72801  25.499  16.450   5.068  0.0004  0.1065 -0.0929
 6001POPC   C2B72802  25.807  16.310   5.355  0.0534  0.0613  0.0178
 6001POPC   C3B72803  26.221  16.029   5.330  0.1829  0.4551 -0.3477
 6001POPC   C4B72804  26.522  15.943   5.629  0.1200 -0.1102 -0.0824
 6002POPC   NC372805  16.689  16.398   3.809  0.4463  0.1481 -0.0698
 6002POPC   PO472806  16.904  16.738   3.766 -0.1657  0.2354  0.0987
 6002POPC   GL172807  16.907  16.665   4.134 -0.2431 -0.1963  0.0423
 6002POPC   GL272808  17.076  16.494   4.202 -0.0312 -0.1653  0.1879
 6002POPC   C1A72809  16.568  16.590   4.429 -0.3958  0.1742 -0.1134
 6002POPC   D2A72810  16.348  16.681   4.850  0.1721 -0.0460 -0.3495
 6002POPC   C3A72811  16.569  16.725   5.265  0.1427 -0.0867 -0.1643
 6002POPC   C4A72812  16.472  16.910   5.678  0.2908  0.1012  0.0826
 6002POPC   C1B72813  17.023  16.758   4.566  0.1289  0.0795  0.2695
 6002POPC   C2B72814  17.005  16.823   5.029  0.1169 -0.1412 -0.0297
 6002POPC   C3B72815  17.052  16.922   5.474 -0.0725 -0.2383  0.1269
 6002POPC   C4B72816  17.211  17.130   5.810  0.2517  0.0905  0.1330
 6003POPC   NC372817   5.142  21.833   3.355 -0.0010  0.2219 -0.1268
 6003POPC   PO472818   4.900  21.544   3.482 -0.0522  0.1470  0.2219
 6003POPC   GL172819   5.003  21.468   3.859 -0.4763  0.0185  0.1267
 6003POPC   GL272820   4.753  21.323   4.016  0.0121 -0.1355  0.3235
 6003POPC   C1A72821   5.278  21.294   4.185  0.0488 -0.0921  0.2527
 6003POPC   D2A72822   5.366  20.836   4.322 -0.1195 -0.0609  0.1074
 6003POPC   C3A72823   5.334  20.750   4.710  0.1640  0.0635  0.2411
 6003POPC   C4A72824   5.614  20.660   5.124  0.0092  0.1149 -0.0473
 6003POPC   C1B72825   4.936  21.145   4.462  0.0386 -0.1945  0.1062
 6003POPC   C2B72826   5.003  21.182   4.878 -0.1027  0.0294  0.1897
 6003POPC   C3B72827   4.854  21.202   5.350  0.1518 -0.0012  0.2932
 6003POPC   C4B72828   5.018  21.129   5.759  0.0779  0.2515 -0.2403
 6004POPC   NC372829  25.995  20.613   4.332 -0.1454  0.2500  0.1316
 6004POPC   PO472830  26.060  20.272   4.086 -0.0246 -0.3300  0.3446
 6004POPC   GL172831  26.060  20.148   4.426 -0.2056 -0.0275 -0.0249
 6004POPC   GL272832  25.731  20.187   4.560 -0.0033  0.1999 -0.5545
 6004POPC   C1A72833  26.202  20.261   4.868  0.2095 -0.0025  0.0196
 6004POPC   D2A72834  26.007  20.070   5.253  0.1979 -0.1572  0.1206
 6004POPC   C3A72835  26.297  19.801   5.440  0.1132  0.2235 -0.3103
 6004POPC   C4A72836  26.464  19.702   5.858 -0.2920 -0.0083 -0.1692
 6004POPC   C1B72837  25.621  19.897   4.905 -0.1794 -0.3162 -0.2852
 6004POPC   C2B72838  25.716  19.677   5.360  0.1151 -0.1079  0.0468
 6004POPC   C3B72839  25.844  19.589   5.789  0.1127  0.1968 -0.1934
 6004POPC   C4B72840  26.103  19.612   6.176  0.2178  0.0487 -0.0445
 6005POPC   NC372841  22.844   8.881   3.369  0.1612 -0.0060  0.0114
 6005POPC   PO472842  23.109   9.147   3.403 -0.0238  0.1029 -0.3006
 6005POPC   GL172843  23.131   9.145   3.811  0.3166 -0.3610 -0.1557
 6005POPC   GL272844  22.839   9.019   3.828 -0.0349 -0.0488 -0.0950
 6005POPC   C1A72845  23.374   8.950   4.135 -0.3086 -0.0804  0.0249
 6005POPC   D2A72846  23.375   8.549   4.343 -0.0163  0.0321  0.0476
 6005POPC   C3A72847  23.297   8.535   4.790  0.1677  0.3586  0.1569
 6005POPC   C4A72848  23.392   8.482   5.216  0.2723 -0.0848  0.4547
 6005POPC   C1B72849  22.804   9.352   4.192 -0.3493  0.0425  0.3355
 6005POPC   C2B72850  22.776   9.413   4.678 -0.1098  0.0305  0.0868
 6005POPC   C3B72851  22.951   9.525   5.046 -0.1707  0.1087  0.0655
 6005POPC   C4B72852  23.190   9.669   5.405  0.1764 -0.0336 -0.1103
 6006POPC   NC372853  10.052  18.630   3.859 -0.2818 -0.2150  0.2461
 6006POPC   PO472854   9.785  18.948   3.771 -0.2989 -0.4894 -0.1501
 6006POPC   GL172855   9.719  18.986   4.187  0.0648 -0.0552 -0.0752
 6006POPC   GL272856   9.885  19.228   4.184 -0.0319  0.1505  0.0131
 6006POPC   C1A72857   9.409  18.776   4.464 -0.0532 -0.4828 -0.1283
 6006POPC   D2A72858   9.083  18.984   4.716  0.0014 -0.0321  0.0816
 6006POPC   C3A72859   8.766  18.708   5.010 -0.0268  0.0796 -0.2083
 6006POPC   C4A72860   8.517  18.603   5.341 -0.1126  0.4191 -0.3809
 6006POPC   C1B72861  10.260  18.966   4.209 -0.0401 -0.1428 -0.1740
 6006POPC   C2B72862  10.636  19.114   4.207 -0.2078 -0.0333 -0.0079
 6006POPC   C3B72863  10.891  19.200   4.606  0.0046 -0.0020 -0.1392
 6006POPC   C4B72864  10.978  19.214   5.089 -0.1807 -0.2146  0.0340
 6007POPC   NC372865  23.247   8.708   3.711 -0.3294  0.1144 -0.1929
 6007POPC   PO472866  23.553   8.507   3.702  0.0815 -0.3174 -0.1112
 6007POPC   GL172867  23.767   8.398   4.017  0.1530 -0.0627  0.3936
 6007POPC   GL272868  23.588   8.130   4.102  0.2504 -0.1965  0.3227
 6007POPC   C1A72869  23.857   8.691   4.344 -0.0373 -0.0688  0.2681
 6007POPC   D2A72870  23.568   8.948   4.649 -0.0354 -0.1059 -0.2307
 6007POPC   C3A72871  23.635   8.971   5.100 -0.1240  0.0811  0.2813
 6007POPC   C4A72872  23.485   8.937   5.529  0.0255  0.4441 -0.1298
 6007POPC   C1B72873  23.367   8.111   4.480 -0.0479  0.1751  0.1120
 6007POPC   C2B72874  23.341   8.018   4.967 -0.3018 -0.0075  0.2067
 6007POPC   C3B72875  23.239   7.952   5.495  0.2330 -0.0099  0.1403
 6007POPC   C4B72876  23.391   8.166   5.822  0.2167  0.2843 -0.1573
 6008POPC   NC372877  22.711  28.511   3.980 -0.3475  0.2607  0.3194
 6008POPC   PO472878  22.847  28.820   3.709  0.1384 -0.1105 -0.1129
 6008POPC   GL172879  22.778  28.988   4.052 -0.0934 -0.1087 -0.1124
 6008POPC   GL272880  22.481  29.020   4.087  0.0687  0.0825  0.2548
 6008POPC   C1A72881  22.982  29.041   4.468 -0.3624 -0.0648  0.2211
 6008POPC   D2A72882  22.782  29.017   4.884 -0.0154 -0.0458 -0.0969
 6008POPC   C3A72883  22.920  28.828   5.287 -0.4423  0.3335 -0.2809
 6008POPC   C4A72884  23.122  28.796   5.700  0.0124  0.4215  0.1259
 6008POPC   C1B72885  22.437  28.803   4.504  0.1026 -0.0234  0.3449
 6008POPC   C2B72886  22.583  28.559   4.876  0.0420  0.1514 -0.3606
 6008POPC   C3B72887  22.595  28.376   5.289  0.3176 -0.2356 -0.3552
 6008POPC   C4B72888  22.716  28.014   5.575 -0.1061  0.0867 -0.0789
 6009POPC   NC372889  10.890  13.542   3.592  0.0525 -0.1882 -0.0157
 6009POPC   PO472890  11.179  13.707   3.831  0.2689 -0.2343  0.3266
 6009POPC   GL172891  11.170  13.750   4.162  0.4074 -0.0018  0.2232
 6009POPC   GL272892  11.062  13.630   4.376 -0.2208  0.3212 -0.0861
 6009POPC   C1A72893  11.522  13.820   4.509  0.0201 -0.3518 -0.4449
 6009POPC   D2A72894  11.906  13.901   4.799  0.1127  0.2335  0.0420
 6009POPC   C3A72895  12.099  13.816   5.245 -0.0453  0.2680  0.1183
 6009POPC   C4A72896  12.320  13.949   5.605  0.1301 -0.0250  0.1332
 6009POPC   C1B72897  10.905  13.582   4.794 -0.1464  0.1011  0.0567
 6009POPC   C2B72898  10.714  13.623   5.210 -0.2364 -0.1985  0.3847
 6009POPC   C3B72899  10.808  13.808   5.565 -0.0196 -0.1641 -0.1666
 6009POPC   C4B72900  10.931  13.786   6.028  0.3308 -0.1103 -0.4133
 6010POPC   NC372901  12.174  21.590   3.105  0.3310  0.1780  0.1860
 6010POPC   PO472902  12.238  21.370   3.428  0.1864 -0.2122  0.0472
 6010POPC   GL172903  12.264  21.355   3.777 -0.2751 -0.3488 -0.0148
 6010POPC   GL272904  12.515  21.553   3.838 -0.2239 -0.3628  0.0185
 6010POPC   C1A72905  12.146  21.207   4.232  0.1508 -0.1233 -0.0578
 6010POPC   D2A72906  12.229  21.376   4.616  0.0272 -0.1171  0.0776
 6010POPC   C3A72907  11.886  21.140   4.807 -0.0957  0.1759 -0.0705
 6010POPC   C4A72908  11.545  20.923   5.035  0.0591  0.1696 -0.0664
 6010POPC   C1B72909  12.630  21.344   4.213 -0.1834 -0.1531  0.3366
 6010POPC   C2B72910  12.744  21.337   4.652 -0.1956 -0.3000  0.2396
 6010POPC   C3B72911  12.941  21.190   5.003 -0.1411 -0.1284 -0.1513
 6010POPC   C4B72912  12.812  21.341   5.429  0.2264  0.3013  0.2759
 6011POPC   NC372913  13.573  24.656   3.757 -0.2183 -0.2654 -0.1548
 6011POPC   PO472914  13.290  24.902   3.791  0.2814 -0.2082  0.2062
 6011POPC   GL172915  13.409  24.881   4.180  0.0480  0.1002 -0.0592
 6011POPC   GL272916  13.378  25.107   4.321  0.2426 -0.0636 -0.2982
 6011POPC   C1A72917  13.233  24.591   4.437  0.3913  0.1582 -0.1411
 6011POPC   D2A72918  12.899  24.549   4.758  0.1914 -0.2554 -0.0124
 6011POPC   C3A72919  12.751  24.664   5.172  0.2811  0.3032 -0.0575
 6011POPC   C4A72920  12.710  24.814   5.604 -0.1068  0.1703  0.2727
 6011POPC   C1B72921  13.301  25.003   4.795  0.2563  0.1687  0.0827
 6011POPC   C2B72922  13.226  24.837   5.186  0.2460 -0.0908 -0.3119
 6011POPC   C3B72923  13.127  24.582   5.525  0.0837  0.0315  0.0016
 6011POPC   C4B72924  13.049  24.136   5.678 -0.1077 -0.0182  0.0276
 6012POPC   NC372925  29.813  29.959   3.562 -0.0845 -0.0455  0.2462
 6012POPC   PO472926  29.927  29.607   3.746 -0.1289  0.0369 -0.1073
 6012POPC   GL172927  30.064  29.845   4.068  0.0855 -0.2988  0.0677
 6012POPC   GL272928  29.852  29.952   4.231  0.0298 -0.0614  0.0284
 6012POPC   C1A72929  30.326  29.815   4.508 -0.1070  0.1501 -0.1546
 6012POPC   D2A72930  30.505  29.912   4.944  0.0088  0.2184 -0.2821
 6012POPC   C3A72931  30.761  30.168   5.211  0.2038 -0.3483  0.1641
 6012POPC   C4A72932  31.027  30.362   5.466  0.0509  0.0875 -0.0750
 6012POPC   C1B72933  29.821  29.802   4.611 -0.0336  0.1692 -0.5190
 6012POPC   C2B72934  29.937  29.714   5.058 -0.2080  0.2078 -0.2406
 6012POPC   C3B72935  29.834  29.622   5.475  0.2071  0.1916 -0.2288
 6012POPC   C4B72936  29.969  29.680   5.933 -0.0612  0.0052  0.3496
 6013POPC   NC372937  19.984   6.983   3.838  0.0834  0.0806  0.2628
 6013POPC   PO472938  20.250   6.725   3.758  0.2825  0.0411  0.0047
 6013POPC   GL172939  20.253   6.723   4.187 -0.1091  0.1273 -0.0608
 6013POPC   GL272940  19.945   6.666   4.217  0.1611  0.1010  0.1533
 6013POPC   C1A72941  20.320   6.537   4.618 -0.0912 -0.0164 -0.1083
 6013POPC   D2A72942  20.459   6.521   5.080  0.0180 -0.0026  0.2995
 6013POPC   C3A72943  20.716   6.125   5.185  0.0357 -0.1169 -0.1579
 6013POPC   C4A72944  20.697   5.909   5.599  0.1971 -0.0017 -0.2661
 6013POPC   C1B72945  20.109   6.992   4.462 -0.1181 -0.1985 -0.0708
 6013POPC   C2B72946  20.130   7.354   4.770 -0.2579  0.1813  0.1585
 6013POPC   C3B72947  20.250   7.340   5.170  0.0346 -0.2724 -0.1454
 6013POPC   C4B72948  20.337   7.528   5.605  0.2334  0.1289  0.2600
 6014POPC   NC372949   2.229   4.816   4.178  0.2859 -0.1489 -0.0701
 6014POPC   PO472950   1.936   4.639   3.970  0.0238  0.2865 -0.1409
 6014POPC   GL172951   1.879   4.595   4.409  0.0523 -0.0044 -0.2941
 6014POPC   GL272952   1.861   4.341   4.547 -0.2059  0.0823  0.3376
 6014POPC   C1A72953   1.447   4.690   4.551  0.1023 -0.1033  0.0758
 6014POPC   D2A72954   1.355   4.845   4.995 -0.2774  0.3094 -0.1345
 6014POPC   C3A72955   1.248   4.814   5.463  0.0183 -0.2827 -0.2656
 6014POPC   C4A72956   1.114   4.696   5.876 -0.0972 -0.0643  0.3124
 6014POPC   C1B72957   1.603   4.379   4.905  0.0015 -0.1129 -0.1750
 6014POPC   C2B72958   1.372   4.299   5.310  0.1199 -0.1224  0.0745
 6014POPC   C3B72959   1.147   4.208   5.709  0.1825 -0.0482 -0.0523
 6014POPC   C4B72960   0.831   4.368   6.038 -0.0149 -0.0188  0.1120
 6015POPC   NC372961   3.297   8.227   3.116  0.2856  0.2554  0.0605
 6015POPC   PO472962   2.892   8.097   3.029  0.0249  0.0159 -0.0515
 6015POPC   GL172963   2.843   8.360   3.376 -0.1641  0.0129  0.2827
 6015POPC   GL272964   3.073   8.231   3.559 -0.3602 -0.3396 -0.0611
 6015POPC   C1A72965   2.587   8.391   3.790  0.1297 -0.1433  0.3857
 6015POPC   D2A72966   2.321   8.558   4.065 -0.1269  0.1549  0.2749
 6015POPC   C3A72967   1.864   8.592   4.261  0.2420 -0.4131  0.2351
 6015POPC   C4A72968   1.597   8.473   4.613 -0.1090  0.3481 -0.0357
 6015POPC   C1B72969   2.949   7.998   3.940 -0.0033  0.1892 -0.1285
 6015POPC   C2B72970   3.049   8.033   4.416 -0.1757  0.2789  0.0665
 6015POPC   C3B72971   3.251   8.157   4.783  0.0820  0.0831 -0.0597
 6015POPC   C4B72972   3.074   8.222   5.205 -0.0993 -0.0959 -0.2468
 6016POPC   NC372973  25.057  20.472   4.195 -0.0941 -0.1248 -0.0020
 6016POPC   PO472974  25.097  20.844   4.114  0.0157 -0.0628 -0.1002
 6016POPC   GL172975  25.215  21.173   4.439  0.4084 -0.2072 -0.1890
 6016POPC   GL272976  25.108  21.361   4.320  0.0168 -0.1172 -0.1269
 6016POPC   C1A72977  25.280  21.378   4.862  0.3234 -0.3056 -0.0929
 6016POPC   D2A72978  25.047  21.514   5.274  0.1625 -0.3373  0.0890
 6016POPC   C3A72979  24.931  21.069   5.415 -0.2457  0.1316 -0.1293
 6016POPC   C4A72980  24.604  20.699   5.545 -0.0565 -0.1168 -0.0968
 6016POPC   C1B72981  24.815  21.216   4.644 -0.0702 -0.0159  0.0684
 6016POPC   C2B72982  24.622  21.430   5.015  0.1927  0.1981  0.0366
 6016POPC   C3B72983  24.557  21.507   5.504  0.0741 -0.1628  0.1282
 6016POPC   C4B72984  24.548  21.615   5.966  0.0056  0.0379 -0.1376
 6017POPC   NC372985   3.105   4.965   4.151 -0.2096 -0.1676 -0.3000
 6017POPC   PO472986   3.224   5.296   3.986 -0.0223 -0.0975  0.2741
 6017POPC   GL172987   3.313   5.521   4.420  0.0970 -0.1786  0.2398
 6017POPC   GL272988   3.210   5.785   4.374 -0.1829  0.0432 -0.1468
 6017POPC   C1A72989   3.644   5.498   4.709 -0.1802  0.2393  0.0568
 6017POPC   D2A72990   3.604   5.665   5.182 -0.0487 -0.0211  0.0280
 6017POPC   C3A72991   3.881   5.495   5.538 -0.0104  0.0926  0.1111
 6017POPC   C4A72992   4.194   5.229   5.714  0.2724  0.2430 -0.2681
 6017POPC   C1B72993   3.315   5.870   4.830 -0.0802 -0.2923 -0.0632
 6017POPC   C2B72994   3.317   6.035   5.249 -0.3440 -0.0794 -0.0093
 6017POPC   C3B72995   3.612   5.952   5.583  0.0098  0.0272 -0.0030
 6017POPC   C4B72996   3.732   6.237   5.941  0.2626 -0.1053  0.3551
 6018POPC   NC372997  20.736   1.216   2.833 -0.2647  0.0400 -0.1374
 6018POPC   PO472998  20.817   0.868   2.995 -0.0285 -0.2575  0.2843
 6018POPC   GL172999  20.765   0.795   3.428 -0.2924 -0.0763  0.4630
 6018POPC   GL273000  20.471   0.733   3.532 -0.0821 -0.1065 -0.0942
 6018POPC   C1A73001  20.921   0.521   3.761  0.0606  0.1639 -0.3525
 6018POPC   D2A73002  20.821   0.349   4.181  0.0327 -0.0393 -0.0800
 6018POPC   C3A73003  20.463   0.098   4.311 -0.1639 -0.0424 -0.0126
 6018POPC   C4A73004  20.152   0.066   4.660 -0.1538  0.2944 -0.3476
 6018POPC   C1B73005  20.477   0.252   3.584 -0.0689 -0.2225 -0.1193
 6018POPC   C2B73006  20.534  -0.073   3.862 -0.0052  0.1677  0.1271
 6018POPC   C3B73007  20.814  -0.264   4.239 -0.0721  0.0240 -0.0500
 6018POPC   C4B73008  21.186  -0.519   4.330 -0.1708 -0.1954 -0.0612
 6019POPC   NC373009  26.994   4.268   3.382  0.2759 -0.2537  0.1395
 6019POPC   PO473010  27.302   4.238   3.634 -0.0088  0.0575 -0.1293
 6019POPC   GL173011  27.541   4.327   3.908 -0.1394 -0.0088 -0.1325
 6019POPC   GL273012  27.437   4.510   4.150 -0.0446  0.1257  0.0776
 6019POPC   C1A73013  27.982   4.256   4.028  0.2514 -0.0803  0.0174
 6019POPC   D2A73014  28.418   4.342   4.203  0.0039  0.1302  0.0052
 6019POPC   C3A73015  28.571   4.394   4.649 -0.0880 -0.0174 -0.1409
 6019POPC   C4A73016  28.652   4.419   5.063  0.0037  0.1377 -0.0726
 6019POPC   C1B73017  27.851   4.532   4.399  0.0821  0.5689 -0.0241
 6019POPC   C2B73018  28.113   4.563   4.812  0.0105  0.0391 -0.4077
 6019POPC   C3B73019  28.079   4.825   5.150  0.0616  0.1286 -0.1090
 6019POPC   C4B73020  28.198   5.085   5.539  0.1213 -0.0693  0.2299
 6020POPC   NC373021   2.265  23.894   3.162 -0.0626 -0.0197  0.0871
 6020POPC   PO473022   2.525  23.837   3.512  0.1739 -0.0936  0.0485
 6020POPC   GL173023   2.386  23.593   3.819  0.0349 -0.2846  0.2195
 6020POPC   GL273024   2.311  23.311   3.716  0.0164  0.1532 -0.0645
 6020POPC   C1A73025   2.378  23.426   4.262 -0.1684  0.2865  0.0286
 6020POPC   D2A73026   2.241  23.117   4.611  0.0017  0.3744  0.2247
 6020POPC   C3A73027   2.263  23.315   5.059 -0.0461 -0.1676  0.0823
 6020POPC   C4A73028   2.429  23.723   5.226  0.0711  0.0943 -0.1245
 6020POPC   C1B73029   2.446  23.004   4.055  0.0885 -0.1968  0.1188
 6020POPC   C2B73030   2.450  22.584   4.272  0.2809  0.0878  0.1361
 6020POPC   C3B73031   2.354  22.414   4.747 -0.2599  0.0096  0.0410
 6020POPC   C4B73032   2.424  22.133   5.111 -0.3287 -0.0008 -0.0286
 6021POPC   NC373033   0.237   6.681   3.335  0.1355  0.2058  0.2677
 6021POPC   PO473034   0.306   7.027   3.239  0.0958  0.0967 -0.1781
 6021POPC   GL173035   0.281   7.077   3.636 -0.1674 -0.1317 -0.1386
 6021POPC   GL273036   0.009   7.115   3.826 -0.0715  0.0648 -0.0808
 6021POPC   C1A73037   0.556   7.075   4.027 -0.3763  0.0781  0.0069
 6021POPC   D2A73038   1.003   7.119   4.116 -0.1728  0.2313 -0.0140
 6021POPC   C3A73039   1.127   7.423   4.359  0.1554  0.2414 -0.0803
 6021POPC   C4A73040   0.981   7.820   4.456 -0.2019  0.0222 -0.1028
 6021POPC   C1B73041  -0.150   6.910   4.167  0.1664 -0.2956 -0.1219
 6021POPC   C2B73042  -0.093   6.909   4.566 -0.2390  0.0861 -0.0195
 6021POPC   C3B73043   0.044   6.987   4.995  0.0669 -0.3530 -0.2497
 6021POPC   C4B73044  -0.290   6.758   5.238 -0.1036 -0.0122 -0.0105
 6022POPC   NC373045  28.609   2.022   4.370 -0.2015 -0.3762 -0.2106
 6022POPC   PO473046  28.787   1.861   4.037  0.0183  0.3326 -0.0309
 6022POPC   GL173047  29.039   1.780   4.311  0.0748 -0.4457 -0.5633
 6022POPC   GL273048  28.979   1.583   4.411  0.1429  0.3872 -0.0190
 6022POPC   C1A73049  29.256   1.982   4.659  0.4484  0.0003 -0.0427
 6022POPC   D2A73050  29.170   2.249   5.055 -0.2428  0.0804 -0.2443
 6022POPC   C3A73051  29.415   2.196   5.439 -0.0281  0.0943  0.2408
 6022POPC   C4A73052  29.680   2.106   5.766 -0.0314 -0.0019  0.0277
 6022POPC   C1B73053  29.075   1.306   4.769  0.0577 -0.3798  0.1270
 6022POPC   C2B73054  29.194   1.318   5.208  0.1617 -0.0899 -0.4872
 6022POPC   C3B73055  29.207   1.639   5.519  0.2661  0.2599  0.0516
 6022POPC   C4B73056  29.227   1.838   5.930 -0.2999  0.0957 -0.1557
 6023POPC   NC373057   0.910  18.718   3.823 -0.0030  0.1558 -0.1585
 6023POPC   PO473058   1.205  18.698   3.591  0.0630 -0.0567 -0.0323
 6023POPC   GL173059   1.390  18.947   3.798 -0.1974  0.1513 -0.3153
 6023POPC   GL273060   1.366  19.213   3.780 -0.2025 -0.0570  0.0712
 6023POPC   C1A73061   1.509  19.080   4.222 -0.3876  0.0106  0.0148
 6023POPC   D2A73062   1.841  19.137   4.503  0.0952  0.1264 -0.1785
 6023POPC   C3A73063   1.716  19.186   4.896 -0.2182  0.0745 -0.2574
 6023POPC   C4A73064   1.568  18.841   5.227 -0.2834 -0.0847 -0.0314
 6023POPC   C1B73065   1.217  19.420   4.122  0.0407 -0.2923 -0.0389
 6023POPC   C2B73066   0.886  19.588   4.413  0.0007  0.1068 -0.1589
 6023POPC   C3B73067   0.711  19.662   4.840 -0.1244 -0.1606 -0.1228
 6023POPC   C4B73068   0.527  19.814   5.224 -0.2397 -0.0990 -0.1103
 6024POPC   NC373069  27.094   6.789   3.883 -0.1395 -0.0616 -0.2367
 6024POPC   PO473070  27.265   7.151   3.804 -0.2301 -0.1129  0.2114
 6024POPC   GL173071  27.257   7.223   4.093  0.0328 -0.1565 -0.2297
 6024POPC   GL273072  27.124   7.080   4.333 -0.2662 -0.1409  0.0148
 6024POPC   C1A73073  27.367   7.530   4.405  0.1568  0.0759 -0.0670
 6024POPC   D2A73074  27.534   7.880   4.705  0.0076  0.1149 -0.1838
 6024POPC   C3A73075  27.473   7.860   5.172  0.2270  0.1425  0.0196
 6024POPC   C4A73076  27.383   8.132   5.557  0.2617 -0.0918 -0.0936
 6024POPC   C1B73077  27.116   7.115   4.784 -0.0009  0.0487  0.0598
 6024POPC   C2B73078  27.034   6.991   5.219 -0.0540  0.0494 -0.2971
 6024POPC   C3B73079  26.789   6.744   5.463 -0.0058  0.1851 -0.0991
 6024POPC   C4B73080  26.427   6.478   5.633 -0.2010 -0.0910 -0.1632
 6025POPC   NC373081  26.976  16.876   3.794  0.1737  0.3889 -0.0151
 6025POPC   PO473082  26.594  16.766   3.895  0.0147 -0.2496 -0.2928
 6025POPC   GL173083  26.578  16.506   4.229 -0.2507  0.1847  0.0012
 6025POPC   GL273084  26.831  16.338   4.335  0.1899 -0.2677  0.1592
 6025POPC   C1A73085  26.736  16.699   4.644  0.0239 -0.0901  0.1017
 6025POPC   D2A73086  26.967  16.607   4.983 -0.2841 -0.3000 -0.2761
 6025POPC   C3A73087  26.796  16.722   5.365 -0.2455  0.1602 -0.0708
 6025POPC   C4A73088  26.731  16.458   5.753  0.0959  0.2881  0.2077
 6025POPC   C1B73089  26.804  16.073   4.725 -0.1249 -0.0771  0.1483
 6025POPC   C2B73090  26.575  15.816   5.007 -0.2448 -0.0257  0.1398
 6025POPC   C3B73091  26.611  15.422   5.252  0.2025 -0.1304 -0.0924
 6025POPC   C4B73092  26.511  15.237   5.648  0.0235  0.2606 -0.1399
 6026POPC   NC373093  18.231  24.812   3.735 -0.3870 -0.1040 -0.0711
 6026POPC   PO473094  18.462  24.533   3.892 -0.2564 -0.0962 -0.2796
 6026POPC   GL173095  18.201  24.470   4.203  0.4012  0.2787  0.4373
 6026POPC   GL273096  17.927  24.653   4.271  0.0474  0.0987 -0.0577
 6026POPC   C1A73097  18.333  24.606   4.638 -0.0802 -0.1042  0.2310
 6026POPC   D2A73098  18.267  24.692   5.111 -0.1294 -0.4429  0.1375
 6026POPC   C3A73099  18.169  24.425   5.490  0.1968 -0.0126  0.3172
 6026POPC   C4A73100  18.055  24.293   5.890  0.0766  0.0364 -0.0103
 6026POPC   C1B73101  17.871  24.615   4.709 -0.0329 -0.2734 -0.2238
 6026POPC   C2B73102  17.705  24.540   5.146  0.1571 -0.0308 -0.0534
 6026POPC   C3B73103  17.630  24.111   5.401 -0.0407 -0.1567  0.0365
 6026POPC   C4B73104  17.528  24.014   5.808  0.1556 -0.2201 -0.5182
 6027POPC   NC373105  27.994  15.070   3.842  0.1576 -0.1101 -0.1940
 6027POPC   PO473106  27.896  15.422   3.726  0.1227  0.2234  0.0069
 6027POPC   GL173107  27.547  15.386   3.811 -0.0288 -0.0032 -0.2938
 6027POPC   GL273108  27.478  15.599   3.983 -0.0023 -0.3879  0.0572
 6027POPC   C1A73109  27.403  15.042   4.151  0.1958 -0.1978 -0.2017
 6027POPC   D2A73110  27.275  14.666   4.389  0.1190  0.0382  0.0871
 6027POPC   C3A73111  26.991  14.612   4.774  0.1227  0.1426 -0.0451
 6027POPC   C4A73112  27.068  14.638   5.224  0.0561 -0.3270 -0.1402
 6027POPC   C1B73113  27.217  15.465   4.318  0.0520 -0.0235 -0.0725
 6027POPC   C2B73114  27.201  15.149   4.672 -0.0719 -0.1616  0.2594
 6027POPC   C3B73115  27.422  14.966   5.009  0.1660 -0.1763 -0.0004
 6027POPC   C4B73116  27.868  14.861   5.125 -0.0935 -0.1530 -0.1155
 6028POPC   NC373117  16.713  26.591   3.378 -0.0224 -0.1137  0.2550
 6028POPC   PO473118  16.390  26.459   3.286  0.0798  0.5735  0.1580
 6028POPC   GL173119  16.301  26.707   3.646 -0.2657 -0.2829  0.0448
 6028POPC   GL273120  16.153  26.944   3.557  0.0468 -0.0564  0.1182
 6028POPC   C1A73121  16.233  26.621   4.101 -0.3949 -0.2428 -0.1097
 6028POPC   D2A73122  15.837  26.578   4.281 -0.1343 -0.3100 -0.2032
 6028POPC   C3A73123  15.998  26.307   4.641 -0.2750 -0.0684  0.0245
 6028POPC   C4A73124  16.087  26.307   5.126  0.1381  0.1693  0.1720
 6028POPC   C1B73125  16.078  27.081   3.985 -0.0176  0.2218  0.3413
 6028POPC   C2B73126  16.110  27.024   4.439  0.0877  0.0583 -0.0389
 6028POPC   C3B73127  16.062  26.795   4.822 -0.1146  0.0074  0.0151
 6028POPC   C4B73128  16.138  26.796   5.238  0.3109  0.3727 -0.2624
 6029POPC   NC373129  23.789   6.881   3.918  0.1184  0.0943 -0.3280
 6029POPC   PO473130  23.978   7.212   3.817 -0.1329  0.1747  0.0449
 6029POPC   GL173131  24.227   7.220   4.203  0.1422 -0.1067  0.0097
 6029POPC   GL273132  24.377   7.473   4.305 -0.0968  0.0063 -0.1260
 6029POPC   C1A73133  24.101   7.187   4.628 -0.0349 -0.0018  0.0058
 6029POPC   D2A73134  24.288   7.317   5.159  0.2054  0.0727  0.0966
 6029POPC   C3A73135  24.065   7.124   5.590  0.1934 -0.1343  0.1441
 6029POPC   C4A73136  24.266   7.098   6.049 -0.0876  0.1750  0.0017
 6029POPC   C1B73137  24.242   7.658   4.699  0.1668  0.0163  0.0545
 6029POPC   C2B73138  24.083   8.019   4.974  0.0119  0.0213 -0.4007
 6029POPC   C3B73139  23.967   8.106   5.387  0.0834 -0.0764 -0.2992
 6029POPC   C4B73140  23.852   8.074   5.847 -0.0345  0.5443 -0.1737
 6030POPC   NC373141   0.123   3.871   3.859 -0.1966 -0.0979  0.0632
 6030POPC   PO473142   0.471   3.716   3.831  0.0133  0.0669  0.1736
 6030POPC   GL173143   0.451   4.016   4.165  0.0074  0.3287 -0.0077
 6030POPC   GL273144   0.643   4.296   4.291  0.1295  0.1678 -0.4397
 6030POPC   C1A73145   0.681   3.839   4.532  0.0493 -0.1932 -0.1479
 6030POPC   D2A73146   0.628   3.457   4.740 -0.1203  0.0333 -0.2068
 6030POPC   C3A73147   0.524   3.419   5.204 -0.1089 -0.0074 -0.1307
 6030POPC   C4A73148   0.457   3.625   5.596  0.3050  0.1040  0.0617
 6030POPC   C1B73149   0.554   4.352   4.731 -0.2344 -0.1680 -0.1212
 6030POPC   C2B73150   0.362   4.496   5.189  0.1771 -0.0167  0.0752
 6030POPC   C3B73151   0.053   4.408   5.498 -0.0452 -0.0198 -0.0356
 6030POPC   C4B73152  -0.189   4.117   5.770  0.2504  0.0524  0.0427
 6031POPC   NC373153  16.333  20.350   3.535 -0.1880  0.0992 -0.1196
 6031POPC   PO473154  16.737  20.351   3.676  0.0858  0.2185  0.0713
 6031POPC   GL173155  16.500  20.399   4.017 -0.2098  0.2052  0.0251
 6031POPC   GL273156  16.370  20.163   4.030  0.2510 -0.1252 -0.0538
 6031POPC   C1A73157  16.526  20.634   4.438  0.2008 -0.1382 -0.0329
 6031POPC   D2A73158  16.209  20.863   4.623  0.3174  0.2427 -0.2911
 6031POPC   C3A73159  16.026  21.152   4.918  0.2772  0.0553  0.1394
 6031POPC   C4A73160  15.841  21.335   5.329 -0.1999 -0.1789 -0.0319
 6031POPC   C1B73161  16.185  20.208   4.482 -0.3076  0.0124 -0.0450
 6031POPC   C2B73162  16.311  20.192   4.975 -0.4734  0.1030  0.0528
 6031POPC   C3B73163  16.348  20.204   5.456 -0.1461  0.0008 -0.1455
 6031POPC   C4B73164  16.066  20.261   5.837  0.2133 -0.2726  0.0379
 6032POPC   NC373165  30.321  20.726   3.791 -0.1052 -0.2022  0.0364
 6032POPC   PO473166  30.519  21.066   3.765  0.4244 -0.1900 -0.3555
 6032POPC   GL173167  30.532  21.037   4.192  0.2882 -0.1972 -0.1491
 6032POPC   GL273168  30.438  20.804   4.397 -0.0435 -0.1709 -0.0321
 6032POPC   C1A73169  30.810  21.105   4.572  0.0776  0.0793  0.0189
 6032POPC   D2A73170  31.017  20.909   4.900 -0.0519  0.1573 -0.3556
 6032POPC   C3A73171  30.890  20.903   5.360 -0.2880 -0.3485  0.2074
 6032POPC   C4A73172  30.639  21.107   5.697 -0.0014 -0.2973 -0.0803
 6032POPC   C1B73173  30.434  20.788   4.872  0.1753 -0.0167 -0.0148
 6032POPC   C2B73174  30.453  21.132   5.163 -0.2540 -0.1487 -0.2097
 6032POPC   C3B73175  30.349  21.553   5.402 -0.0957  0.0906  0.0007
 6032POPC   C4B73176  30.232  21.986   5.283 -0.0030  0.2906  0.1023
 6033POPC   NC373177  16.656  15.545   3.675 -0.2004  0.0193 -0.0061
 6033POPC   PO473178  16.503  15.807   3.921  0.1686  0.1376 -0.0603
 6033POPC   GL173179  16.212  15.738   4.181  0.0953 -0.0351  0.1507
 6033POPC   GL273180  16.233  15.870   4.340  0.1270 -0.2050 -0.4455
 6033POPC   C1A73181  16.122  15.445   4.533 -0.0289 -0.2108 -0.3144
 6033POPC   D2A73182  15.949  15.074   4.547  0.0464 -0.3641 -0.0493
 6033POPC   C3A73183  15.967  15.151   4.985  0.0702 -0.1689  0.2469
 6033POPC   C4A73184  16.074  15.048   5.429  0.1306  0.3539  0.0300
 6033POPC   C1B73185  16.551  15.859   4.727 -0.1209 -0.3139  0.0481
 6033POPC   C2B73186  16.667  15.811   5.196 -0.0012  0.0495  0.0362
 6033POPC   C3B73187  16.588  15.798   5.635  0.2010  0.3323 -0.0759
 6033POPC   C4B73188  16.657  15.767   6.081  0.3307  0.1322  0.1008
 6034POPC   NC373189   9.585   0.955   3.789 -0.3556 -0.1505 -0.0689
 6034POPC   PO473190   9.448   1.177   4.035 -0.0435  0.2046 -0.3008
 6034POPC   GL173191   9.130   1.259   4.156 -0.2038  0.0188 -0.1399
 6034POPC   GL273192   8.895   1.066   4.250  0.1046  0.0808  0.1819
 6034POPC   C1A73193   8.965   1.335   4.636  0.0269  0.1733 -0.1570
 6034POPC   D2A73194   8.600   1.340   4.910 -0.0137 -0.3626 -0.1063
 6034POPC   C3A73195   8.524   1.589   5.293  0.2159 -0.1407 -0.2122
 6034POPC   C4A73196   8.275   1.669   5.680 -0.1420  0.1362 -0.0644
 6034POPC   C1B73197   8.560   0.857   4.522  0.0869 -0.1698  0.0881
 6034POPC   C2B73198   8.343   0.900   4.930  0.2324 -0.1302  0.0156
 6034POPC   C3B73199   8.164   1.191   5.201  0.0400  0.4151  0.1107
 6034POPC   C4B73200   8.082   1.109   5.662  0.1486  0.1279 -0.0030
 6035POPC   NC373201  27.747   9.881   3.862  0.1053  0.0244  0.1231
 6035POPC   PO473202  27.760  10.176   3.601 -0.2613 -0.1066  0.0241
 6035POPC   GL173203  27.654  10.492   3.852  0.1276  0.0864  0.3868
 6035POPC   GL273204  27.342  10.379   3.925 -0.0099  0.0422  0.0532
 6035POPC   C1A73205  27.655  10.768   4.183 -0.1088  0.0356  0.1229
 6035POPC   D2A73206  27.376  10.723   4.550 -0.0262 -0.1028 -0.1832
 6035POPC   C3A73207  27.355  10.940   4.936  0.2721 -0.1571 -0.2304
 6035POPC   C4A73208  27.419  11.218   5.338  0.0401 -0.1746  0.2016
 6035POPC   C1B73209  27.481  10.259   4.353  0.2719 -0.1736  0.0502
 6035POPC   C2B73210  27.576  10.400   4.834 -0.0812  0.0108  0.0868
 6035POPC   C3B73211  27.577  10.578   5.258 -0.1867  0.4271 -0.1255
 6035POPC   C4B73212  27.477  10.726   5.648  0.1073  0.1273 -0.0035
 6036POPC   NC373213  20.072  24.609   4.003  0.2568 -0.0220  0.1951
 6036POPC   PO473214  19.792  24.894   3.961 -0.0233 -0.0051 -0.2050
 6036POPC   GL173215  19.623  24.740   4.286 -0.0654 -0.1606 -0.0464
 6036POPC   GL273216  19.446  24.450   4.308  0.0214 -0.2438 -0.1944
 6036POPC   C1A73217  19.527  24.855   4.708  0.1836  0.0769 -0.0542
 6036POPC   D2A73218  19.247  24.821   5.109  0.0366 -0.0559 -0.1561
 6036POPC   C3A73219  19.233  24.713   5.563 -0.1237  0.0631  0.2224
 6036POPC   C4A73220  19.116  24.751   6.035 -0.1019 -0.2194 -0.1582
 6036POPC   C1B73221  19.336  24.369   4.772  0.0525  0.0678  0.1348
 6036POPC   C2B73222  19.425  24.333   5.265  0.2086 -0.2489  0.1630
 6036POPC   C3B73223  19.345  24.327   5.756  0.2424  0.3892 -0.1314
 6036POPC   C4B73224  19.413  24.266   6.248  0.5032 -0.1809 -0.1283
 6037POPC   NC373225  23.234  14.540   3.962 -0.3436  0.2673  0.1340
 6037POPC   PO473226  23.139  14.892   3.812  0.1299  0.1098 -0.5093
 6037POPC   GL173227  22.959  14.833   4.191  0.7013  0.1520  0.2651
 6037POPC   GL273228  22.851  15.125   4.311  0.4202  0.0125  0.1853
 6037POPC   C1A73229  22.473  14.782   4.312  0.1697 -0.2745  0.1139
 6037POPC   D2A73230  22.059  14.905   4.524  0.0354 -0.0470  0.1804
 6037POPC   C3A73231  22.033  15.362   4.646 -0.0185  0.0330 -0.0383
 6037POPC   C4A73232  21.832  15.728   4.875 -0.0210 -0.0963  0.0443
 6037POPC   C1B73233  22.992  15.227   4.741  0.0593 -0.2960  0.0702
 6037POPC   C2B73234  22.931  15.579   5.041 -0.2039 -0.0578 -0.1020
 6037POPC   C3B73235  22.654  15.694   5.378  0.1454  0.0507 -0.1353
 6037POPC   C4B73236  22.366  15.662   5.721  0.3311  0.0524  0.0947
 6038POPC   NC373237  24.459  31.260   4.163  0.0319 -0.2499 -0.0502
 6038POPC   PO473238  24.276  31.378   3.806  0.1283 -0.0698  0.1463
 6038POPC   GL173239  24.202  31.667   4.146 -0.0351 -0.2121 -0.0226
 6038POPC   GL273240  24.452  31.818   4.129  0.0366  0.0847 -0.0780
 6038POPC   C1A73241  23.788  31.774   4.370 -0.3196 -0.1519 -0.0653
 6038POPC   D2A73242  23.655  31.904   4.813 -0.0690 -0.0452 -0.1113
 6038POPC   C3A73243  23.507  31.547   5.070 -0.1676 -0.0285  0.1284
 6038POPC   C4A73244  23.362  31.316   5.449 -0.2620 -0.0227  0.2043
 6038POPC   C1B73245  24.550  32.116   4.490 -0.1983  0.0228 -0.0654
 6038POPC   C2B73246  24.883  32.184   4.799  0.1018 -0.1084 -0.4082
 6038POPC   C3B73247  25.207  32.144   5.206 -0.2342 -0.1244 -0.3495
 6038POPC   C4B73248  25.292  32.484   5.494  0.0262  0.2027  0.0117
 6039POPC   NC373249   8.207  14.071   3.693  0.0947  0.0362 -0.2163
 6039POPC   PO473250   7.821  13.928   3.757 -0.1052 -0.2199  0.0363
 6039POPC   GL173251   7.903  13.710   4.056 -0.0752 -0.3513  0.2269
 6039POPC   GL273252   7.672  13.674   4.256 -0.0594 -0.1686 -0.1257
 6039POPC   C1A73253   8.081  13.613   4.504 -0.0310  0.1141 -0.0697
 6039POPC   D2A73254   8.120  13.286   4.847 -0.1519  0.1693 -0.2170
 6039POPC   C3A73255   8.363  13.145   5.237  0.3010 -0.1575 -0.1993
 6039POPC   C4A73256   8.238  12.912   5.648 -0.0064  0.1065 -0.0459
 6039POPC   C1B73257   7.647  13.554   4.697 -0.2540 -0.1562 -0.1387
 6039POPC   C2B73258   7.567  13.743   5.081  0.1167 -0.2644  0.0672
 6039POPC   C3B73259   7.413  13.582   5.501  0.2478  0.0113 -0.0437
 6039POPC   C4B73260   7.523  13.127   5.569  0.0699  0.0183 -0.3853
 6040POPC   NC373261  13.675   4.454   3.508 -0.1657 -0.2699 -0.0477
 6040POPC   PO473262  13.781   4.779   3.620  0.2717  0.0751 -0.2143
 6040POPC   GL173263  13.830   4.471   3.970  0.1205  0.0254  0.1196
 6040POPC   GL273264  14.007   4.300   3.864 -0.0893 -0.1651 -0.0232
 6040POPC   C1A73265  13.963   4.599   4.377  0.2239 -0.1416 -0.1089
 6040POPC   D2A73266  14.252   4.623   4.718 -0.0665 -0.2239  0.2646
 6040POPC   C3A73267  14.204   4.786   5.113  0.3479  0.1129 -0.1707
 6040POPC   C4A73268  14.078   5.148   5.399 -0.0173 -0.1270 -0.1612
 6040POPC   C1B73269  14.293   4.103   4.178 -0.0842  0.6163  0.1780
 6040POPC   C2B73270  14.553   4.222   4.525  0.0041  0.1248  0.0973
 6040POPC   C3B73271  14.414   4.133   4.965  0.2006  0.0895  0.1396
 6040POPC   C4B73272  14.173   4.238   5.328 -0.0559  0.0797  0.0105
 6041POPC   NC373273  22.271  16.333   2.685 -0.2737  0.0200  0.3712
 6041POPC   PO473274  22.297  16.280   3.108 -0.1395  0.2387  0.0654
 6041POPC   GL173275  21.923  16.301   3.308 -0.0448  0.1770  0.5294
 6041POPC   GL273276  21.651  16.460   3.246  0.3729  0.0161 -0.1239
 6041POPC   C1A73277  21.599  16.084   3.605  0.2445  0.2231 -0.2178
 6041POPC   D2A73278  21.254  15.817   3.809 -0.0184 -0.0865 -0.2260
 6041POPC   C3A73279  20.821  16.058   3.848 -0.1534  0.1149  0.0353
 6041POPC   C4A73280  20.617  16.457   3.914 -0.0651  0.1241  0.2248
 6041POPC   C1B73281  21.471  16.796   3.505 -0.1170 -0.1616 -0.1909
 6041POPC   C2B73282  21.434  17.028   3.897  0.2590 -0.1032  0.1129
 6041POPC   C3B73283  21.720  17.166   4.247  0.0186  0.1829  0.0590
 6041POPC   C4B73284  21.667  17.450   4.641  0.0166  0.1348 -0.4745
 6042POPC   NC373285  17.532  30.981   3.576 -0.2471  0.0551 -0.2907
 6042POPC   PO473286  17.722  31.309   3.577  0.0747 -0.0584  0.3028
 6042POPC   GL173287  17.831  31.322   3.910  0.3792 -0.0005  0.0245
 6042POPC   GL273288  17.825  31.004   4.007  0.0907  0.1831 -0.0224
 6042POPC   C1A73289  17.577  31.361   4.318 -0.0384  0.0196 -0.1752
 6042POPC   D2A73290  17.454  31.373   4.736  0.0059 -0.1468 -0.1540
 6042POPC   C3A73291  17.409  31.492   5.161 -0.1885  0.0111  0.1087
 6042POPC   C4A73292  17.111  31.479   5.507  0.1268 -0.0452  0.1500
 6042POPC   C1B73293  17.876  30.950   4.473  0.0797 -0.0216  0.1202
 6042POPC   C2B73294  17.779  31.065   4.906  0.0103 -0.0585  0.2074
 6042POPC   C3B73295  17.673  30.768   5.251 -0.1639  0.0399 -0.0016
 6042POPC   C4B73296  17.878  30.594   5.590  0.4553  0.0368  0.2843
 6043POPC   NC373297  28.297   0.280   3.583 -0.0563  0.3131  0.3873
 6043POPC   PO473298  28.015   0.504   3.700 -0.2361  0.0984 -0.1720
 6043POPC   GL173299  27.839   0.557   3.989 -0.0530  0.0091  0.1315
 6043POPC   GL273300  27.533   0.657   3.883  0.1220 -0.2704  0.1064
 6043POPC   C1A73301  27.766   0.659   4.429  0.2916 -0.0613  0.1416
 6043POPC   D2A73302  27.522   0.969   4.625 -0.0194 -0.1271 -0.1937
 6043POPC   C3A73303  27.409   1.003   5.063  0.1946  0.0759  0.0874
 6043POPC   C4A73304  27.176   0.824   5.382  0.1263 -0.0592 -0.1281
 6043POPC   C1B73305  27.785   1.007   4.060 -0.0337  0.1037  0.1696
 6043POPC   C2B73306  28.030   1.101   4.464  0.1672 -0.1283 -0.2493
 6043POPC   C3B73307  28.384   1.132   4.818  0.3840  0.0831  0.0691
 6043POPC   C4B73308  28.448   1.005   5.274 -0.0626  0.0019 -0.4696
 6044POPC   NC373309  13.224  12.716   3.566 -0.2819  0.1795  0.0979
 6044POPC   PO473310  12.876  12.910   3.650 -0.1466 -0.2197  0.1336
 6044POPC   GL173311  13.219  13.061   3.934  0.4149  0.0384  0.2805
 6044POPC   GL273312  13.238  12.776   4.049  0.0821  0.0711  0.2922
 6044POPC   C1A73313  13.113  13.234   4.382 -0.0424  0.2440  0.1476
 6044POPC   D2A73314  13.066  13.146   4.821  0.1120 -0.0249 -0.0918
 6044POPC   C3A73315  12.830  12.806   5.005 -0.1377  0.2542  0.2178
 6044POPC   C4A73316  12.887  12.449   5.229 -0.4303  0.0217 -0.0225
 6044POPC   C1B73317  13.368  12.843   4.467  0.1348  0.0584  0.0845
 6044POPC   C2B73318  13.394  12.721   4.880  0.2550 -0.0819 -0.1303
 6044POPC   C3B73319  13.298  12.901   5.342  0.2312 -0.0533  0.0892
 6044POPC   C4B73320  13.285  13.030   5.813  0.0028 -0.3833  0.0689
 6045POPC   NC373321  22.809  14.246   3.211 -0.0770  0.0660 -0.0966
 6045POPC   PO473322  23.085  14.433   3.461 -0.1518 -0.0606 -0.1944
 6045POPC   GL173323  23.083  14.129   3.749 -0.4061  0.1709  0.0101
 6045POPC   GL273324  22.881  14.080   3.990 -0.3149  0.0025 -0.0912
 6045POPC   C1A73325  23.342  14.079   4.169  0.1668  0.2573 -0.0093
 6045POPC   D2A73326  23.064  13.859   4.488 -0.1633 -0.1799 -0.0101
 6045POPC   C3A73327  22.894  14.121   4.866 -0.3875  0.1939  0.1807
 6045POPC   C4A73328  22.944  14.182   5.387  0.1081 -0.3634 -0.2456
 6045POPC   C1B73329  22.784  14.365   4.323  0.2155 -0.1466  0.3686
 6045POPC   C2B73330  22.559  14.467   4.663  0.2509  0.0675 -0.1135
 6045POPC   C3B73331  22.419  14.744   5.069 -0.0995  0.1269 -0.0227
 6045POPC   C4B73332  22.278  14.776   5.491  0.0060 -0.1117  0.1054
 6046POPC   NC373333  16.816   8.476   4.010  0.1962 -0.0970 -0.1104
 6046POPC   PO473334  16.473   8.519   3.751  0.2109  0.0852  0.1253
 6046POPC   GL173335  16.283   8.431   4.045 -0.0959  0.1896  0.1834
 6046POPC   GL273336  16.155   8.131   4.026  0.0006 -0.0567 -0.1269
 6046POPC   C1A73337  16.139   8.601   4.445 -0.1975 -0.0234 -0.0031
 6046POPC   D2A73338  15.933   8.706   4.858  0.0199 -0.4045 -0.1150
 6046POPC   C3A73339  15.682   8.707   5.264 -0.0025 -0.2599  0.1165
 6046POPC   C4A73340  15.402   8.507   5.614 -0.0204 -0.0412  0.1794
 6046POPC   C1B73341  16.075   8.089   4.474  0.2939 -0.2640 -0.0898
 6046POPC   C2B73342  16.088   8.010   4.919 -0.2677  0.2720 -0.1665
 6046POPC   C3B73343  16.143   7.940   5.407 -0.0732 -0.2362 -0.3350
 6046POPC   C4B73344  16.422   7.927   5.755  0.1698 -0.0201 -0.0085
 6047POPC   NC373345   5.417   8.215   3.358  0.1023  0.3651 -0.0751
 6047POPC   PO473346   5.414   8.183   3.771 -0.1782  0.0361 -0.0488
 6047POPC   GL173347   5.640   8.239   4.143  0.0615  0.1734 -0.1745
 6047POPC   GL273348   5.521   8.486   4.267 -0.0952 -0.2369 -0.2691
 6047POPC   C1A73349   6.029   8.197   4.393 -0.0300  0.0983 -0.1962
 6047POPC   D2A73350   6.033   8.127   4.867 -0.1003  0.0580  0.0502
 6047POPC   C3A73351   5.814   8.090   5.306  0.2827 -0.0283 -0.4744
 6047POPC   C4A73352   5.608   8.099   5.713 -0.3262  0.2716 -0.0440
 6047POPC   C1B73353   5.808   8.599   4.697 -0.0117 -0.1825  0.1122
 6047POPC   C2B73354   5.860   8.638   5.224 -0.0566  0.3547  0.1318
 6047POPC   C3B73355   5.595   8.673   5.619  0.0360 -0.0307 -0.2926
 6047POPC   C4B73356   5.240   8.865   5.747  0.2068 -0.1066 -0.1257
 6048POPC   NC373357   2.841  13.132   4.490  0.0223 -0.0817 -0.2642
 6048POPC   PO473358   3.154  13.184   4.280  0.1602 -0.0907  0.0390
 6048POPC   GL173359   3.322  13.217   4.585  0.0368  0.0455  0.2835
 6048POPC   GL273360   3.646  13.253   4.658 -0.1083 -0.1146 -0.1684
 6048POPC   C1A73361   3.156  13.276   4.980 -0.0807  0.2540 -0.2365
 6048POPC   D2A73362   3.321  13.447   5.379 -0.3557 -0.1907  0.2962
 6048POPC   C3A73363   3.254  13.557   5.787 -0.2689 -0.1400  0.2673
 6048POPC   C4A73364   3.235  13.521   6.243 -0.0298 -0.3365 -0.3781
 6048POPC   C1B73365   3.683  13.215   5.142 -0.2454  0.3563 -0.2321
 6048POPC   C2B73366   3.761  12.992   5.534 -0.1678 -0.0806 -0.0346
 6048POPC   C3B73367   3.904  12.777   5.935  0.0587 -0.4301 -0.1948
 6048POPC   C4B73368   3.810  12.878   6.383 -0.1396 -0.4009  0.2754
 6049POPC   NC373369  23.933  19.837   3.464  0.0611 -0.0973 -0.1391
 6049POPC   PO473370  24.001  19.604   3.809  0.0281  0.1483  0.0564
 6049POPC   GL173371  24.002  19.878   4.160  0.2062  0.2167  0.1536
 6049POPC   GL273372  23.801  20.002   4.012 -0.0834  0.2240 -0.1947
 6049POPC   C1A73373  24.272  20.024   4.504  0.2322  0.0292  0.0413
 6049POPC   D2A73374  24.194  19.875   4.944  0.1451  0.1176  0.0534
 6049POPC   C3A73375  23.818  19.532   5.099 -0.1151 -0.2466  0.1119
 6049POPC   C4A73376  23.598  19.561   5.444  0.3076  0.1794 -0.0523
 6049POPC   C1B73377  23.503  19.720   4.260  0.0354  0.3092 -0.1172
 6049POPC   C2B73378  23.636  19.299   4.418  0.1309  0.2932  0.3247
 6049POPC   C3B73379  23.885  18.949   4.511 -0.1731  0.0420 -0.3328
 6049POPC   C4B73380  24.299  18.685   4.621 -0.2131 -0.0490 -0.1751
 6050POPC   NC373381  25.074  12.010   3.707 -0.0143 -0.1460  0.0051
 6050POPC   PO473382  24.664  12.051   3.636  0.0720 -0.2315 -0.0121
 6050POPC   GL173383  24.509  12.157   4.060  0.1456  0.0778 -0.1413
 6050POPC   GL273384  24.622  12.403   4.204 -0.0986 -0.1878 -0.1367
 6050POPC   C1A73385  24.197  11.961   4.325  0.2751  0.1014  0.0484
 6050POPC   D2A73386  23.934  11.987   4.625 -0.2269  0.0118  0.1226
 6050POPC   C3A73387  24.131  12.029   5.047  0.0645  0.0635  0.1188
 6050POPC   C4A73388  24.210  11.944   5.488 -0.0765 -0.2622 -0.0051
 6050POPC   C1B73389  24.944  12.247   4.480  0.2616 -0.2151  0.0015
 6050POPC   C2B73390  25.186  12.320   4.848 -0.2994 -0.0959  0.0588
 6050POPC   C3B73391  25.336  12.155   5.259  0.2710  0.3135  0.1659
 6050POPC   C4B73392  25.232  11.851   5.604  0.0407 -0.1176 -0.0560
 6051POPC   NC373393   6.639   8.278   3.693 -0.1191 -0.2693 -0.2438
 6051POPC   PO473394   6.801   7.997   3.909 -0.5447  0.0624 -0.2818
 6051POPC   GL173395   6.910   7.860   4.249 -0.1082  0.0900 -0.0081
 6051POPC   GL273396   6.646   7.757   4.326  0.1403  0.0364  0.0894
 6051POPC   C1A73397   7.279   7.771   4.559 -0.4437 -0.1153 -0.1511
 6051POPC   D2A73398   7.360   7.642   5.008  0.2276  0.2063  0.1214
 6051POPC   C3A73399   7.306   7.800   5.408 -0.1932 -0.3446  0.0464
 6051POPC   C4A73400   7.089   7.782   5.827  0.0930 -0.0015  0.0599
 6051POPC   C1B73401   6.871   7.891   4.749 -0.1180 -0.0998  0.1821
 6051POPC   C2B73402   6.565   8.096   5.024  0.1594  0.2148 -0.0470
 6051POPC   C3B73403   6.233   8.314   5.287 -0.2555 -0.3726 -0.0423
 6051POPC   C4B73404   6.083   8.358   5.680  0.1055 -0.1436 -0.1195
 6052POPC   NC373405   5.653  14.682   3.765 -0.0254  0.1063  0.1524
 6052POPC   PO473406   5.970  14.837   3.588  0.1091  0.1494  0.0522
 6052POPC   GL173407   6.228  14.816   3.899  0.1623 -0.1775 -0.2104
 6052POPC   GL273408   6.010  14.828   4.083  0.3304 -0.2110 -0.2350
 6052POPC   C1A73409   6.294  14.499   4.279  0.0463 -0.1106 -0.0801
 6052POPC   D2A73410   6.302  14.132   4.480 -0.1240  0.0900  0.0500
 6052POPC   C3A73411   6.303  13.692   4.525 -0.0186  0.0675  0.0693
 6052POPC   C4A73412   6.317  13.209   4.495  0.3600 -0.0718 -0.0498
 6052POPC   C1B73413   5.951  14.952   4.546  0.1617  0.0049  0.4203
 6052POPC   C2B73414   6.017  15.009   4.967  0.1069  0.1340  0.2316
 6052POPC   C3B73415   5.993  14.944   5.413  0.1332 -0.0654 -0.2339
 6052POPC   C4B73416   5.640  14.792   5.654 -0.0542 -0.1008  0.1343
 6053POPC   NC373417   6.963   9.408   3.867 -0.2410 -0.0553  0.2263
 6053POPC   PO473418   6.970   9.608   3.509  0.0996  0.2213 -0.2219
 6053POPC   GL173419   6.999   9.909   3.906  0.2541 -0.0593  0.2321
 6053POPC   GL273420   7.205  10.138   3.868  0.2488  0.0669 -0.1129
 6053POPC   C1A73421   6.880   9.658   4.290 -0.1260  0.0569  0.2760
 6053POPC   D2A73422   6.490   9.702   4.532  0.0104 -0.0560 -0.2565
 6053POPC   C3A73423   6.675   9.932   4.884  0.1016 -0.0977  0.1436
 6053POPC   C4A73424   6.865  10.130   5.269 -0.2758 -0.2812  0.0749
 6053POPC   C1B73425   7.006  10.361   3.525 -0.1445 -0.0273  0.1386
 6053POPC   C2B73426   6.840  10.682   3.215 -0.1903 -0.0062 -0.1503
 6053POPC   C3B73427   7.009  10.991   2.862  0.2437  0.3443  0.3297
 6053POPC   C4B73428   7.065  11.256   2.530  0.2174 -0.0460  0.0161
 6054POPC   NC373429  14.157  22.101   3.486  0.1416  0.0771  0.0940
 6054POPC   PO473430  14.058  21.725   3.536  0.2217 -0.0105  0.0639
 6054POPC   GL173431  14.221  21.763   3.911  0.0485 -0.0665 -0.4884
 6054POPC   GL273432  14.040  21.984   4.080 -0.1423 -0.0062 -0.0202
 6054POPC   C1A73433  14.564  21.733   4.174 -0.1904 -0.2472 -0.0050
 6054POPC   D2A73434  14.829  21.855   4.544  0.0211 -0.0126 -0.0097
 6054POPC   C3A73435  14.783  21.668   4.974 -0.3343 -0.0823  0.2468
 6054POPC   C4A73436  14.744  21.465   5.349  0.2612  0.1676  0.0303
 6054POPC   C1B73437  14.118  21.773   4.418 -0.2928 -0.0468  0.1101
 6054POPC   C2B73438  14.411  21.475   4.579  0.1937 -0.1513 -0.0931
 6054POPC   C3B73439  14.494  21.277   4.968 -0.0659 -0.1931  0.0232
 6054POPC   C4B73440  14.543  20.951   5.324 -0.2007  0.3793 -0.1748
 6055POPC   NC373441  15.841   3.051   3.599  0.3101 -0.0743 -0.0642
 6055POPC   PO473442  15.913   2.680   3.708 -0.0418 -0.0363  0.3092
 6055POPC   GL173443  16.029   2.942   4.019 -0.1777  0.0944 -0.1398
 6055POPC   GL273444  15.779   3.091   4.085  0.0675  0.2466 -0.2614
 6055POPC   C1A73445  16.190   2.927   4.414 -0.0056  0.0837 -0.0327
 6055POPC   D2A73446  16.573   3.174   4.544 -0.1063  0.0616  0.1793
 6055POPC   C3A73447  16.711   3.502   4.807  0.1936  0.2270 -0.0468
 6055POPC   C4A73448  16.965   3.781   5.153 -0.3699  0.1475  0.1252
 6055POPC   C1B73449  15.671   2.726   4.446 -0.2630 -0.1507 -0.2370
 6055POPC   C2B73450  15.764   2.567   4.886 -0.1901  0.1177 -0.0903
 6055POPC   C3B73451  15.699   2.281   5.253 -0.1928  0.1358 -0.1340
 6055POPC   C4B73452  15.751   1.979   5.560 -0.0615 -0.0255 -0.2991
 6056POPC   NC373453  31.476  28.019   3.814 -0.2413  0.0262 -0.1410
 6056POPC   PO473454  31.726  28.299   3.779 -0.0378 -0.2180 -0.2773
 6056POPC   GL173455  31.934  28.229   4.049 -0.1917  0.3813 -0.2410
 6056POPC   GL273456  31.749  28.216   4.291 -0.0109 -0.3319 -0.1598
 6056POPC   C1A73457  32.235  28.172   4.393 -0.0393  0.0677  0.1081
 6056POPC   D2A73458  32.457  28.111   4.792 -0.3907 -0.1901  0.1488
 6056POPC   C3A73459  32.146  27.877   5.083  0.0495 -0.2846 -0.0168
 6056POPC   C4A73460  31.944  27.783   5.475  0.2235  0.0150  0.1164
 6056POPC   C1B73461  31.824  28.261   4.763 -0.2856 -0.1553  0.1069
 6056POPC   C2B73462  32.102  28.456   5.047 -0.4899  0.0329  0.3879
 6056POPC   C3B73463  32.452  28.627   5.263 -0.0580  0.2250 -0.2278
 6056POPC   C4B73464  32.469  28.864   5.643 -0.2949 -0.2270  0.0573
 6057POPC   NC373465   7.823   7.052   3.134  0.0403  0.1298  0.5045
 6057POPC   PO473466   7.744   7.116   3.507 -0.3267  0.1017 -0.1397
 6057POPC   GL173467   7.710   7.213   3.970 -0.0817  0.1461  0.0954
 6057POPC   GL273468   7.493   7.250   4.073 -0.0763  0.1688 -0.2272
 6057POPC   C1A73469   7.870   7.034   4.374 -0.0796 -0.1627 -0.0126
 6057POPC   D2A73470   8.208   7.184   4.741  0.3734  0.0362 -0.0735
 6057POPC   C3A73471   8.009   7.468   5.069  0.0724  0.3455  0.0937
 6057POPC   C4A73472   7.693   7.426   5.395 -0.0525  0.5062  0.2234
 6057POPC   C1B73473   7.376   7.300   4.472 -0.0415 -0.2547  0.1917
 6057POPC   C2B73474   7.544   7.165   4.836 -0.0676  0.2786 -0.2772
 6057POPC   C3B73475   7.590   6.981   5.257 -0.2686  0.0562 -0.0398
 6057POPC   C4B73476   7.809   6.568   5.307  0.1444  0.0037  0.1671
 6058POPC   NC373477  18.962  31.577   3.360  0.2748  0.1060  0.2216
 6058POPC   PO473478  19.353  31.670   3.336 -0.1487  0.2039 -0.0487
 6058POPC   GL173479  19.240  31.540   3.768 -0.1987 -0.2337 -0.0234
 6058POPC   GL273480  19.258  31.265   3.754 -0.0595 -0.3353 -0.1099
 6058POPC   C1A73481  19.500  31.844   4.014 -0.5170 -0.0993 -0.2176
 6058POPC   D2A73482  19.515  31.742   4.479  0.0594 -0.2908 -0.0436
 6058POPC   C3A73483  19.667  31.894   4.916 -0.2743 -0.0094 -0.2371
 6058POPC   C4A73484  19.786  31.626   5.295  0.0475 -0.0622  0.1126
 6058POPC   C1B73485  19.453  31.386   4.146 -0.0508  0.1858  0.0950
 6058POPC   C2B73486  19.413  31.228   4.584  0.0804  0.0568 -0.0314
 6058POPC   C3B73487  19.674  31.253   4.999 -0.0017  0.1000 -0.1163
 6058POPC   C4B73488  19.620  31.196   5.508 -0.1097  0.1864 -0.0128
 6059POPC   NC373489   7.620  22.852   3.672  0.1145 -0.1901  0.0384
 6059POPC   PO473490   7.237  22.763   3.625  0.0937 -0.0913  0.2396
 6059POPC   GL173491   7.360  22.684   4.058 -0.1627 -0.0594  0.0376
 6059POPC   GL273492   7.577  22.486   4.195 -0.1034 -0.4217 -0.1237
 6059POPC   C1A73493   7.215  22.763   4.450  0.1791  0.3749  0.2955
 6059POPC   D2A73494   7.165  22.534   4.858 -0.1960  0.2833  0.3525
 6059POPC   C3A73495   7.346  22.084   4.791 -0.2473 -0.0548  0.2635
 6059POPC   C4A73496   7.567  21.745   5.076  0.0753 -0.2363 -0.0805
 6059POPC   C1B73497   7.673  22.497   4.653  0.0737 -0.0522 -0.0673
 6059POPC   C2B73498   7.552  22.483   5.126  0.0681 -0.0355  0.0236
 6059POPC   C3B73499   7.551  22.851   5.427 -0.1089  0.0230  0.2233
 6059POPC   C4B73500   7.744  22.977   5.812  0.0439 -0.1918  0.1331
 6060POPC   NC373501  25.567   5.937   3.397  0.2015  0.1539 -0.0545
 6060POPC   PO473502  25.443   5.750   3.717 -0.0381 -0.1436  0.0257
 6060POPC   GL173503  25.674   5.646   3.964 -0.0870 -0.1228 -0.0163
 6060POPC   GL273504  25.825   5.824   4.063  0.0178  0.1840  0.0915
 6060POPC   C1A73505  25.635   5.291   4.271 -0.1943  0.1955 -0.4100
 6060POPC   D2A73506  25.617   4.939   4.523  0.1465 -0.2147  0.0481
 6060POPC   C3A73507  25.595   5.036   4.975  0.1108 -0.2314  0.1808
 6060POPC   C4A73508  25.604   5.247   5.412  0.0640 -0.0828 -0.1349
 6060POPC   C1B73509  25.664   5.730   4.492 -0.2141 -0.1592 -0.2249
 6060POPC   C2B73510  25.868   5.769   4.874  0.1271 -0.0518  0.1149
 6060POPC   C3B73511  26.001   5.757   5.305 -0.1535  0.4144 -0.3181
 6060POPC   C4B73512  26.088   5.644   5.716 -0.0683 -0.0661  0.3052
 6061POPC   NC373513  13.189   0.231   3.607  0.0641  0.2057  0.1214
 6061POPC   PO473514  13.186   0.600   3.705  0.0681 -0.1190  0.0793
 6061POPC   GL173515  13.177   0.873   3.973 -0.2121  0.0105  0.1771
 6061POPC   GL273516  12.957   0.984   4.102  0.1104 -0.1039  0.0930
 6061POPC   C1A73517  13.542   0.779   4.262  0.1728 -0.1805  0.2202
 6061POPC   D2A73518  13.955   0.616   4.497 -0.2894 -0.1175  0.1715
 6061POPC   C3A73519  13.807   0.379   4.889 -0.2249  0.1770 -0.0889
 6061POPC   C4A73520  13.539   0.114   5.208 -0.2151 -0.2552  0.0489
 6061POPC   C1B73521  13.200   1.123   4.481 -0.4413  0.3842 -0.1634
 6061POPC   C2B73522  13.181   1.002   4.943 -0.1883  0.1475  0.2299
 6061POPC   C3B73523  13.510   1.067   5.283 -0.2368 -0.1438 -0.0450
 6061POPC   C4B73524  13.903   0.948   5.567  0.1140  0.0965 -0.1658
 6062POPC   NC373525   4.591  20.708   3.612 -0.0261  0.0277 -0.2230
 6062POPC   PO473526   4.211  20.781   3.678 -0.2075 -0.2647  0.0243
 6062POPC   GL173527   4.196  20.719   4.066  0.1464 -0.2966 -0.0768
 6062POPC   GL273528   4.447  20.608   4.100  0.3253 -0.0664 -0.2821
 6062POPC   C1A73529   3.925  20.333   4.146  0.3905  0.0301  0.1113
 6062POPC   D2A73530   3.547  20.197   4.334  0.2659 -0.1976  0.0003
 6062POPC   C3A73531   3.549  19.829   4.623 -0.0912  0.0691 -0.1602
 6062POPC   C4A73532   3.608  19.755   5.085 -0.0529 -0.0044 -0.0746
 6062POPC   C1B73533   4.294  20.551   4.534 -0.0452 -0.1086 -0.1273
 6062POPC   C2B73534   4.425  20.353   4.961 -0.2375  0.2979  0.1416
 6062POPC   C3B73535   4.704  20.206   5.285  0.2385 -0.5317  0.0837
 6062POPC   C4B73536   5.044  20.158   5.599 -0.2983  0.4339 -0.2618
 6063POPC   NC373537  14.639   2.122   3.374  0.0810 -0.0757 -0.0347
 6063POPC   PO473538  14.255   2.212   3.466  0.0269 -0.1387  0.1551
 6063POPC   GL173539  14.031   2.219   3.721 -0.1905 -0.0986 -0.2055
 6063POPC   GL273540  13.986   1.972   3.817 -0.2226 -0.1776  0.0875
 6063POPC   C1A73541  14.131   2.279   4.192  0.1412 -0.3210  0.0373
 6063POPC   D2A73542  14.268   2.461   4.558  0.1790  0.1869 -0.0121
 6063POPC   C3A73543  13.997   2.401   4.948 -0.1043 -0.1711  0.0500
 6063POPC   C4A73544  13.733   2.375   5.239  0.2379 -0.0109 -0.2381
 6063POPC   C1B73545  13.808   1.642   4.081 -0.2046 -0.0480 -0.0767
 6063POPC   C2B73546  13.475   1.710   4.431 -0.0387 -0.1311  0.0188
 6063POPC   C3B73547  13.320   1.491   4.864 -0.2995  0.1395 -0.1004
 6063POPC   C4B73548  13.310   1.548   5.324  0.3213 -0.2158  0.4298
 6064POPC   NC373549   3.810  20.197   3.266 -0.3712 -0.0052  0.0059
 6064POPC   PO473550   3.966  19.806   3.296  0.1081  0.0091 -0.1283
 6064POPC   GL173551   3.733  19.790   3.621  0.2198 -0.1947 -0.1086
 6064POPC   GL273552   3.708  20.069   3.816 -0.2741  0.0722  0.0207
 6064POPC   C1A73553   4.019  19.500   3.871  0.2322  0.2788 -0.1755
 6064POPC   D2A73554   3.953  19.265   4.267 -0.0540 -0.0100  0.1067
 6064POPC   C3A73555   4.341  19.212   4.502 -0.2672 -0.0402 -0.1068
 6064POPC   C4A73556   4.546  19.048   4.888 -0.1552  0.0274 -0.2353
 6064POPC   C1B73557   3.832  19.796   4.172  0.4353 -0.1786 -0.1393
 6064POPC   C2B73558   4.021  20.033   4.543  0.0896  0.3533  0.1623
 6064POPC   C3B73559   3.984  20.089   4.998  0.0527  0.0785 -0.1432
 6064POPC   C4B73560   4.267  19.995   5.332 -0.1892 -0.0403  0.1203
 6065POPC   NC373561   7.293  10.388   3.126 -0.0468 -0.2096 -0.0852
 6065POPC   PO473562   7.671  10.313   3.077 -0.0752 -0.1005  0.1738
 6065POPC   GL173563   7.636  10.622   3.347  0.5308  0.0017 -0.2341
 6065POPC   GL273564   7.554  10.516   3.623  0.0761  0.0355  0.3464
 6065POPC   C1A73565   7.276  10.886   3.407  0.0800  0.0143 -0.1592
 6065POPC   D2A73566   7.263  11.272   3.250  0.1356 -0.2390  0.0148
 6065POPC   C3A73567   6.992  11.474   2.998 -0.0506 -0.4791  0.1787
 6065POPC   C4A73568   6.831  11.879   3.033 -0.0058 -0.6339  0.0981
 6065POPC   C1B73569   7.213  10.647   3.922 -0.0976 -0.0274  0.1856
 6065POPC   C2B73570   6.852  10.560   4.140 -0.1369 -0.2750 -0.2003
 6065POPC   C3B73571   6.611  10.447   4.482 -0.1968  0.0720 -0.2763
 6065POPC   C4B73572   6.553  10.477   4.949  0.2121 -0.1405  0.2694
 6066POPC   NC373573  15.670  14.042   3.646  0.3590 -0.2656 -0.0507
 6066POPC   PO473574  15.978  14.190   3.835 -0.0228 -0.1097  0.0677
 6066POPC   GL173575  15.885  14.241   4.156  0.0194  0.5656 -0.1673
 6066POPC   GL273576  16.115  14.126   4.371  0.3759 -0.1122  0.1718
 6066POPC   C1A73577  15.659  14.326   4.530 -0.0363 -0.3533 -0.0547
 6066POPC   D2A73578  15.327  14.507   4.756 -0.0494  0.4543 -0.2938
 6066POPC   C3A73579  15.190  14.529   5.171  0.0809  0.0152 -0.1525
 6066POPC   C4A73580  14.881  14.618   5.492 -0.0250  0.0810 -0.4400
 6066POPC   C1B73581  16.186  14.070   4.837 -0.2907 -0.1043 -0.0209
 6066POPC   C2B73582  16.225  14.070   5.291  0.1092 -0.4073  0.0152
 6066POPC   C3B73583  16.120  14.231   5.734 -0.2475 -0.1536 -0.0827
 6066POPC   C4B73584  15.832  14.407   6.017 -0.1203 -0.0456  0.1112
 6067POPC   NC373585  23.699  13.770   3.129  0.2303  0.2485  0.0380
 6067POPC   PO473586  23.623  13.710   3.488  0.0476 -0.1569 -0.2337
 6067POPC   GL173587  23.542  13.778   3.864  0.2491  0.0169  0.1455
 6067POPC   GL273588  23.807  13.925   4.007 -0.2760 -0.1977 -0.0392
 6067POPC   C1A73589  23.249  13.612   4.117  0.0843  0.1200  0.0561
 6067POPC   D2A73590  22.809  13.604   4.201  0.1378 -0.0271  0.0054
 6067POPC   C3A73591  22.502  13.520   4.541 -0.2516  0.1171 -0.0723
 6067POPC   C4A73592  22.236  13.601   4.957 -0.2144 -0.2315  0.0825
 6067POPC   C1B73593  23.799  14.125   4.400 -0.0779  0.0163  0.1132
 6067POPC   C2B73594  23.848  14.375   4.787 -0.0467 -0.0386 -0.1801
 6067POPC   C3B73595  24.157  14.332   5.136  0.0438  0.1050  0.1473
 6067POPC   C4B73596  24.303  14.281   5.569  0.1483  0.1482  0.0984
 6068POPC   NC373597   0.171  27.770   4.079 -0.2141 -0.0241 -0.3105
 6068POPC   PO473598   0.433  27.574   3.919  0.2728  0.4010 -0.0273
 6068POPC   GL173599   0.522  27.720   4.390 -0.2730  0.0008 -0.1623
 6068POPC   GL273600   0.723  27.427   4.334  0.0286  0.0530 -0.1715
 6068POPC   C1A73601   0.392  27.486   4.800 -0.0604  0.2060  0.1164
 6068POPC   D2A73602   0.600  27.401   5.201  0.3064 -0.1465 -0.0630
 6068POPC   C3A73603   0.696  27.746   5.470  0.2159  0.2293 -0.1081
 6068POPC   C4A73604   0.527  28.204   5.447 -0.0464  0.4922  0.2457
 6068POPC   C1B73605   0.903  27.630   4.681 -0.1910  0.1796 -0.2425
 6068POPC   C2B73606   1.013  27.618   5.110  0.2419 -0.0722 -0.0439
 6068POPC   C3B73607   1.147  27.551   5.523  0.0297  0.1368 -0.1045
 6068POPC   C4B73608   1.296  27.369   5.936  0.0886  0.0663 -0.2816
 6069POPC   NC373609  30.321  17.955   3.531 -0.0063  0.0920  0.1025
 6069POPC   PO473610  30.620  18.135   3.713  0.2247 -0.0052  0.1510
 6069POPC   GL173611  30.522  17.865   3.930  0.4036  0.0565 -0.1300
 6069POPC   GL273612  30.734  17.651   4.023  0.1982 -0.1634 -0.0075
 6069POPC   C1A73613  30.676  18.009   4.344  0.2090 -0.0933  0.2287
 6069POPC   D2A73614  30.592  18.199   4.746 -0.0156  0.1856  0.1173
 6069POPC   C3A73615  30.859  18.331   5.063 -0.0434 -0.0237  0.2088
 6069POPC   C4A73616  31.136  18.285   5.372 -0.0907  0.1016 -0.0290
 6069POPC   C1B73617  30.342  17.604   4.306 -0.2459  0.0550  0.2361
 6069POPC   C2B73618  30.145  17.384   4.664 -0.1630  0.0886 -0.3405
 6069POPC   C3B73619  29.780  17.155   4.911 -0.2008  0.0046 -0.0929
 6069POPC   C4B73620  29.918  17.020   5.354  0.2234 -0.2857 -0.3604
 6070POPC   NC373621   2.136  21.004   3.585  0.1622 -0.2435  0.2721
 6070POPC   PO473622   2.214  20.606   3.399  0.2577  0.0741 -0.1041
 6070POPC   GL173623   2.220  20.517   3.742  0.0579  0.0141 -0.2889
 6070POPC   GL273624   2.460  20.509   3.852 -0.1371  0.3192  0.0915
 6070POPC   C1A73625   2.228  20.817   4.127 -0.2148  0.0236  0.1954
 6070POPC   D2A73626   2.151  21.082   4.466  0.0527 -0.1645 -0.1065
 6070POPC   C3A73627   2.254  21.127   4.927  0.2266 -0.1159 -0.1788
 6070POPC   C4A73628   2.459  21.009   5.284 -0.0318 -0.1850 -0.0095
 6070POPC   C1B73629   2.506  20.333   4.246 -0.0597  0.0904 -0.2659
 6070POPC   C2B73630   2.652  20.135   4.717  0.2125  0.0560  0.1465
 6070POPC   C3B73631   2.881  20.213   5.113 -0.1606 -0.0858 -0.0384
 6070POPC   C4B73632   3.123  20.403   5.498  0.0535  0.1457  0.0987
 6071POPC   NC373633   0.842  26.417   3.089 -0.0560  0.1704  0.1384
 6071POPC   PO473634   1.104  26.449   3.341 -0.0174 -0.2874 -0.1841
 6071POPC   GL173635   1.188  26.288   3.698 -0.0490 -0.0190 -0.0707
 6071POPC   GL273636   1.079  26.082   3.844  0.2643  0.0254  0.1319
 6071POPC   C1A73637   1.472  26.267   4.078  0.1856  0.5064 -0.0101
 6071POPC   D2A73638   1.386  26.385   4.499  0.2865  0.1564  0.0719
 6071POPC   C3A73639   1.537  26.091   4.913  0.0238  0.1983 -0.0836
 6071POPC   C4A73640   1.407  25.982   5.330 -0.1979  0.0111 -0.0593
 6071POPC   C1B73641   0.905  26.111   4.236 -0.0229 -0.1422 -0.1434
 6071POPC   C2B73642   0.586  26.099   4.585 -0.2002 -0.3360  0.1966
 6071POPC   C3B73643   0.279  26.101   4.909 -0.1857  0.0335 -0.0253
 6071POPC   C4B73644   0.017  26.027   5.247 -0.2418 -0.3048 -0.2959
 6072POPC   NC373645  25.318  19.726   3.779  0.1133  0.2189  0.2246
 6072POPC   PO473646  25.146  20.046   3.905 -0.1069 -0.2483  0.1812
 6072POPC   GL173647  25.423  20.087   4.224  0.0990  0.2391 -0.0219
 6072POPC   GL273648  25.432  19.816   4.282 -0.3857  0.3743 -0.4346
 6072POPC   C1A73649  25.164  20.176   4.594 -0.1408 -0.1664  0.3993
 6072POPC   D2A73650  25.354  20.318   4.964  0.1570  0.1266 -0.0941
 6072POPC   C3A73651  25.300  19.978   5.341 -0.0406 -0.3079  0.2492
 6072POPC   C4A73652  25.044  19.925   5.685 -0.3726 -0.0894 -0.1999
 6072POPC   C1B73653  25.421  19.495   4.635 -0.0979 -0.2971  0.0853
 6072POPC   C2B73654  25.063  19.268   4.750 -0.1855  0.0672  0.2056
 6072POPC   C3B73655  24.992  18.866   4.986  0.0285  0.0560 -0.0880
 6072POPC   C4B73656  24.820  18.756   5.370  0.0853 -0.0350  0.2209
 6073POPC   NC373657  14.676  31.310   3.867 -0.1830 -0.1681  0.0882
 6073POPC   PO473658  14.361  31.248   3.550  0.1953  0.0032 -0.1631
 6073POPC   GL173659  14.190  31.141   3.877  0.1879  0.1335 -0.3229
 6073POPC   GL273660  14.116  31.415   4.006  0.1266  0.0556  0.3094
 6073POPC   C1A73661  13.898  30.878   4.098 -0.0360 -0.0920  0.0951
 6073POPC   D2A73662  13.588  30.697   4.409 -0.0286  0.0077  0.2818
 6073POPC   C3A73663  13.499  30.284   4.439  0.2004 -0.3428  0.0553
 6073POPC   C4A73664  13.711  30.019   4.760 -0.0914 -0.2542  0.1978
 6073POPC   C1B73665  14.277  31.224   4.396  0.0380  0.0932  0.3537
 6073POPC   C2B73666  14.564  31.178   4.778 -0.0937 -0.0823 -0.3454
 6073POPC   C3B73667  14.740  30.986   5.126  0.0093 -0.0088  0.0357
 6073POPC   C4B73668  14.756  30.584   5.426 -0.4186 -0.2487 -0.2214
 6074POPC   NC373669  25.484  26.278   3.155  0.0935  0.1518  0.1092
 6074POPC   PO473670  25.333  26.590   3.313 -0.0444 -0.1735 -0.0452
 6074POPC   GL173671  25.489  26.806   3.594 -0.0574 -0.2375 -0.1350
 6074POPC   GL273672  25.428  26.553   3.759  0.0700 -0.2568 -0.3187
 6074POPC   C1A73673  25.813  26.773   3.969 -0.0621 -0.0329  0.1540
 6074POPC   D2A73674  26.275  26.725   4.147 -0.1424  0.2181 -0.1269
 6074POPC   C3A73675  26.221  26.628   4.569 -0.2161  0.0593  0.0676
 6074POPC   C4A73676  26.031  26.557   4.979 -0.0670 -0.2136  0.1695
 6074POPC   C1B73677  25.615  26.325   4.084  0.0175  0.0994  0.0164
 6074POPC   C2B73678  25.804  26.350   4.508  0.0071  0.0758 -0.1383
 6074POPC   C3B73679  25.881  26.058   4.817  0.2642 -0.1450 -0.1804
 6074POPC   C4B73680  25.736  25.682   5.082 -0.0037  0.1600  0.2008
 6075POPC   NC373681  30.273  23.937   3.523  0.1599  0.0571 -0.0041
 6075POPC   PO473682  29.914  23.775   3.580 -0.2274  0.1449 -0.1433
 6075POPC   GL173683  30.104  23.766   3.998  0.1333 -0.0605  0.1884
 6075POPC   GL273684  30.432  23.783   3.976  0.1526 -0.0585  0.3443
 6075POPC   C1A73685  30.036  23.415   4.326  0.2899  0.1705 -0.1046
 6075POPC   D2A73686  30.128  23.242   4.753 -0.1612  0.2472 -0.1183
 6075POPC   C3A73687  30.134  23.171   5.233 -0.0922 -0.6208  0.1566
 6075POPC   C4A73688  29.771  23.031   5.443  0.3009  0.0764 -0.1722
 6075POPC   C1B73689  30.423  23.716   4.437 -0.0314  0.0790 -0.0420
 6075POPC   C2B73690  30.569  23.663   4.876 -0.2903  0.0858 -0.0283
 6075POPC   C3B73691  30.877  23.600   5.199  0.1012 -0.3441  0.2889
 6075POPC   C4B73692  31.157  23.801   5.557 -0.0011 -0.0881  0.1148
 6076POPC   NC373693  13.687   7.746   3.529  0.0918 -0.3916 -0.0664
 6076POPC   PO473694  14.080   7.784   3.655  0.1000  0.0540 -0.2524
 6076POPC   GL173695  13.960   7.795   4.028 -0.2965  0.2598  0.0615
 6076POPC   GL273696  13.733   7.825   4.043  0.1695 -0.0817 -0.1811
 6076POPC   C1A73697  14.160   7.633   4.430 -0.0274  0.0291 -0.0714
 6076POPC   D2A73698  14.121   7.494   4.852 -0.1079  0.0579 -0.1784
 6076POPC   C3A73699  13.921   7.791   5.112 -0.0968 -0.2180 -0.1537
 6076POPC   C4A73700  13.539   7.957   5.123  0.1797 -0.0585  0.1975
 6076POPC   C1B73701  13.739   7.834   4.567  0.4214 -0.1731 -0.1092
 6076POPC   C2B73702  13.577   7.514   4.885  0.0109 -0.1049 -0.0207
 6076POPC   C3B73703  13.523   7.370   5.294  0.0645  0.0492 -0.1956
 6076POPC   C4B73704  13.364   7.338   5.780  0.1293  0.0604  0.1557
 6077POPC   NC373705  29.251  23.114   3.644  0.0001  0.0520  0.1765
 6077POPC   PO473706  29.553  22.836   3.653 -0.1349 -0.1630  0.0596
 6077POPC   GL173707  29.644  23.038   3.961 -0.0255 -0.0770  0.1956
 6077POPC   GL273708  29.925  23.080   3.993  0.3217  0.1738  0.2020
 6077POPC   C1A73709  29.556  23.237   4.368  0.5092  0.0519  0.0686
 6077POPC   D2A73710  29.703  23.471   4.738  0.1593 -0.1719  0.2048
 6077POPC   C3A73711  29.748  23.534   5.217  0.0964 -0.2058 -0.0993
 6077POPC   C4A73712  30.156  23.650   5.399  0.2403  0.1547 -0.0765
 6077POPC   C1B73713  29.820  22.762   4.327  0.4026  0.2769 -0.0211
 6077POPC   C2B73714  29.807  22.363   4.519 -0.3485  0.1066 -0.2136
 6077POPC   C3B73715  30.132  22.202   4.825  0.3354  0.2638 -0.2156
 6077POPC   C4B73716  30.510  22.379   5.060  0.2908  0.1607 -0.0761
 6078POPC   NC373717  10.559  30.522   3.855 -0.1610 -0.0005 -0.0100
 6078POPC   PO473718  10.186  30.290   3.740 -0.1476 -0.0652  0.1896
 6078POPC   GL173719   9.890  30.257   3.971 -0.0213  0.0452 -0.0592
 6078POPC   GL273720   9.987  30.381   4.257  0.1968  0.0963  0.1783
 6078POPC   C1A73721   9.886  29.848   4.191 -0.3713  0.2247 -0.0149
 6078POPC   D2A73722   9.825  29.416   4.405  0.0766  0.3346 -0.0544
 6078POPC   C3A73723   9.941  29.353   4.874  0.0087 -0.0983 -0.1581
 6078POPC   C4A73724  10.252  29.240   5.158 -0.3938 -0.0254  0.1972
 6078POPC   C1B73725  10.176  30.526   4.634 -0.2317  0.1347 -0.3294
 6078POPC   C2B73726  10.318  30.699   5.059 -0.2719 -0.1281  0.0325
 6078POPC   C3B73727  10.557  30.937   5.445 -0.1241  0.1621  0.0079
 6078POPC   C4B73728  10.734  30.767   5.833  0.1717  0.0062  0.1223
 6079POPC   NC373729  15.915  18.874   3.801 -0.0221  0.1083  0.0221
 6079POPC   PO473730  15.590  18.794   3.938  0.1909  0.5126  0.1384
 6079POPC   GL173731  15.621  19.078   4.147  0.1575  0.0639 -0.0766
 6079POPC   GL273732  15.605  19.282   3.928  0.0365  0.0092 -0.1037
 6079POPC   C1A73733  15.337  19.161   4.525 -0.2615 -0.1059  0.0463
 6079POPC   D2A73734  15.088  19.095   4.919 -0.0967  0.0006  0.2322
 6079POPC   C3A73735  14.676  19.291   5.111  0.0357 -0.2444  0.0333
 6079POPC   C4A73736  14.490  19.742   5.221 -0.3846  0.1667 -0.1038
 6079POPC   C1B73737  15.429  19.578   4.302 -0.3193 -0.1813 -0.1552
 6079POPC   C2B73738  15.132  19.733   4.666 -0.0142  0.3374  0.1308
 6079POPC   C3B73739  14.838  19.957   4.983 -0.0992  0.1174 -0.0607
 6079POPC   C4B73740  14.753  20.145   5.391  0.0695  0.2822 -0.1346
 6080POPC   NC373741   1.900  29.617   3.808 -0.0401  0.0136 -0.2449
 6080POPC   PO473742   1.559  29.485   3.710  0.0966  0.3594  0.0850
 6080POPC   GL173743   1.417  29.598   4.042  0.2738  0.1959  0.1435
 6080POPC   GL273744   1.369  29.896   4.068 -0.2753  0.2223  0.0836
 6080POPC   C1A73745   1.584  29.578   4.459  0.3645  0.2786 -0.0054
 6080POPC   D2A73746   1.379  29.477   4.863 -0.0507  0.1732 -0.0577
 6080POPC   C3A73747   1.628  29.521   5.215 -0.2043  0.2157  0.0592
 6080POPC   C4A73748   1.841  29.260   5.519 -0.0540 -0.1383 -0.2005
 6080POPC   C1B73749   1.369  30.007   4.488  0.3260  0.0763 -0.2822
 6080POPC   C2B73750   1.488  29.933   4.950  0.3107 -0.2176 -0.0345
 6080POPC   C3B73751   1.445  29.951   5.383  0.1001  0.0564 -0.1440
 6080POPC   C4B73752   1.698  29.930   5.783  0.1351 -0.0219  0.0968
 6081POPC   NC373753  26.777   3.049   4.135  0.3305  0.0987  0.1639
 6081POPC   PO473754  26.380   2.977   4.148  0.1693  0.0820  0.2206
 6081POPC   GL173755  26.469   2.827   4.482  0.0953 -0.1166  0.1597
 6081POPC   GL273756  26.451   2.529   4.454  0.1158  0.1479 -0.1305
 6081POPC   C1A73757  26.295   2.897   4.921  0.1354  0.0969  0.0337
 6081POPC   D2A73758  26.391   2.689   5.284 -0.3055 -0.0423  0.4978
 6081POPC   C3A73759  26.122   2.766   5.641  0.2353  0.1523  0.0821
 6081POPC   C4A73760  25.977   2.996   6.027 -0.1654 -0.4628  0.0560
 6081POPC   C1B73761  26.573   2.399   4.892 -0.1863 -0.1070 -0.1058
 6081POPC   C2B73762  26.564   2.128   5.264 -0.1009  0.0266 -0.2138
 6081POPC   C3B73763  26.546   1.878   5.694  0.0366  0.0900 -0.2957
 6081POPC   C4B73764  26.300   1.869   6.085 -0.1891 -0.0478 -0.0139
 6082POPC   NC373765  21.939   9.639   3.867  0.1202  0.0309 -0.2548
 6082POPC   PO473766  22.171   9.695   3.572  0.1056 -0.2354  0.1234
 6082POPC   GL173767  22.448   9.737   3.934  0.0613 -0.1961 -0.2162
 6082POPC   GL273768  22.373   9.507   4.136 -0.0846 -0.2765 -0.0157
 6082POPC   C1A73769  22.360   9.957   4.343 -0.2031  0.1997 -0.1203
 6082POPC   D2A73770  22.158  10.017   4.803 -0.3140 -0.0160  0.4552
 6082POPC   C3A73771  22.215  10.035   5.336  0.0455  0.0834  0.1045
 6082POPC   C4A73772  22.266  10.210   5.770  0.1996  0.0719 -0.2213
 6082POPC   C1B73773  22.282   9.486   4.595  0.1080 -0.1281  0.0854
 6082POPC   C2B73774  22.391   9.648   5.065  0.1133 -0.1594 -0.0581
 6082POPC   C3B73775  22.638   9.775   5.429 -0.1335  0.0067  0.3227
 6082POPC   C4B73776  22.771  10.034   5.804  0.2204 -0.0754  0.3144
 6083POPC   NC373777  12.008   3.243   2.996 -0.1193 -0.0063 -0.1235
 6083POPC   PO473778  12.346   3.387   3.149 -0.1226 -0.0143 -0.0207
 6083POPC   GL173779  12.307   3.275   3.455 -0.1672 -0.0646  0.2013
 6083POPC   GL273780  11.965   3.264   3.549  0.1028 -0.0174  0.1104
 6083POPC   C1A73781  12.376   3.410   3.856  0.0668 -0.1483  0.0955
 6083POPC   D2A73782  12.524   3.387   4.325 -0.0555 -0.2302 -0.1299
 6083POPC   C3A73783  12.389   3.165   4.704  0.2241 -0.1396 -0.0080
 6083POPC   C4A73784  12.259   2.999   5.136  0.0927  0.0326 -0.0375
 6083POPC   C1B73785  11.882   3.389   3.950 -0.1011  0.1285  0.0395
 6083POPC   C2B73786  12.010   3.363   4.428 -0.1390 -0.0037  0.1002
 6083POPC   C3B73787  11.990   3.356   4.878 -0.2110  0.1729 -0.2634
 6083POPC   C4B73788  11.794   3.228   5.259  0.0708 -0.0755 -0.0711
 6084POPC   NC373789  22.506  12.585   3.293  0.3377 -0.1460  0.1901
 6084POPC   PO473790  22.636  12.863   3.547  0.1287 -0.0310 -0.1891
 6084POPC   GL173791  22.489  12.901   4.006 -0.5350 -0.0600  0.2003
 6084POPC   GL273792  22.553  12.634   4.040 -0.0016 -0.0909 -0.1448
 6084POPC   C1A73793  22.739  13.061   4.340  0.0733 -0.3804  0.1368
 6084POPC   D2A73794  23.017  13.000   4.761 -0.1129  0.2506 -0.2836
 6084POPC   C3A73795  22.988  13.103   5.272 -0.1560  0.1705 -0.0674
 6084POPC   C4A73796  23.007  12.817   5.631  0.0421 -0.0846  0.0506
 6084POPC   C1B73797  22.685  12.600   4.456 -0.0804  0.0392 -0.0313
 6084POPC   C2B73798  22.616  12.679   4.927 -0.1681 -0.0647  0.0714
 6084POPC   C3B73799  22.266  12.719   5.242  0.0030 -0.1496  0.0326
 6084POPC   C4B73800  22.012  12.797   5.648 -0.0651 -0.0633  0.3420
 6085POPC   NC373801  29.123  26.884   3.951 -0.1124 -0.4556  0.2802
 6085POPC   PO473802  28.952  27.175   3.728  0.2202 -0.3363 -0.3238
 6085POPC   GL173803  28.917  27.438   4.082 -0.0452 -0.1192 -0.1861
 6085POPC   GL273804  28.836  27.239   4.264  0.1577  0.4802 -0.3171
 6085POPC   C1A73805  29.089  27.556   4.550 -0.1693  0.4015 -0.3948
 6085POPC   D2A73806  28.923  27.482   4.976 -0.2606  0.0241  0.1359
 6085POPC   C3A73807  29.138  27.403   5.408  0.3081 -0.2460  0.1863
 6085POPC   C4A73808  29.366  27.490   5.768  0.1402 -0.4482  0.0991
 6085POPC   C1B73809  28.966  27.062   4.717  0.2467  0.0131 -0.4613
 6085POPC   C2B73810  29.284  27.061   5.058  0.0638 -0.1991  0.4934
 6085POPC   C3B73811  29.489  26.702   5.183 -0.1220  0.1905 -0.1252
 6085POPC   C4B73812  29.479  26.448   5.523  0.3425 -0.1346  0.1776
 6086POPC   NC373813  30.774  11.909   4.108 -0.2389 -0.3743 -0.0339
 6086POPC   PO473814  30.780  12.058   3.731 -0.1608  0.0727 -0.2527
 6086POPC   GL173815  30.734  12.356   4.040  0.1400 -0.0128 -0.0215
 6086POPC   GL273816  30.491  12.337   4.312 -0.0443 -0.2823 -0.0533
 6086POPC   C1A73817  30.876  12.622   4.422 -0.4374 -0.1051  0.0028
 6086POPC   D2A73818  30.889  12.767   4.830 -0.0969  0.0084  0.0311
 6086POPC   C3A73819  31.089  12.692   5.229  0.0145 -0.0562 -0.2846
 6086POPC   C4A73820  31.304  12.279   5.334 -0.0367  0.0453 -0.0515
 6086POPC   C1B73821  30.686  12.203   4.716  0.3365  0.1426  0.1976
 6086POPC   C2B73822  30.822  12.102   5.128  0.0126  0.2813 -0.2131
 6086POPC   C3B73823  30.800  11.938   5.529 -0.0004  0.1865  0.1414
 6086POPC   C4B73824  31.010  11.648   5.855  0.3452  0.3440 -0.2311
 6087POPC   NC373825  23.872  24.396   3.343 -0.2096  0.2757 -0.1066
 6087POPC   PO473826  23.543  24.622   3.295 -0.1493 -0.1922  0.0375
 6087POPC   GL173827  23.385  24.191   3.452  0.2032 -0.0564  0.1235
 6087POPC   GL273828  23.281  24.321   3.719 -0.1004 -0.0666 -0.4146
 6087POPC   C1A73829  23.600  23.945   3.836  0.2018  0.0322  0.0655
 6087POPC   D2A73830  23.831  24.095   4.179 -0.1667  0.1278  0.0472
 6087POPC   C3A73831  24.185  24.285   4.213  0.0546 -0.0289  0.0395
 6087POPC   C4A73832  24.519  24.640   4.300  0.2995 -0.2811  0.0144
 6087POPC   C1B73833  23.426  24.412   4.154 -0.0643 -0.0352  0.0088
 6087POPC   C2B73834  23.551  24.388   4.605 -0.2916  0.1425 -0.2648
 6087POPC   C3B73835  23.722  24.426   4.987 -0.1325 -0.0048 -0.0845
 6087POPC   C4B73836  24.064  24.777   5.172  0.3029  0.2902  0.1610
 6088POPC   NC373837  16.412   2.904   2.964 -0.0002 -0.0721 -0.3490
 6088POPC   PO473838  16.166   3.193   3.085 -0.1172 -0.0444  0.1369
 6088POPC   GL173839  16.374   3.546   3.025 -0.0390 -0.3150 -0.2150
 6088POPC   GL273840  16.335   3.650   3.289 -0.1596  0.2153 -0.0456
 6088POPC   C1A73841  16.795   3.737   3.169  0.1046 -0.1009  0.2807
 6088POPC   D2A73842  17.107   3.737   3.473  0.1203 -0.1092  0.1600
 6088POPC   C3A73843  17.324   4.058   3.788  0.0109  0.2295  0.3408
 6088POPC   C4A73844  17.619   4.231   4.060 -0.0207  0.1713  0.1013
 6088POPC   C1B73845  16.400   3.872   3.604 -0.1241 -0.0766 -0.2608
 6088POPC   C2B73846  16.448   3.897   4.088  0.2038  0.0430 -0.1952
 6088POPC   C3B73847  16.478   3.951   4.594 -0.2345  0.2020  0.1708
 6088POPC   C4B73848  16.497   3.952   5.056  0.1869 -0.0935  0.0523
 6089POPC   NC373849  15.313  18.643   3.180  0.2644 -0.1977 -0.1200
 6089POPC   PO473850  15.190  18.644   3.584  0.4048  0.3397  0.2263
 6089POPC   GL173851  15.010  18.869   3.942 -0.0803  0.4174  0.1345
 6089POPC   GL273852  15.127  18.746   4.173  0.0080 -0.1190 -0.0063
 6089POPC   C1A73853  15.033  19.288   4.126  0.1857  0.2324  0.0168
 6089POPC   D2A73854  14.701  19.608   4.301  0.1679  0.2282  0.0135
 6089POPC   C3A73855  14.293  19.643   4.503  0.0295 -0.2361 -0.0785
 6089POPC   C4A73856  14.103  19.692   4.908  0.0549  0.0251 -0.1288
 6089POPC   C1B73857  14.843  18.782   4.540  0.3207 -0.0907  0.1087
 6089POPC   C2B73858  14.777  18.759   5.048  0.0510  0.0117 -0.0799
 6089POPC   C3B73859  14.395  18.878   5.271  0.0734  0.0146 -0.0152
 6089POPC   C4B73860  14.121  18.887   5.682  0.0151  0.3576 -0.0528
 6090POPC   NC373861  17.010  29.312   3.076  0.0681 -0.1363 -0.0968
 6090POPC   PO473862  16.917  29.538   3.386 -0.2492  0.2729  0.1556
 6090POPC   GL173863  17.141  29.434   3.686 -0.0223 -0.1313 -0.3245
 6090POPC   GL273864  17.014  29.189   3.777 -0.0953 -0.1481  0.1140
 6090POPC   C1A73865  17.095  29.608   4.125 -0.0897 -0.1076 -0.1194
 6090POPC   D2A73866  16.943  29.720   4.551  0.5690  0.3106 -0.0434
 6090POPC   C3A73867  17.030  29.615   4.988  0.0564 -0.0559  0.0169
 6090POPC   C4A73868  17.027  29.607   5.446 -0.0032  0.1253 -0.3173
 6090POPC   C1B73869  17.043  28.936   4.112 -0.0896  0.0011 -0.1989
 6090POPC   C2B73870  17.194  28.638   4.475  0.5292  0.1216  0.2066
 6090POPC   C3B73871  17.366  28.805   4.832  0.2883  0.0434  0.0324
 6090POPC   C4B73872  17.510  28.850   5.257 -0.2484 -0.4032 -0.0451
 6091POPC   NC373873   3.854   5.464   3.476  0.2120  0.2120 -0.2633
 6091POPC   PO473874   3.919   5.171   3.742  0.0448 -0.0847  0.0002
 6091POPC   GL173875   3.741   5.329   4.073  0.0473  0.2375  0.1177
 6091POPC   GL273876   3.571   5.183   4.321 -0.2132  0.0215 -0.2529
 6091POPC   C1A73877   3.733   5.776   4.284  0.1511 -0.1032 -0.0655
 6091POPC   D2A73878   3.571   6.226   4.519  0.0306 -0.1692 -0.0931
 6091POPC   C3A73879   3.745   6.304   4.946 -0.0953  0.0059  0.0413
 6091POPC   C4A73880   3.849   6.300   5.397 -0.0300  0.1538  0.0284
 6091POPC   C1B73881   3.920   5.034   4.680  0.3619  0.1444 -0.1803
 6091POPC   C2B73882   4.101   4.733   4.998 -0.1600 -0.7678 -0.0309
 6091POPC   C3B73883   4.145   4.719   5.441  0.0095  0.0353 -0.0425
 6091POPC   C4B73884   4.182   4.600   5.861 -0.0701  0.2137 -0.1581
 6092POPC   NC373885   0.076  11.844   3.346  0.0284 -0.0132  0.1782
 6092POPC   PO473886  -0.175  11.593   3.161 -0.0860 -0.0050 -0.1946
 6092POPC   GL173887  -0.087  11.514   3.650  0.2767 -0.1734  0.2683
 6092POPC   GL273888  -0.316  11.611   3.742  0.0490  0.0304 -0.0300
 6092POPC   C1A73889  -0.100  11.131   3.944  0.1624  0.0173 -0.2768
 6092POPC   D2A73890  -0.007  10.884   4.370  0.1660 -0.2458 -0.1403
 6092POPC   C3A73891  -0.024  11.114   4.767  0.1006 -0.0709  0.0787
 6092POPC   C4A73892   0.307  11.093   5.088  0.2616  0.1745 -0.1719
 6092POPC   C1B73893  -0.444  11.638   4.208  0.2109  0.1425  0.0730
 6092POPC   C2B73894  -0.742  11.700   4.552 -0.0298 -0.1616 -0.0085
 6092POPC   C3B73895  -1.006  11.619   4.911  0.2849 -0.3740  0.3792
 6092POPC   C4B73896  -1.349  11.836   5.141 -0.2330 -0.0049 -0.0322
 6093POPC   NC373897   6.719  26.722   4.048 -0.2464 -0.0740 -0.1795
 6093POPC   PO473898   6.387  26.629   3.886  0.1325  0.0777  0.1039
 6093POPC   GL173899   6.354  26.924   4.208  0.2864 -0.4130 -0.3594
 6093POPC   GL273900   6.522  27.183   4.080  0.2798 -0.1134  0.1030
 6093POPC   C1A73901   6.139  27.167   4.539 -0.1222  0.4123  0.1668
 6093POPC   D2A73902   6.044  27.379   4.924 -0.0681  0.1601 -0.3507
 6093POPC   C3A73903   5.681  27.586   5.052  0.1887  0.1017  0.3114
 6093POPC   C4A73904   5.600  27.740   5.430  0.1151 -0.0499 -0.1999
 6093POPC   C1B73905   6.663  27.201   4.521  0.1751 -0.2432 -0.1762
 6093POPC   C2B73906   6.890  27.467   4.743  0.0009 -0.2197 -0.0149
 6093POPC   C3B73907   6.930  27.553   5.176 -0.1188  0.2941 -0.3532
 6093POPC   C4B73908   6.854  27.815   5.558  0.1600 -0.0627  0.2077
 6094POPC   NC373909  26.686  27.154   3.436 -0.1363 -0.1349  0.0642
 6094POPC   PO473910  27.055  27.218   3.469 -0.0812  0.0435 -0.0251
 6094POPC   GL173911  27.118  27.195   3.889 -0.0682  0.1045 -0.2407
 6094POPC   GL273912  27.182  27.381   4.073 -0.1252 -0.1841 -0.0306
 6094POPC   C1A73913  27.119  26.918   4.226 -0.0188 -0.1884 -0.3314
 6094POPC   D2A73914  27.204  27.036   4.690 -0.1906  0.1796 -0.2761
 6094POPC   C3A73915  26.849  27.164   5.050 -0.0870  0.4807 -0.0602
 6094POPC   C4A73916  26.784  27.371   5.424 -0.5428  0.1896  0.3078
 6094POPC   C1B73917  27.039  27.618   4.400  0.1999  0.1596  0.1437
 6094POPC   C2B73918  27.130  27.947   4.760 -0.0230  0.0866  0.2194
 6094POPC   C3B73919  27.581  28.011   4.868 -0.0317 -0.0434  0.1722
 6094POPC   C4B73920  27.927  27.814   5.053 -0.0549 -0.0100  0.0622
 6095POPC   NC373921  12.328   1.860   3.349  0.0885  0.1543 -0.3097
 6095POPC   PO473922  12.152   1.529   3.516  0.1372 -0.3709 -0.2189
 6095POPC   GL173923  12.393   1.742   3.815 -0.0945 -0.1206  0.0672
 6095POPC   GL273924  12.321   2.039   3.855  0.2688 -0.2600 -0.0801
 6095POPC   C1A73925  12.547   1.808   4.242  0.3187 -0.5050 -0.3024
 6095POPC   D2A73926  12.247   2.014   4.573 -0.3838 -0.0840  0.0846
 6095POPC   C3A73927  12.260   2.438   4.851  0.0734  0.3484 -0.2734
 6095POPC   C4A73928  12.295   2.501   5.338  0.0419  0.1536  0.0120
 6095POPC   C1B73929  12.303   2.405   4.217  0.1396  0.1337  0.0399
 6095POPC   C2B73930  11.930   2.529   4.419 -0.1439 -0.1990  0.1038
 6095POPC   C3B73931  11.783   2.715   4.779  0.0187 -0.0423  0.0925
 6095POPC   C4B73932  11.855   2.749   5.216  0.0153  0.0807 -0.1732
 6096POPC   NC373933  13.689   7.252   3.011 -0.2630 -0.2008 -0.1130
 6096POPC   PO473934  13.499   7.313   3.350 -0.1333  0.0248 -0.2790
 6096POPC   GL173935  13.420   7.068   3.723 -0.1017  0.1012  0.4679
 6096POPC   GL273936  13.684   7.051   3.881  0.2090 -0.0001 -0.0589
 6096POPC   C1A73937  13.232   7.064   4.171  0.2230  0.0454  0.0123
 6096POPC   D2A73938  13.002   7.078   4.624 -0.2553  0.1614 -0.2805
 6096POPC   C3A73939  13.207   7.137   5.032  0.0012 -0.0256  0.4288
 6096POPC   C4A73940  13.244   6.873   5.411 -0.1171 -0.2281 -0.1351
 6096POPC   C1B73941  13.678   6.733   4.273 -0.0072 -0.1716  0.3398
 6096POPC   C2B73942  13.847   6.659   4.705 -0.0408  0.3450 -0.2629
 6096POPC   C3B73943  13.900   6.332   5.028 -0.0515 -0.0353 -0.0258
 6096POPC   C4B73944  14.008   6.207   5.439 -0.3093 -0.0081  0.0546
 6097POPC   NC373945  18.358   2.772   3.548  0.2639  0.3886  0.0068
 6097POPC   PO473946  18.662   2.997   3.643 -0.2304 -0.1218 -0.0781
 6097POPC   GL173947  18.786   3.074   3.925 -0.2180 -0.1433  0.2632
 6097POPC   GL273948  18.717   3.412   3.836  0.2406 -0.0856  0.2395
 6097POPC   C1A73949  18.680   2.988   4.338 -0.1678  0.0819  0.1487
 6097POPC   D2A73950  18.511   3.257   4.703  0.0898 -0.2228  0.0275
 6097POPC   C3A73951  18.653   3.752   4.739  0.1863  0.0635 -0.0247
 6097POPC   C4A73952  18.669   4.186   4.841 -0.1052  0.0629 -0.0509
 6097POPC   C1B73953  18.527   3.811   3.877  0.0465  0.0199  0.2491
 6097POPC   C2B73954  18.250   4.227   3.864 -0.1647  0.3154 -0.0702
 6097POPC   C3B73955  18.073   4.496   4.122 -0.0869  0.1200 -0.0609
 6097POPC   C4B73956  17.920   4.440   4.534 -0.0887  0.1620  0.2440
 6098POPC   NC373957  23.812  16.734   4.661  0.0834 -0.0050  0.0602
 6098POPC   PO473958  23.652  16.532   4.325 -0.1886 -0.0340  0.2181
 6098POPC   GL173959  23.389  16.207   4.434 -0.2841 -0.1980  0.0675
 6098POPC   GL273960  23.580  16.113   4.624  0.0921 -0.2803  0.2165
 6098POPC   C1A73961  23.059  16.127   4.771  0.0229  0.0002  0.1020
 6098POPC   D2A73962  22.831  16.055   5.131 -0.0937 -0.1948  0.2849
 6098POPC   C3A73963  23.129  15.846   5.446 -0.0438  0.1375  0.2632
 6098POPC   C4A73964  23.188  15.499   5.616 -0.1001  0.0768  0.1189
 6098POPC   C1B73965  23.484  16.059   5.089 -0.2239 -0.2249 -0.3076
 6098POPC   C2B73966  23.451  16.155   5.615  0.0857  0.1298  0.0508
 6098POPC   C3B73967  23.645  16.217   5.991 -0.0504 -0.1307 -0.1921
 6098POPC   C4B73968  23.774  16.419   6.403  0.1392 -0.3876 -0.1528
 6099POPC   NC373969  29.917  19.339   3.837 -0.1865 -0.2128 -0.2270
 6099POPC   PO473970  29.554  19.197   3.792 -0.1393 -0.0750  0.0788
 6099POPC   GL173971  29.617  18.943   4.097 -0.1011 -0.4359  0.1730
 6099POPC   GL273972  29.882  19.076   4.248 -0.0260  0.1671 -0.0525
 6099POPC   C1A73973  29.539  18.708   4.500 -0.2825 -0.0618 -0.0870
 6099POPC   D2A73974  29.216  18.487   4.736  0.0642  0.4605  0.0167
 6099POPC   C3A73975  28.940  18.781   4.600  0.1021  0.0847  0.2927
 6099POPC   C4A73976  28.706  19.040   4.359  0.1214  0.1303 -0.0573
 6099POPC   C1B73977  30.028  18.697   4.393  0.1407 -0.0276  0.0282
 6099POPC   C2B73978  30.132  18.481   4.849 -0.0662  0.1609 -0.0905
 6099POPC   C3B73979  30.400  18.342   5.215  0.0225 -0.2172  0.2276
 6099POPC   C4B73980  30.650  18.586   5.617  0.2863  0.4537  0.0706
 6100POPC   NC373981  12.078   9.873   3.748 -0.1181  0.1481  0.0026
 6100POPC   PO473982  12.080   9.990   3.384 -0.1231  0.0006  0.0211
 6100POPC   GL173983  12.016  10.305   3.694 -0.3545  0.2452 -0.0132
 6100POPC   GL273984  12.196  10.387   3.697  0.2132  0.0796  0.1305
 6100POPC   C1A73985  11.887  10.255   4.118 -0.1805 -0.1032 -0.2263
 6100POPC   D2A73986  11.559  10.188   4.480 -0.1212  0.2291 -0.3610
 6100POPC   C3A73987  11.244  10.114   4.782  0.0832  0.0832 -0.1067
 6100POPC   C4A73988  10.799  10.273   4.868 -0.0865 -0.2716  0.2079
 6100POPC   C1B73989  12.484  10.177   4.006 -0.1650  0.2079 -0.4157
 6100POPC   C2B73990  12.653  10.432   4.364 -0.0124 -0.1581 -0.0704
 6100POPC   C3B73991  12.850  10.421   4.740  0.0307 -0.2459  0.2032
 6100POPC   C4B73992  12.889  10.312   5.211  0.1291 -0.3638 -0.1098
 6101POPC   NC373993   3.525   2.522   3.562 -0.2134 -0.0130 -0.2376
 6101POPC   PO473994   3.893   2.435   3.491  0.0121 -0.0039  0.2267
 6101POPC   GL173995   3.996   2.571   3.878 -0.2185  0.1509  0.1197
 6101POPC   GL273996   3.781   2.782   3.859  0.1153 -0.1713 -0.3219
 6101POPC   C1A73997   4.100   2.717   4.306 -0.1881 -0.0756  0.2697
 6101POPC   D2A73998   4.178   2.757   4.757  0.0795 -0.1071 -0.0305
 6101POPC   C3A73999   4.232   3.184   4.885 -0.0199  0.1166 -0.1147
 6101POPC   C4A74000   4.082   3.544   5.094 -0.0842  0.0068  0.0319
 6101POPC   C1B74001   3.595   2.982   4.282 -0.1326  0.0615  0.0081
 6101POPC   C2B74002   3.498   2.810   4.700  0.0359 -0.0976  0.0272
 6101POPC   C3B74003   3.451   2.762   5.159 -0.1544 -0.2449  0.1131
 6101POPC   C4B74004   3.291   2.637   5.548 -0.4718  0.0804 -0.0552
 6102POPC   NC374005  14.696   9.197   2.937 -0.1217 -0.2165 -0.0260
 6102POPC   PO474006  14.532   9.489   3.161  0.0187 -0.0870 -0.1076
 6102POPC   GL174007  14.417   9.496   3.571 -0.0100 -0.1731 -0.5497
 6102POPC   GL274008  14.447   9.848   3.577  0.1126 -0.2864  0.2128
 6102POPC   C1A74009  14.182   9.618   3.982  0.3110 -0.1330 -0.4473
 6102POPC   D2A74010  14.089   9.810   4.390  0.1152 -0.2381  0.3445
 6102POPC   C3A74011  13.936  10.202   4.339 -0.1151 -0.2980  0.1312
 6102POPC   C4A74012  13.548  10.332   4.273  0.1060  0.3378 -0.1390
 6102POPC   C1B74013  14.618   9.803   3.905 -0.1526 -0.0177  0.1192
 6102POPC   C2B74014  14.498  10.055   4.221  0.0047  0.1134  0.2715
 6102POPC   C3B74015  14.341  10.251   4.616 -0.1844 -0.1802  0.3407
 6102POPC   C4B74016  14.164  10.459   4.977 -0.0267 -0.0361  0.1649
 6103POPC   NC374017  21.609  12.505   3.875  0.1035 -0.1541 -0.0920
 6103POPC   PO474018  21.844  12.175   3.858  0.2024  0.0663 -0.0583
 6103POPC   GL174019  21.830  12.100   4.232  0.0010 -0.0933 -0.4408
 6103POPC   GL274020  21.780  12.330   4.403 -0.3933 -0.2214  0.2159
 6103POPC   C1A74021  22.028  11.978   4.686  0.2058 -0.0289  0.1281
 6103POPC   D2A74022  22.417  11.757   4.834  0.0273 -0.1399  0.0083
 6103POPC   C3A74023  22.455  11.707   5.286 -0.1906 -0.1491 -0.0956
 6103POPC   C4A74024  22.717  11.888   5.641 -0.2600 -0.2507 -0.0448
 6103POPC   C1B74025  21.391  12.553   4.441  0.0869 -0.1811 -0.0458
 6103POPC   C2B74026  21.169  12.798   4.752  0.1868 -0.0750  0.2372
 6103POPC   C3B74027  21.013  12.919   5.171  0.2894  0.1328  0.0348
 6103POPC   C4B74028  20.896  13.195   5.512 -0.0409 -0.1978  0.1080
 6104POPC   NC374029  30.735  19.908   3.708 -0.1931  0.3058  0.0432
 6104POPC   PO474030  30.973  20.187   3.786 -0.0492  0.0780 -0.3789
 6104POPC   GL174031  30.955  20.081   4.195  0.2495 -0.4988 -0.1525
 6104POPC   GL274032  30.848  19.805   4.273  0.2382  0.1223 -0.0125
 6104POPC   C1A74033  31.248  20.215   4.607  0.3383  0.0802  0.1125
 6104POPC   D2A74034  31.511  20.387   4.931 -0.2172  0.1863 -0.0018
 6104POPC   C3A74035  31.534  20.532   5.367  0.2684 -0.0335  0.1909
 6104POPC   C4A74036  31.346  20.862   5.621 -0.1238 -0.3640 -0.3468
 6104POPC   C1B74037  30.984  19.778   4.718 -0.0194 -0.2049  0.0975
 6104POPC   C2B74038  30.746  19.929   5.120  0.2532 -0.2917 -0.1940
 6104POPC   C3B74039  30.664  20.123   5.562  0.2297 -0.2296 -0.0882
 6104POPC   C4B74040  30.704  20.543   5.841  0.0497 -0.1175  0.0033
 6105POPC   NC374041  19.404  28.403   3.943  0.0466 -0.0637  0.2932
 6105POPC   PO474042  19.760  28.313   3.945 -0.2217 -0.1196 -0.1806
 6105POPC   GL174043  19.792  28.329   4.340  0.2625  0.0341 -0.1727
 6105POPC   GL274044  19.572  28.210   4.420 -0.1787  0.2036  0.2535
 6105POPC   C1A74045  19.697  28.738   4.555 -0.1220 -0.0273  0.2054
 6105POPC   D2A74046  19.564  28.889   4.973  0.0236  0.0092 -0.2417
 6105POPC   C3A74047  19.905  28.941   5.256  0.2319 -0.0538 -0.1939
 6105POPC   C4A74048  20.088  28.664   5.578  0.0168 -0.2448 -0.0969
 6105POPC   C1B74049  19.652  28.249   4.867 -0.2028  0.1123  0.1943
 6105POPC   C2B74050  19.670  28.477   5.298 -0.1447  0.2330  0.0198
 6105POPC   C3B74051  19.582  28.656   5.735 -0.1256 -0.0275  0.4077
 6105POPC   C4B74052  19.532  29.004   6.054  0.0979 -0.1695 -0.0343
 6106POPC   NC374053  12.689   2.222   3.382 -0.1732  0.1048 -0.0186
 6106POPC   PO474054  12.580   2.491   3.616  0.1184  0.0935 -0.1231
 6106POPC   GL174055  12.885   2.501   3.876  0.0676  0.1569 -0.0589
 6106POPC   GL274056  12.750   2.305   4.035 -0.3458  0.1593  0.1697
 6106POPC   C1A74057  13.263   2.445   4.140 -0.1592  0.0056 -0.0177
 6106POPC   D2A74058  13.626   2.144   4.161 -0.2856 -0.1767 -0.0845
 6106POPC   C3A74059  13.918   1.918   4.490 -0.2924  0.0572 -0.0011
 6106POPC   C4A74060  14.214   1.511   4.601  0.3963  0.3550 -0.2189
 6106POPC   C1B74061  12.697   2.279   4.468  0.0463 -0.2928 -0.0084
 6106POPC   C2B74062  12.758   2.330   4.923 -0.0455 -0.1590 -0.0730
 6106POPC   C3B74063  12.749   2.444   5.365 -0.1513  0.0967  0.0788
 6106POPC   C4B74064  12.736   2.807   5.625 -0.6253  0.0982 -0.1703
 6107POPC   NC374065  25.828  18.561   3.567  0.2675  0.1490 -0.0389
 6107POPC   PO474066  25.997  18.212   3.475  0.4051 -0.0092  0.0278
 6107POPC   GL174067  26.026  18.205   3.878 -0.0272  0.3335 -0.1218
 6107POPC   GL274068  25.855  17.978   3.983 -0.2049  0.0023  0.0407
 6107POPC   C1A74069  26.371  18.067   4.187  0.0262  0.2527  0.1119
 6107POPC   D2A74070  26.692  18.250   4.486  0.1410  0.0229 -0.1948
 6107POPC   C3A74071  27.128  18.239   4.724  0.1269  0.1576  0.3763
 6107POPC   C4A74072  27.576  18.134   4.659  0.2435 -0.0224 -0.1449
 6107POPC   C1B74073  25.937  18.021   4.464 -0.2160 -0.0187  0.0924
 6107POPC   C2B74074  25.985  17.947   4.875  0.0623 -0.0268 -0.0116
 6107POPC   C3B74075  26.020  17.725   5.285 -0.2908  0.3367 -0.0311
 6107POPC   C4B74076  25.995  17.671   5.738  0.0435  0.3095  0.0605
 6108POPC   NC374077   2.379  27.970   3.634  0.0990  0.0145 -0.1372
 6108POPC   PO474078   2.062  28.200   3.633  0.0627 -0.1035 -0.2001
 6108POPC   GL174079   1.871  28.051   3.939  0.0099 -0.2347  0.1747
 6108POPC   GL274080   2.027  27.841   4.101  0.1096 -0.0914 -0.0464
 6108POPC   C1A74081   1.627  28.314   4.235  0.2111  0.3333  0.1148
 6108POPC   D2A74082   1.440  28.401   4.617  0.0743  0.0283  0.0641
 6108POPC   C3A74083   1.596  28.399   5.053  0.0509 -0.1225 -0.1585
 6108POPC   C4A74084   1.690  28.308   5.466 -0.1431 -0.0697  0.0127
 6108POPC   C1B74085   2.046  28.101   4.512 -0.1754  0.1078  0.0758
 6108POPC   C2B74086   2.011  28.250   4.932  0.1034 -0.0330  0.0263
 6108POPC   C3B74087   2.037  27.991   5.258 -0.0759  0.2476  0.1126
 6108POPC   C4B74088   1.789  27.874   5.618 -0.0022 -0.2504  0.1122
 6109POPC   NC374089  31.451  21.570   3.449  0.3244  0.1254 -0.1970
 6109POPC   PO474090  31.282  21.245   3.537  0.1233  0.0047 -0.1225
 6109POPC   GL174091  31.212  21.089   3.985  0.3047 -0.4372  0.3782
 6109POPC   GL274092  30.969  21.183   4.004  0.1624 -0.0559 -0.0583
 6109POPC   C1A74093  31.114  20.756   4.322 -0.0630  0.2303 -0.1144
 6109POPC   D2A74094  30.789  20.465   4.567  0.1356  0.0030  0.3496
 6109POPC   C3A74095  30.872  20.445   4.996 -0.1773 -0.2091 -0.0139
 6109POPC   C4A74096  31.040  20.433   5.455 -0.1269  0.0076  0.1215
 6109POPC   C1B74097  30.925  21.488   4.331 -0.3436  0.0031  0.3966
 6109POPC   C2B74098  30.981  21.541   4.790 -0.1402  0.3249  0.0642
 6109POPC   C3B74099  31.263  21.683   5.116 -0.2559  0.2340 -0.0730
 6109POPC   C4B74100  31.145  21.873   5.566 -0.1438 -0.1648 -0.0744
 6110POPC   NC374101   0.576   3.278   3.684  0.0174  0.0267 -0.0096
 6110POPC   PO474102   0.554   2.876   3.689 -0.0645  0.1190 -0.0690
 6110POPC   GL174103   0.437   3.026   4.078 -0.3516 -0.2116  0.1438
 6110POPC   GL274104   0.537   2.801   4.167  0.0498 -0.0489 -0.1300
 6110POPC   C1A74105   0.245   3.082   4.494 -0.0845  0.1576  0.0789
 6110POPC   D2A74106   0.270   2.828   4.883  0.1218 -0.2028  0.0154
 6110POPC   C3A74107   0.437   2.927   5.318  0.1110 -0.0734  0.0656
 6110POPC   C4A74108   0.700   3.127   5.628 -0.2015 -0.1421 -0.1258
 6110POPC   C1B74109   0.565   2.571   4.587  0.0350  0.0375  0.1709
 6110POPC   C2B74110   0.607   2.492   5.054 -0.1538  0.0226 -0.3374
 6110POPC   C3B74111   0.547   2.376   5.512 -0.0682 -0.0445 -0.0426
 6110POPC   C4B74112   0.570   1.929   5.692  0.0683  0.1208 -0.4704
 6111POPC   NC374113  28.140  29.685   3.277 -0.0440  0.0033  0.1594
 6111POPC   PO474114  28.156  29.287   3.440  0.1506  0.3676  0.0441
 6111POPC   GL174115  28.425  29.425   3.782 -0.2843  0.3307  0.0977
 6111POPC   GL274116  28.614  29.608   3.674 -0.1873 -0.0330  0.2385
 6111POPC   C1A74117  28.457  29.531   4.215  0.0088  0.5372  0.1171
 6111POPC   D2A74118  28.515  29.443   4.709  0.0629 -0.1169  0.0441
 6111POPC   C3A74119  28.056  29.340   4.874 -0.0984 -0.5707 -0.2567
 6111POPC   C4A74120  27.775  29.217   5.262 -0.1031 -0.1645  0.0739
 6111POPC   C1B74121  28.587  29.923   3.997  0.1707 -0.4005  0.0956
 6111POPC   C2B74122  28.250  29.995   4.332  0.2235  0.1912 -0.1419
 6111POPC   C3B74123  28.119  29.837   4.756  0.1296 -0.1305  0.1942
 6111POPC   C4B74124  28.010  29.965   5.214  0.0390 -0.0836 -0.0110
 6112POPC   NC374125  20.864   8.277   3.666 -0.2330  0.3494 -0.0340
 6112POPC   PO474126  20.779   7.953   3.845  0.6191 -0.0193 -0.1022
 6112POPC   GL174127  20.535   7.888   4.200 -0.1547  0.3032 -0.1388
 6112POPC   GL274128  20.241   7.778   4.305 -0.0590 -0.1978  0.0142
 6112POPC   C1A74129  20.564   8.033   4.611  0.1009  0.1764  0.0675
 6112POPC   D2A74130  20.891   8.127   4.897 -0.0949  0.1617 -0.2674
 6112POPC   C3A74131  20.859   8.236   5.331  0.2178  0.1247 -0.1269
 6112POPC   C4A74132  21.116   8.544   5.620 -0.2349 -0.0584  0.3186
 6112POPC   C1B74133  20.064   7.959   4.682  0.4564  0.2091  0.1527
 6112POPC   C2B74134  20.346   8.055   5.074  0.2078 -0.1664 -0.0371
 6112POPC   C3B74135  20.382   8.275   5.490 -0.0885  0.1213 -0.2755
 6112POPC   C4B74136  20.516   8.462   5.886  0.2312 -0.1175 -0.1337
 6113POPC   NC374137   1.134  18.223   3.198 -0.0375  0.0167 -0.2234
 6113POPC   PO474138   1.066  18.088   3.530 -0.0056  0.2141 -0.0684
 6113POPC   GL174139   0.969  18.025   3.880 -0.3713  0.2520 -0.2514
 6113POPC   GL274140   0.999  18.257   3.976  0.0666 -0.0192  0.0039
 6113POPC   C1A74141   0.733  17.900   4.266  0.2335 -0.0285  0.2586
 6113POPC   D2A74142   0.820  18.026   4.656 -0.0534  0.0620 -0.2359
 6113POPC   C3A74143   0.792  17.757   5.020 -0.0196  0.0477 -0.0231
 6113POPC   C4A74144   0.730  17.526   5.387  0.1937  0.3312 -0.0205
 6113POPC   C1B74145   0.795  18.463   4.372  0.0288 -0.0179  0.0166
 6113POPC   C2B74146   0.776  18.525   4.833 -0.0687  0.0249  0.2777
 6113POPC   C3B74147   0.700  18.807   5.245 -0.1138  0.0765  0.1538
 6113POPC   C4B74148   0.893  19.079   5.585 -0.0614  0.0683  0.0053
 6114POPC   NC374149   3.213  22.099   3.425 -0.0809  0.0043 -0.0268
 6114POPC   PO474150   3.513  22.205   3.690 -0.0596  0.0790 -0.2641
 6114POPC   GL174151   3.219  22.447   3.897  0.0011 -0.2195  0.6181
 6114POPC   GL274152   3.487  22.437   4.130 -0.2927  0.1418  0.3063
 6114POPC   C1A74153   2.919  22.383   4.233 -0.2042  0.0868  0.2283
 6114POPC   D2A74154   2.880  22.490   4.719  0.2314  0.0164  0.0411
 6114POPC   C3A74155   2.916  22.194   5.063 -0.1671  0.1411 -0.1334
 6114POPC   C4A74156   3.079  21.799   5.280 -0.0613  0.2797  0.1157
 6114POPC   C1B74157   3.336  22.419   4.533 -0.2126 -0.1455  0.3864
 6114POPC   C2B74158   3.407  22.095   4.901 -0.1948 -0.1729  0.0929
 6114POPC   C3B74159   3.573  21.831   5.316 -0.0906 -0.0256  0.0862
 6114POPC   C4B74160   3.591  21.758   5.748 -0.2692 -0.0537  0.1578
 6115POPC   NC374161  21.153  26.846   3.716  0.3516  0.2260 -0.1355
 6115POPC   PO474162  21.278  27.131   3.944 -0.1219  0.2227  0.0928
 6115POPC   GL174163  21.157  26.985   4.229 -0.2811 -0.0393  0.0663
 6115POPC   GL274164  20.974  26.755   4.240 -0.1134  0.0187  0.0462
 6115POPC   C1A74165  21.365  26.824   4.622 -0.1156 -0.3881 -0.0306
 6115POPC   D2A74166  21.268  26.835   5.080  0.2147 -0.0071 -0.0437
 6115POPC   C3A74167  21.494  26.500   5.342  0.0342 -0.1393  0.0289
 6115POPC   C4A74168  21.401  26.264   5.743  0.0624 -0.2104 -0.1531
 6115POPC   C1B74169  20.822  26.600   4.642  0.2131 -0.2618  0.0459
 6115POPC   C2B74170  20.862  26.579   5.117  0.0501  0.0821 -0.1240
 6115POPC   C3B74171  20.917  26.493   5.546  0.0760  0.0962  0.2569
 6115POPC   C4B74172  21.014  26.384   6.004 -0.4045 -0.0695 -0.0642
 6116POPC   NC374173  23.804   3.551   3.899 -0.0572  0.2090  0.3476
 6116POPC   PO474174  23.397   3.465   3.832 -0.0381 -0.1144  0.4482
 6116POPC   GL174175  23.434   3.335   4.187 -0.1842 -0.0149  0.1025
 6116POPC   GL274176  23.222   3.153   4.196 -0.0461 -0.0340 -0.0577
 6116POPC   C1A74177  23.762   3.395   4.452 -0.1479 -0.4447 -0.1838
 6116POPC   D2A74178  23.810   3.043   4.784 -0.2836  0.2657  0.2450
 6116POPC   C3A74179  23.397   2.881   4.986 -0.1551 -0.2213  0.1369
 6116POPC   C4A74180  23.039   2.676   5.152  0.0427 -0.1657 -0.0570
 6116POPC   C1B74181  23.275   3.235   4.649 -0.2383 -0.0692  0.0622
 6116POPC   C2B74182  23.150   3.465   5.050 -0.0286 -0.0142  0.1941
 6116POPC   C3B74183  23.227   3.555   5.503  0.3126  0.0195  0.0410
 6116POPC   C4B74184  23.360   3.759   5.896 -0.1552  0.1110  0.0251
 6117POPC   NC374185   1.918   7.639   3.787  0.0598  0.0823 -0.0387
 6117POPC   PO474186   2.047   7.315   3.585 -0.0392  0.2562  0.1859
 6117POPC   GL174187   2.127   7.255   3.882 -0.3626 -0.0174  0.1192
 6117POPC   GL274188   1.840   7.179   4.037  0.1812 -0.1921 -0.0243
 6117POPC   C1A74189   2.486   7.214   4.182  0.0515 -0.0020  0.3150
 6117POPC   D2A74190   2.589   6.877   4.429 -0.0854 -0.1074 -0.1664
 6117POPC   C3A74191   2.547   6.957   4.926  0.0097  0.0493 -0.0351
 6117POPC   C4A74192   2.537   7.023   5.348 -0.2419 -0.2882 -0.0422
 6117POPC   C1B74193   1.740   7.335   4.426 -0.1096  0.1046 -0.0461
 6117POPC   C2B74194   1.464   7.648   4.713  0.0642 -0.0564 -0.3872
 6117POPC   C3B74195   1.047   7.760   4.950  0.2035 -0.2384 -0.0551
 6117POPC   C4B74196   0.665   7.744   5.187  0.1843 -0.1299  0.2822
 6118POPC   NC374197   0.872  21.117   3.536 -0.3421 -0.0297  0.0429
 6118POPC   PO474198   0.639  21.454   3.641  0.1739  0.1776  0.2961
 6118POPC   GL174199   0.557  21.279   3.954  0.1823 -0.0323  0.1355
 6118POPC   GL274200   0.700  21.117   4.063 -0.1368  0.0844 -0.0946
 6118POPC   C1A74201   0.407  21.382   4.377  0.1066  0.2189 -0.0703
 6118POPC   D2A74202   0.187  21.221   4.746 -0.1478  0.1901  0.2121
 6118POPC   C3A74203   0.019  21.387   5.153 -0.3464  0.1276  0.1584
 6118POPC   C4A74204  -0.128  21.314   5.583 -0.3064 -0.0129 -0.1024
 6118POPC   C1B74205   0.919  21.200   4.441  0.3913 -0.3572 -0.3118
 6118POPC   C2B74206   0.917  21.320   4.839  0.3001  0.1479 -0.2361
 6118POPC   C3B74207   0.991  21.432   5.286 -0.0195 -0.1636 -0.1468
 6118POPC   C4B74208   1.152  21.620   5.723  0.0632  0.0044 -0.1114
 6119POPC   NC374209  31.485  18.471   3.766  0.0867 -0.0695 -0.0487
 6119POPC   PO474210  31.855  18.573   3.810 -0.0779  0.1608 -0.0496
 6119POPC   GL174211  31.641  18.495   4.191  0.1042 -0.2404 -0.0669
 6119POPC   GL274212  31.294  18.612   4.194 -0.1273 -0.0938 -0.1374
 6119POPC   C1A74213  31.697  18.414   4.638 -0.0467 -0.2312  0.0130
 6119POPC   D2A74214  31.660  18.378   5.116 -0.2930  0.0516 -0.1883
 6119POPC   C3A74215  31.686  18.205   5.522 -0.0993  0.2985 -0.0015
 6119POPC   C4A74216  31.426  18.212   5.866  0.4837 -0.1240 -0.2451
 6119POPC   C1B74217  31.184  18.378   4.577  0.0445 -0.2803  0.0391
 6119POPC   C2B74218  31.064  17.960   4.758 -0.0459 -0.0155  0.1332
 6119POPC   C3B74219  31.134  17.757   5.186 -0.0315  0.2305  0.0628
 6119POPC   C4B74220  30.952  17.818   5.631 -0.0527  0.0597  0.4025
 6120POPC   NC374221  30.479   9.013   3.307 -0.3405  0.1681 -0.1782
 6120POPC   PO474222  30.828   9.077   3.496 -0.1617 -0.0683 -0.0237
 6120POPC   GL174223  30.762   8.783   3.831  0.1238  0.5554 -0.5629
 6120POPC   GL274224  30.636   8.566   3.716 -0.0446  0.4898  0.2851
 6120POPC   C1A74225  30.982   8.669   4.213  0.1978 -0.0713 -0.0246
 6120POPC   D2A74226  31.026   8.736   4.678  0.0763  0.0760  0.0529
 6120POPC   C3A74227  31.089   8.650   5.155 -0.0974  0.0993 -0.1389
 6120POPC   C4A74228  30.811   8.543   5.583  0.2227 -0.2115  0.0640
 6120POPC   C1B74229  30.552   8.454   4.163  0.0412 -0.0367 -0.0322
 6120POPC   C2B74230  30.545   8.614   4.569 -0.2936  0.2183  0.2706
 6120POPC   C3B74231  30.643   8.759   4.997  0.0335 -0.0356  0.0688
 6120POPC   C4B74232  30.636   9.003   5.414  0.1722 -0.0019  0.0775
 6121POPC   NC374233   7.469  13.856   3.344  0.1573  0.1268 -0.1607
 6121POPC   PO474234   7.056  13.834   3.372  0.0105  0.1817 -0.2808
 6121POPC   GL174235   6.999  13.520   3.614  0.0969  0.1338  0.1021
 6121POPC   GL274236   7.251  13.400   3.671 -0.1411  0.0417 -0.0308
 6121POPC   C1A74237   6.913  13.122   3.861 -0.1306  0.0007  0.0026
 6121POPC   D2A74238   6.813  12.975   4.281  0.3062 -0.1049 -0.1257
 6121POPC   C3A74239   6.955  12.827   4.746  0.1649  0.0886  0.0588
 6121POPC   C4A74240   7.251  12.936   5.109  0.0797 -0.0318  0.0228
 6121POPC   C1B74241   7.266  13.396   4.089  0.0313  0.2620 -0.1769
 6121POPC   C2B74242   7.158  13.681   4.389  0.0925 -0.0407 -0.0813
 6121POPC   C3B74243   7.190  14.058   4.655  0.3069  0.1060  0.1090
 6121POPC   C4B74244   7.374  14.444   4.654  0.0678 -0.0458 -0.0229
 6122POPC   NC374245  17.196  17.099   4.047  0.0373 -0.0394 -0.0505
 6122POPC   PO474246  17.413  16.814   3.921  0.1243 -0.2616 -0.3237
 6122POPC   GL174247  17.454  16.760   4.268  0.1728 -0.3402 -0.0549
 6122POPC   GL274248  17.762  16.904   4.343 -0.1130 -0.3585 -0.0074
 6122POPC   C1A74249  17.454  16.409   4.595  0.0417 -0.0246  0.1864
 6122POPC   D2A74250  17.337  16.236   5.003 -0.1105  0.2474  0.1344
 6122POPC   C3A74251  16.977  16.357   5.262  0.3542  0.4446 -0.2178
 6122POPC   C4A74252  16.646  16.311   5.578  0.0570  0.1090  0.0962
 6122POPC   C1B74253  17.578  16.875   4.789 -0.3030  0.0931  0.1687
 6122POPC   C2B74254  17.513  16.674   5.185 -0.3941 -0.0233 -0.1623
 6122POPC   C3B74255  17.482  16.609   5.623 -0.2390  0.2444  0.3155
 6122POPC   C4B74256  17.362  16.329   5.937 -0.0836 -0.0796  0.0155
 6123POPC   NC374257  30.664  21.817   3.171 -0.0357  0.1969  0.1740
 6123POPC   PO474258  30.532  21.932   3.500  0.1942 -0.1601  0.0465
 6123POPC   GL174259  30.242  22.083   3.736 -0.5258 -0.1007  0.0378
 6123POPC   GL274260  30.191  21.936   3.982  0.1089 -0.2518  0.1472
 6123POPC   C1A74261  30.323  22.385   4.125 -0.2030  0.3020 -0.1809
 6123POPC   D2A74262  30.526  22.420   4.532 -0.1416  0.0888 -0.0849
 6123POPC   C3A74263  30.550  21.997   4.692  0.1796 -0.0732  0.2704
 6123POPC   C4A74264  30.519  21.557   4.877  0.0236 -0.0836  0.1112
 6123POPC   C1B74265  30.071  21.971   4.409 -0.3569 -0.1472  0.2591
 6123POPC   C2B74266  29.956  21.714   4.810 -0.1211 -0.0174 -0.1277
 6123POPC   C3B74267  29.921  21.581   5.230 -0.0489 -0.1103 -0.1370
 6123POPC   C4B74268  29.680  21.337   5.569 -0.1335 -0.2508  0.0439
 6124POPC   NC374269   7.975   8.906   3.679 -0.1342 -0.2444  0.1293
 6124POPC   PO474270   7.830   9.160   3.934 -0.1210  0.4155 -0.1211
 6124POPC   GL174271   7.685   9.356   4.307 -0.2062  0.3446 -0.0320
 6124POPC   GL274272   7.945   9.328   4.392  0.0481  0.0706 -0.1279
 6124POPC   C1A74273   7.338   9.455   4.586  0.0934 -0.1386  0.2510
 6124POPC   D2A74274   7.192   9.805   4.810 -0.0761 -0.1791  0.1889
 6124POPC   C3A74275   7.414  10.112   5.065  0.2027 -0.0688 -0.0733
 6124POPC   C4A74276   7.640  10.222   5.479 -0.2745  0.0065  0.1579
 6124POPC   C1B74277   7.808   9.240   4.789  0.2382 -0.0037  0.0336
 6124POPC   C2B74278   7.701   9.291   5.228 -0.2987 -0.0957 -0.1126
 6124POPC   C3B74279   7.894   9.651   5.429 -0.3015  0.0464  0.2244
 6124POPC   C4B74280   8.006   9.920   5.759  0.3157 -0.1417  0.4482
 6125POPC   NC374281  16.505   9.140   3.728  0.4450  0.1492 -0.1000
 6125POPC   PO474282  16.205   9.375   3.872  0.1615  0.1426 -0.0771
 6125POPC   GL174283  16.221   9.386   4.252 -0.0151 -0.0387  0.1028
 6125POPC   GL274284  16.520   9.374   4.333 -0.0725  0.0479  0.1446
 6125POPC   C1A74285  15.977   9.263   4.656  0.1627 -0.0277 -0.0321
 6125POPC   D2A74286  15.953   9.188   5.136  0.1990  0.2032  0.0359
 6125POPC   C3A74287  15.614   9.257   5.371  0.0100 -0.1814  0.0253
 6125POPC   C4A74288  15.219   9.497   5.510  0.0562 -0.4204  0.1094
 6125POPC   C1B74289  16.462   9.484   4.760  0.0911 -0.2977 -0.0544
 6125POPC   C2B74290  16.303   9.849   5.027 -0.0381  0.0081  0.0086
 6125POPC   C3B74291  15.973  10.080   5.162 -0.0506  0.2762 -0.0341
 6125POPC   C4B74292  15.885  10.148   5.626  0.0180  0.0045  0.2884
 6126POPC   NC374293  11.805  12.200   3.799  0.5350  0.1569  0.2406
 6126POPC   PO474294  11.518  12.259   3.572  0.2205  0.1964 -0.3484
 6126POPC   GL174295  11.273  12.375   3.851  0.1140  0.0151 -0.1615
 6126POPC   GL274296  11.396  12.601   3.954 -0.3580 -0.0710 -0.1168
 6126POPC   C1A74297  11.238  12.280   4.368 -0.1700 -0.0055 -0.1206
 6126POPC   D2A74298  11.410  12.445   4.813 -0.1270  0.3506  0.0440
 6126POPC   C3A74299  11.109  12.680   5.078 -0.0252  0.1203  0.0150
 6126POPC   C4A74300  11.085  12.883   5.513 -0.0643 -0.1620 -0.1853
 6126POPC   C1B74301  11.477  12.796   4.354  0.0203 -0.0333 -0.1141
 6126POPC   C2B74302  11.632  12.899   4.800 -0.2313 -0.0820 -0.1352
 6126POPC   C3B74303  11.389  13.089   5.096  0.1713  0.1958 -0.0953
 6126POPC   C4B74304  10.993  13.152   5.079 -0.0253  0.3581  0.3214
 6127POPC   NC374305  16.322  23.129   3.330  0.1434  0.1359  0.1993
 6127POPC   PO474306  15.947  23.211   3.469 -0.3001  0.2451 -0.0927
 6127POPC   GL174307  15.751  23.035   3.704  0.0647 -0.1669 -0.2914
 6127POPC   GL274308  15.737  23.219   3.881 -0.1748  0.0516 -0.0686
 6127POPC   C1A74309  15.840  22.824   4.123  0.2263 -0.1687  0.1266
 6127POPC   D2A74310  15.672  22.810   4.582 -0.1977 -0.1723  0.2551
 6127POPC   C3A74311  15.757  22.649   5.015  0.0786  0.1857  0.2572
 6127POPC   C4A74312  15.628  22.508   5.457 -0.2084 -0.1164  0.0360
 6127POPC   C1B74313  15.607  23.269   4.322 -0.2594  0.0487  0.3249
 6127POPC   C2B74314  15.664  23.306   4.778  0.2983 -0.0906 -0.0091
 6127POPC   C3B74315  15.744  23.251   5.231  0.1866  0.0955  0.0491
 6127POPC   C4B74316  15.724  23.189   5.684  0.1510  0.1040 -0.0385
 6128POPC   NC374317   8.538  11.406   3.638  0.2519 -0.0413  0.2404
 6128POPC   PO474318   8.843  11.546   3.817  0.2620  0.0641 -0.0529
 6128POPC   GL174319   9.011  11.639   4.177  0.3079  0.2238  0.1248
 6128POPC   GL274320   8.691  11.761   4.220  0.4749  0.0326 -0.0739
 6128POPC   C1A74321   9.142  11.917   4.525 -0.0033 -0.2474  0.1189
 6128POPC   D2A74322   9.043  12.364   4.551  0.0714  0.0455  0.1628
 6128POPC   C3A74323   8.609  12.627   4.520 -0.2185  0.1964  0.0479
 6128POPC   C4A74324   8.252  12.972   4.467  0.0733  0.2676  0.2349
 6128POPC   C1B74325   8.786  11.657   4.682 -0.0723 -0.0639  0.0752
 6128POPC   C2B74326   8.837  11.853   5.080  0.0145  0.0764 -0.1339
 6128POPC   C3B74327   8.836  12.032   5.509 -0.1770  0.0602  0.0540
 6128POPC   C4B74328   8.860  12.100   5.999 -0.0065 -0.0724 -0.2952
 6129POPC   NC374329  17.329  11.864   3.864 -0.3116 -0.0123 -0.0381
 6129POPC   PO474330  17.101  11.602   3.786 -0.0235  0.1577 -0.1665
 6129POPC   GL174331  16.919  11.519   4.098  0.4146  0.1169 -0.3118
 6129POPC   GL274332  17.003  11.665   4.306 -0.1458 -0.0006 -0.2462
 6129POPC   C1A74333  16.635  11.198   4.340  0.0807 -0.0368 -0.0312
 6129POPC   D2A74334  16.354  11.097   4.676  0.1583 -0.0997 -0.1877
 6129POPC   C3A74335  16.322  11.394   5.013  0.0550 -0.1510 -0.0983
 6129POPC   C4A74336  16.334  11.510   5.474  0.0608 -0.1131 -0.1667
 6129POPC   C1B74337  16.970  11.959   4.668  0.0522 -0.1633  0.3505
 6129POPC   C2B74338  17.047  12.366   4.955 -0.2527 -0.0198 -0.3035
 6129POPC   C3B74339  17.157  12.686   5.284 -0.1055 -0.1777 -0.1987
 6129POPC   C4B74340  16.992  12.714   5.712  0.0489  0.1742 -0.0663
 6130POPC   NC374341   4.257   3.234   4.237  0.0731  0.3933  0.0276
 6130POPC   PO474342   3.985   3.496   4.225  0.1230 -0.0944  0.1969
 6130POPC   GL174343   3.857   3.840   4.513 -0.0289  0.2187  0.0998
 6130POPC   GL274344   3.578   4.004   4.646  0.0751  0.1904 -0.2406
 6130POPC   C1A74345   3.994   3.983   4.914 -0.0335  0.0533  0.2462
 6130POPC   D2A74346   4.265   3.992   5.286 -0.1979  0.1565  0.0600
 6130POPC   C3A74347   4.165   3.651   5.574 -0.0946 -0.0268 -0.1696
 6130POPC   C4A74348   4.331   3.600   5.954 -0.2780  0.2162  0.1024
 6130POPC   C1B74349   3.511   3.654   4.977  0.2400 -0.0607 -0.0627
 6130POPC   C2B74350   3.309   3.270   5.110  0.0318 -0.0551  0.1545
 6130POPC   C3B74351   3.240   3.108   5.523 -0.0648  0.2225  0.0890
 6130POPC   C4B74352   3.089   3.010   5.971  0.2149 -0.2416  0.0539
 6131POPC   NC374353  16.828  23.131   3.481 -0.2746 -0.2374 -0.1973
 6131POPC   PO474354  16.772  22.852   3.260 -0.0503  0.0235  0.2418
 6131POPC   GL174355  16.666  22.714   3.565 -0.0562 -0.0497  0.4570
 6131POPC   GL274356  16.807  22.592   3.731  0.1125  0.0646 -0.0022
 6131POPC   C1A74357  16.402  22.930   3.871  0.0603  0.1013 -0.0464
 6131POPC   D2A74358  16.288  22.714   4.288 -0.1609  0.1046  0.1565
 6131POPC   C3A74359  16.170  22.506   4.701  0.0355  0.1433  0.3062
 6131POPC   C4A74360  16.295  22.101   4.883  0.1242  0.0576  0.0429
 6131POPC   C1B74361  16.878  22.532   4.226  0.0847  0.2215  0.0486
 6131POPC   C2B74362  16.746  22.518   4.682 -0.0908 -0.2374  0.3855
 6131POPC   C3B74363  16.456  22.630   5.045  0.0943 -0.1088 -0.4682
 6131POPC   C4B74364  16.108  22.363   5.279 -0.4262  0.2757  0.2414
 6132POPC   NC374365  17.579  13.897   3.362 -0.0093 -0.1174 -0.0333
 6132POPC   PO474366  17.339  13.593   3.555 -0.2307  0.0586  0.2335
 6132POPC   GL174367  17.568  13.624   3.892 -0.1582  0.3807 -0.0138
 6132POPC   GL274368  17.476  13.484   4.119 -0.1013  0.2330 -0.1319
 6132POPC   C1A74369  17.753  13.861   4.270 -0.0026  0.3304  0.0411
 6132POPC   D2A74370  17.899  13.815   4.710  0.3000 -0.0540  0.2914
 6132POPC   C3A74371  17.919  13.926   5.154  0.2578  0.2440 -0.0126
 6132POPC   C4A74372  17.812  13.899   5.625 -0.2638 -0.0816 -0.0769
 6132POPC   C1B74373  17.683  13.296   4.488  0.0867 -0.1051 -0.1002
 6132POPC   C2B74374  18.032  13.205   4.773 -0.0189  0.0755 -0.0713
 6132POPC   C3B74375  18.033  13.106   5.207 -0.2239 -0.3879 -0.0889
 6132POPC   C4B74376  18.021  12.907   5.648  0.1497  0.0752  0.0986
 6133POPC   NC374377  24.432  16.142   4.251  0.0093 -0.1433 -0.1890
 6133POPC   PO474378  24.595  16.296   4.521  0.1408 -0.0051  0.1474
 6133POPC   GL174379  24.382  16.448   4.803 -0.0246  0.0695  0.0780
 6133POPC   GL274380  24.496  16.286   5.037  0.0042  0.0934  0.0419
 6133POPC   C1A74381  24.004  16.180   5.001 -0.2387  0.3680  0.1377
 6133POPC   D2A74382  23.876  16.091   5.447 -0.1427 -0.0391  0.1138
 6133POPC   C3A74383  24.378  16.020   5.554  0.1673 -0.2087  0.2090
 6133POPC   C4A74384  24.737  16.250   5.583  0.2336 -0.1429 -0.1416
 6133POPC   C1B74385  24.256  16.504   5.378 -0.0437  0.1838 -0.0113
 6133POPC   C2B74386  24.220  16.424   5.859 -0.0774  0.1191 -0.2967
 6133POPC   C3B74387  24.135  16.770   6.234  0.0574 -0.0209  0.2700
 6133POPC   C4B74388  24.239  17.114   6.493  0.1069 -0.1257 -0.0554
 6134POPC   NC374389  12.032   2.536   3.808  0.1256 -0.1474 -0.2015
 6134POPC   PO474390  11.705   2.720   3.724  0.0448  0.2384  0.1305
 6134POPC   GL174391  11.919   2.935   4.000  0.0590 -0.3240  0.1546
 6134POPC   GL274392  11.703   2.975   4.234  0.5445 -0.3117 -0.0225
 6134POPC   C1A74393  12.301   2.923   4.241  0.0844  0.1890  0.0481
 6134POPC   D2A74394  12.654   2.763   4.377  0.1220 -0.0786  0.4980
 6134POPC   C3A74395  12.727   2.772   4.820 -0.5248  0.0811  0.1831
 6134POPC   C4A74396  13.011   2.887   5.167  0.0144 -0.1950 -0.1558
 6134POPC   C1B74397  11.573   3.167   4.576  0.1057  0.3264 -0.0458
 6134POPC   C2B74398  11.378   3.455   4.895 -0.2309  0.0080  0.2765
 6134POPC   C3B74399  11.268   3.568   5.293  0.0443  0.1481 -0.0114
 6134POPC   C4B74400  11.523   3.375   5.652 -0.0217  0.1892 -0.3767
 6135POPC   NC374401  24.040   2.686   3.910 -0.3118  0.1356 -0.0279
 6135POPC   PO474402  24.106   2.339   3.789  0.2071  0.0323 -0.0054
 6135POPC   GL174403  24.283   2.368   4.132  0.0082  0.2693  0.0159
 6135POPC   GL274404  24.495   2.144   4.013 -0.0547  0.2686 -0.2453
 6135POPC   C1A74405  24.376   2.358   4.580 -0.1764 -0.2048 -0.0227
 6135POPC   D2A74406  24.303   2.164   5.002 -0.2631 -0.0267  0.2196
 6135POPC   C3A74407  24.521   1.979   5.343  0.2786 -0.2254 -0.1386
 6135POPC   C4A74408  24.533   2.088   5.764 -0.0944 -0.0817 -0.0330
 6135POPC   C1B74409  24.329   1.896   4.383 -0.0126 -0.0634  0.1661
 6135POPC   C2B74410  24.380   1.715   4.818 -0.0677 -0.0635  0.1673
 6135POPC   C3B74411  24.500   1.341   5.083 -0.1701  0.1744  0.1955
 6135POPC   C4B74412  24.423   0.886   5.097  0.0852  0.1405 -0.0292
 6136POPC   NC374413  26.409   6.925   3.717  0.0614  0.1984  0.0609
 6136POPC   PO474414  26.715   7.144   3.902  0.3714  0.0779 -0.0700
 6136POPC   GL174415  26.668   7.173   4.264  0.4474 -0.0785 -0.1856
 6136POPC   GL274416  26.425   6.944   4.268  0.0559 -0.1171 -0.2451
 6136POPC   C1A74417  26.845   7.517   4.523 -0.2029  0.3371  0.3742
 6136POPC   D2A74418  27.128   7.582   4.893 -0.1084  0.0527 -0.1946
 6136POPC   C3A74419  27.430   7.335   5.091 -0.1208 -0.0924 -0.1077
 6136POPC   C4A74420  27.472   7.457   5.546 -0.2079  0.1845 -0.0714
 6136POPC   C1B74421  26.061   6.941   4.538  0.1439  0.1873 -0.1374
 6136POPC   C2B74422  25.726   7.126   4.807 -0.4338  0.3650 -0.0643
 6136POPC   C3B74423  25.681   7.325   5.264  0.1245 -0.1264 -0.0073
 6136POPC   C4B74424  25.644   7.535   5.739  0.2388 -0.0522  0.0203
 6137POPC   NC374425  28.193   2.969   3.964  0.0634  0.1158 -0.1231
 6137POPC   PO474426  27.816   2.780   3.976 -0.0299  0.1533 -0.4590
 6137POPC   GL174427  27.849   2.713   4.367 -0.1449  0.1281 -0.0431
 6137POPC   GL274428  27.619   2.867   4.459  0.0190 -0.0403  0.1804
 6137POPC   C1A74429  28.105   2.862   4.748  0.2407 -0.3120  0.0107
 6137POPC   D2A74430  28.401   3.092   5.015 -0.3938 -0.0169  0.2234
 6137POPC   C3A74431  28.352   3.241   5.451  0.1070 -0.0316 -0.1122
 6137POPC   C4A74432  28.407   3.054   5.868  0.0165  0.0324 -0.2131
 6137POPC   C1B74433  27.612   2.748   4.888 -0.0531 -0.0271 -0.1056
 6137POPC   C2B74434  27.879   2.909   5.235  0.0922  0.2345  0.0297
 6137POPC   C3B74435  27.939   2.775   5.698  0.1306 -0.1546  0.0015
 6137POPC   C4B74436  27.631   2.567   5.968  0.1988 -0.2190 -0.1056
 6138POPC   NC374437  12.252  25.526   3.575  0.0411 -0.0525 -0.1461
 6138POPC   PO474438  12.229  25.874   3.740  0.3325 -0.0254 -0.0634
 6138POPC   GL174439  12.007  25.658   3.913 -0.1119  0.0419 -0.0137
 6138POPC   GL274440  11.820  25.800   4.019 -0.1564  0.0100 -0.0640
 6138POPC   C1A74441  11.982  25.390   4.285  0.4420 -0.1074  0.0538
 6138POPC   D2A74442  12.065  25.251   4.671 -0.0358  0.3876 -0.1250
 6138POPC   C3A74443  11.731  25.203   5.062  0.0098  0.0059 -0.1783
 6138POPC   C4A74444  11.751  24.967   5.434 -0.0716  0.1535  0.0563
 6138POPC   C1B74445  11.916  25.878   4.463  0.0641  0.3645  0.2275
 6138POPC   C2B74446  11.861  25.699   4.968  0.2843 -0.1696  0.1128
 6138POPC   C3B74447  11.831  25.564   5.434 -0.1156 -0.3018  0.4599
 6138POPC   C4B74448  11.420  25.623   5.725  0.0391 -0.0008  0.2548
 6139POPC   NC374449  24.305  23.022   3.311 -0.1330 -0.0050  0.1045
 6139POPC   PO474450  24.244  22.744   3.583 -0.2182  0.2706 -0.2603
 6139POPC   GL174451  24.315  22.836   3.948  0.0393  0.0664  0.2262
 6139POPC   GL274452  24.545  23.022   3.905 -0.0195 -0.1488 -0.3590
 6139POPC   C1A74453  23.992  22.791   4.312  0.1454  0.1491  0.0617
 6139POPC   D2A74454  23.591  22.483   4.324  0.0339  0.1489  0.2361
 6139POPC   C3A74455  23.727  22.349   4.737  0.2694  0.3232 -0.0022
 6139POPC   C4A74456  23.883  22.628   5.079  0.0737  0.1129  0.1956
 6139POPC   C1B74457  24.471  22.985   4.377 -0.0681  0.2604  0.2889
 6139POPC   C2B74458  24.284  22.872   4.747 -0.2500  0.0823  0.0757
 6139POPC   C3B74459  24.427  22.953   5.181  0.2762 -0.0605 -0.1671
 6139POPC   C4B74460  24.531  23.000   5.673 -0.0705 -0.1820 -0.0073
 6140POPC   NC374461  22.744  17.889   4.092 -0.0128 -0.2062 -0.2295
 6140POPC   PO474462  23.119  17.969   4.204 -0.3607  0.2612  0.3899
 6140POPC   GL174463  23.051  17.975   4.577 -0.3720 -0.0275 -0.0013
 6140POPC   GL274464  22.770  18.118   4.531  0.0666  0.2476  0.1815
 6140POPC   C1A74465  22.898  17.666   4.940  0.3278  0.1603  0.0125
 6140POPC   D2A74466  22.589  17.740   5.234  0.0010 -0.1596  0.1570
 6140POPC   C3A74467  22.192  17.879   5.350 -0.2411  0.1895  0.0928
 6140POPC   C4A74468  21.776  17.742   5.139  0.1174 -0.2015 -0.1242
 6140POPC   C1B74469  22.543  17.745   4.622  0.0797  0.1079  0.2851
 6140POPC   C2B74470  22.194  17.705   4.889 -0.3351  0.0763 -0.0957
 6140POPC   C3B74471  22.041  17.356   5.091 -0.1561 -0.0801 -0.0887
 6140POPC   C4B74472  22.192  16.938   5.083 -0.2345  0.1378  0.2980
 6141POPC   NC374473   2.555   7.176   3.616  0.3294 -0.2494  0.1724
 6141POPC   PO474474   2.941   7.119   3.694 -0.3485 -0.0529 -0.0613
 6141POPC   GL174475   3.291   7.278   3.852  0.2744 -0.2856 -0.1120
 6141POPC   GL274476   3.117   7.425   4.035 -0.0487  0.2539 -0.0071
 6141POPC   C1A74477   3.571   7.191   4.260 -0.0355  0.0368 -0.1053
 6141POPC   D2A74478   3.866   7.218   4.618  0.1786 -0.0418 -0.0607
 6141POPC   C3A74479   4.004   7.317   5.040 -0.0146 -0.2556  0.1005
 6141POPC   C4A74480   4.286   7.142   5.352 -0.2354  0.1054  0.2214
 6141POPC   C1B74481   2.804   7.575   4.336 -0.0449  0.1136  0.1745
 6141POPC   C2B74482   2.625   7.420   4.650 -0.0570 -0.2125 -0.2003
 6141POPC   C3B74483   2.405   7.401   5.051  0.0980 -0.2362 -0.3068
 6141POPC   C4B74484   2.038   7.189   5.304  0.1411  0.1634  0.3437
 6142POPC   NC374485  16.612  13.635   3.590 -0.2299  0.1987 -0.0655
 6142POPC   PO474486  16.942  13.628   3.863 -0.3945  0.2905  0.1575
 6142POPC   GL174487  16.878  13.648   4.290 -0.0111 -0.0829  0.3225
 6142POPC   GL274488  16.594  13.630   4.236  0.2546 -0.1802 -0.1426
 6142POPC   C1A74489  16.763  13.294   4.584  0.1752  0.1236 -0.0747
 6142POPC   D2A74490  16.833  13.004   4.965  0.1132  0.0076  0.0334
 6142POPC   C3A74491  16.647  12.851   5.360  0.0615 -0.1658 -0.1794
 6142POPC   C4A74492  16.248  12.625   5.445 -0.2929  0.2612  0.1141
 6142POPC   C1B74493  16.450  13.695   4.640 -0.1831  0.2199  0.2085
 6142POPC   C2B74494  16.458  13.693   5.051 -0.0072  0.2049 -0.3159
 6142POPC   C3B74495  16.678  13.747   5.502  0.5519 -0.1708 -0.0115
 6142POPC   C4B74496  17.000  13.947   5.726  0.1652  0.0823 -0.1243
 6143POPC   NC374497  13.701  29.936   3.257  0.5627 -0.2570 -0.0859
 6143POPC   PO474498  13.571  30.056   3.582  0.0362 -0.1758  0.1327
 6143POPC   GL174499  13.686  30.093   4.055 -0.1602  0.2164  0.1640
 6143POPC   GL274500  13.634  29.831   4.067 -0.0153  0.0636 -0.1245
 6143POPC   C1A74501  14.053  29.897   4.342  0.0904 -0.1081 -0.0580
 6143POPC   D2A74502  14.123  29.677   4.699 -0.1480  0.1182 -0.3057
 6143POPC   C3A74503  14.002  29.648   5.186 -0.5428  0.0517 -0.1694
 6143POPC   C4A74504  14.191  29.705   5.636  0.0296 -0.4772  0.1236
 6143POPC   C1B74505  13.617  29.602   4.477 -0.3074  0.0670 -0.0557
 6143POPC   C2B74506  13.617  29.582   4.910  0.0209 -0.1149 -0.0447
 6143POPC   C3B74507  13.364  29.423   5.317 -0.3171  0.1572 -0.3222
 6143POPC   C4B74508  13.144  29.561   5.661 -0.0499 -0.0301  0.1098
 6144POPC   NC374509  21.901  22.926   3.423 -0.2255  0.1346 -0.0043
 6144POPC   PO474510  21.729  22.630   3.655  0.0769  0.2090 -0.1086
 6144POPC   GL174511  21.911  22.557   4.008  0.0320  0.2223 -0.2342
 6144POPC   GL274512  22.180  22.680   3.985  0.3325  0.1072 -0.3751
 6144POPC   C1A74513  22.029  22.609   4.433 -0.0601  0.0467  0.1967
 6144POPC   D2A74514  22.208  22.594   4.929  0.2462  0.1637 -0.0280
 6144POPC   C3A74515  22.125  22.807   5.306  0.0355 -0.3382 -0.1236
 6144POPC   C4A74516  21.815  23.095   5.502  0.0107  0.1739  0.0758
 6144POPC   C1B74517  22.498  22.659   4.296 -0.0309 -0.0467  0.0026
 6144POPC   C2B74518  22.570  22.934   4.632  0.1128  0.1771 -0.1805
 6144POPC   C3B74519  22.479  23.042   5.055  0.1521 -0.4718 -0.2045
 6144POPC   C4B74520  22.360  23.463   5.224  0.1000  0.1879  0.1966
 6145POPC   NC374521   3.249  12.796   3.976 -0.1178 -0.0566 -0.3751
 6145POPC   PO474522   3.472  13.031   3.775  0.0349  0.0215 -0.0868
 6145POPC   GL174523   3.674  12.824   4.126 -0.1513 -0.2548 -0.0624
 6145POPC   GL274524   3.503  12.838   4.459  0.2837  0.1073 -0.2000
 6145POPC   C1A74525   3.904  12.555   4.363 -0.0293 -0.1437  0.0209
 6145POPC   D2A74526   4.166  12.428   4.722  0.2247  0.1151 -0.2742
 6145POPC   C3A74527   3.957  12.205   4.954 -0.2296 -0.0888 -0.0926
 6145POPC   C4A74528   3.834  12.001   5.376 -0.1061  0.2024  0.5032
 6145POPC   C1B74529   3.658  12.777   4.873  0.0208 -0.0692 -0.0411
 6145POPC   C2B74530   3.901  12.630   5.236  0.1750 -0.1868  0.0185
 6145POPC   C3B74531   4.099  12.429   5.552  0.0238  0.3058 -0.1071
 6145POPC   C4B74532   4.443  12.257   5.721  0.1769 -0.1180  0.1483
 6146POPC   NC374533   4.007  15.778   3.734  0.0964  0.0528  0.0502
 6146POPC   PO474534   4.337  15.994   3.790  0.1835 -0.1085 -0.0930
 6146POPC   GL174535   4.182  16.294   4.043 -0.3288  0.1844  0.1989
 6146POPC   GL274536   4.080  16.026   4.222 -0.1711 -0.0237  0.0647
 6146POPC   C1A74537   3.815  16.527   4.103  0.4483 -0.2428  0.0659
 6146POPC   D2A74538   3.455  16.842   4.100  0.0903  0.0878 -0.0082
 6146POPC   C3A74539   3.176  16.949   4.485  0.0318 -0.0887  0.3312
 6146POPC   C4A74540   3.090  16.635   4.902 -0.1222 -0.0326  0.1104
 6146POPC   C1B74541   3.989  15.861   4.680  0.0989 -0.1249  0.1020
 6146POPC   C2B74542   3.917  16.048   5.090 -0.0091  0.3435  0.1282
 6146POPC   C3B74543   4.193  16.328   5.294 -0.0753  0.0686 -0.1197
 6146POPC   C4B74544   4.384  16.488   5.700  0.2527  0.1097 -0.2552
 6147POPC   NC374545  16.630   7.122   4.091 -0.1508  0.3109  0.3584
 6147POPC   PO474546  16.954   7.286   4.157  0.0811  0.0967 -0.0403
 6147POPC   GL174547  16.985   7.081   4.445  0.1691  0.0373  0.2055
 6147POPC   GL274548  16.792   6.832   4.502 -0.0250  0.0027  0.0282
 6147POPC   C1A74549  17.119   7.003   4.909 -0.1383  0.0791  0.0635
 6147POPC   D2A74550  17.125   6.740   5.277 -0.1733 -0.1530  0.1894
 6147POPC   C3A74551  16.755   6.864   5.469  0.1183 -0.1337  0.0429
 6147POPC   C4A74552  16.501   7.237   5.655  0.0023 -0.1560 -0.0732
 6147POPC   C1B74553  16.869   6.510   4.789  0.2879  0.1753 -0.0991
 6147POPC   C2B74554  16.725   6.365   5.184  0.0116 -0.4400  0.0407
 6147POPC   C3B74555  16.487   6.458   5.560 -0.1277  0.0432 -0.3004
 6147POPC   C4B74556  16.277   6.442   6.011  0.0106 -0.1606 -0.3519
 6148POPC   NC374557   8.254  22.973   3.693 -0.2853 -0.3116 -0.0884
 6148POPC   PO474558   8.106  22.606   3.656  0.3030  0.1195  0.1561
 6148POPC   GL174559   7.925  22.667   3.990  0.0207 -0.1980  0.1440
 6148POPC   GL274560   7.914  22.905   4.068  0.0618 -0.4372 -0.1009
 6148POPC   C1A74561   8.134  22.615   4.402  0.1238  0.1338  0.0458
 6148POPC   D2A74562   8.094  22.860   4.795 -0.1510 -0.0301  0.1318
 6148POPC   C3A74563   7.995  22.692   5.193 -0.1073 -0.0061  0.0727
 6148POPC   C4A74564   7.876  22.399   5.543  0.0510  0.2474  0.0658
 6148POPC   C1B74565   7.694  22.920   4.475  0.0112  0.4501  0.2868
 6148POPC   C2B74566   7.630  22.956   4.932 -0.0158  0.0951 -0.1635
 6148POPC   C3B74567   7.596  23.319   5.239 -0.0505  0.4453  0.2105
 6148POPC   C4B74568   7.927  23.587   5.442 -0.0185  0.0442 -0.1943
 6149POPC   NC374569   3.480  30.931   3.479 -0.0020  0.0016 -0.0357
 6149POPC   PO474570   3.680  30.945   3.828  0.1044 -0.0930  0.1538
 6149POPC   GL174571   3.338  31.063   4.136 -0.1072  0.1188 -0.0171
 6149POPC   GL274572   3.341  30.849   4.370 -0.0618  0.0404 -0.1845
 6149POPC   C1A74573   3.210  31.284   4.554  0.0116  0.0899 -0.1571
 6149POPC   D2A74574   3.278  31.294   4.952 -0.2058 -0.0538  0.3896
 6149POPC   C3A74575   3.553  31.011   5.239  0.1415  0.0494 -0.0719
 6149POPC   C4A74576   3.956  30.881   5.395 -0.4006 -0.1609  0.1548
 6149POPC   C1B74577   3.486  30.474   4.649  0.3179  0.1448  0.1546
 6149POPC   C2B74578   3.566  30.474   5.081  0.0666 -0.2765  0.3070
 6149POPC   C3B74579   3.425  30.607   5.515 -0.2420 -0.0146  0.1885
 6149POPC   C4B74580   3.579  30.854   5.870  0.2015  0.0278 -0.1933
 6150POPC   NC374581  19.596  13.486   3.047  0.1134 -0.2225 -0.2812
 6150POPC   PO474582  19.474  13.189   3.287 -0.2821 -0.0347 -0.1566
 6150POPC   GL174583  19.444  13.334   3.629  0.2583  0.1660  0.2935
 6150POPC   GL274584  19.554  13.574   3.593  0.2344 -0.0346  0.0752
 6150POPC   C1A74585  19.749  13.349   4.008 -0.0873  0.0199  0.0197
 6150POPC   D2A74586  20.024  13.377   4.381 -0.0110  0.0481 -0.5948
 6150POPC   C3A74587  20.072  13.049   4.738 -0.2883  0.2654  0.3120
 6150POPC   C4A74588  20.149  12.853   5.153  0.0325 -0.0149  0.2016
 6150POPC   C1B74589  19.384  13.864   3.929  0.0774 -0.0255  0.2645
 6150POPC   C2B74590  19.311  13.880   4.406  0.1734  0.3608 -0.0105
 6150POPC   C3B74591  19.310  13.700   4.801 -0.0745  0.1761  0.1059
 6150POPC   C4B74592  19.138  13.475   5.155 -0.0828 -0.1016 -0.0656
 6151POPC   NC374593  24.516  30.516   4.100 -0.2372  0.1990  0.1699
 6151POPC   PO474594  24.236  30.439   3.848 -0.1382 -0.1755  0.2005
 6151POPC   GL174595  24.017  30.529   4.193  0.2377  0.0854  0.0614
 6151POPC   GL274596  24.134  30.304   4.378 -0.0187  0.1997 -0.0817
 6151POPC   C1A74597  24.327  30.848   4.394  0.2436  0.1172  0.1679
 6151POPC   D2A74598  24.673  31.082   4.551 -0.3240  0.1845 -0.0677
 6151POPC   C3A74599  24.869  31.142   4.948 -0.0595  0.1242  0.1464
 6151POPC   C4A74600  25.005  31.260   5.380  0.1929  0.0669  0.0547
 6151POPC   C1B74601  24.361  30.419   4.756 -0.2598 -0.2361 -0.1221
 6151POPC   C2B74602  24.304  30.660   5.191 -0.0190  0.1130  0.1736
 6151POPC   C3B74603  24.528  31.003   5.371 -0.0736  0.0541 -0.0966
 6151POPC   C4B74604  24.506  31.122   5.813  0.1008  0.0556  0.0407
 6152POPC   NC374605  10.014  16.778   4.003  0.0640 -0.1000  0.0443
 6152POPC   PO474606  10.119  17.103   3.857 -0.1417 -0.2208  0.3399
 6152POPC   GL174607  10.051  17.218   4.336  0.0189  0.4429  0.3423
 6152POPC   GL274608  10.299  17.071   4.338 -0.2685  0.2389 -0.0217
 6152POPC   C1A74609   9.991  16.821   4.649 -0.2016 -0.1465  0.2066
 6152POPC   D2A74610  10.104  16.563   5.042 -0.1311  0.0632  0.0427
 6152POPC   C3A74611  10.506  16.384   5.044  0.0631  0.0144  0.1065
 6152POPC   C4A74612  10.834  16.309   5.287 -0.1877 -0.0369  0.0817
 6152POPC   C1B74613  10.270  17.223   4.766  0.1539 -0.0683  0.0589
 6152POPC   C2B74614  10.368  17.422   5.154  0.4150 -0.0031  0.0387
 6152POPC   C3B74615  10.437  17.333   5.612 -0.0885  0.0873  0.1900
 6152POPC   C4B74616  10.691  17.334   6.009  0.0977 -0.0238  0.0245
 6153POPC   NC374617   7.239  31.561   3.797  0.1321 -0.0368 -0.0668
 6153POPC   PO474618   7.308  31.940   3.908 -0.0043 -0.2521  0.1557
 6153POPC   GL174619   7.214  31.941   4.348 -0.1366  0.3064  0.0527
 6153POPC   GL274620   6.996  32.163   4.377 -0.2502  0.0941 -0.0114
 6153POPC   C1A74621   7.149  31.883   4.811 -0.0675 -0.0240  0.0406
 6153POPC   D2A74622   7.154  32.023   5.217  0.0421 -0.0541  0.1156
 6153POPC   C3A74623   7.112  31.795   5.636 -0.0104 -0.3173 -0.0993
 6153POPC   C4A74624   6.952  31.545   6.022 -0.1075 -0.0133  0.0540
 6153POPC   C1B74625   6.788  32.244   4.758  0.0781 -0.2677 -0.0830
 6153POPC   C2B74626   6.679  32.279   5.196  0.0227 -0.0944 -0.2532
 6153POPC   C3B74627   6.325  32.469   5.482 -0.2543 -0.4781  0.1210
 6153POPC   C4B74628   6.096  32.863   5.543 -0.1040 -0.0148 -0.1463
 6154POPC   NC374629  19.020   5.476   2.582  0.4553  0.1763  0.1055
 6154POPC   PO474630  19.029   5.718   2.890 -0.1278  0.1018  0.3286
 6154POPC   GL174631  18.675   5.561   2.974  0.0286 -0.0843  0.3058
 6154POPC   GL274632  18.573   5.794   3.039 -0.2436 -0.1847  0.3526
 6154POPC   C1A74633  18.598   5.113   2.783  0.0964 -0.0588  0.1355
 6154POPC   D2A74634  18.525   4.726   2.544 -0.1258  0.3811  0.0914
 6154POPC   C3A74635  18.059   4.651   2.511 -0.0125  0.0738  0.0483
 6154POPC   C4A74636  17.668   4.554   2.498  0.1228 -0.0414 -0.2631
 6154POPC   C1B74637  18.271   5.761   2.679  0.0676 -0.0334 -0.5194
 6154POPC   C2B74638  17.877   5.564   2.684 -0.0932  0.1270  0.3538
 6154POPC   C3B74639  17.440   5.513   2.695 -0.0357 -0.0846  0.0264
 6154POPC   C4B74640  17.143   5.169   2.801  0.3064 -0.1129  0.0576
 6155POPC   NC374641   8.628  29.301   3.457 -0.1504 -0.1876 -0.1369
 6155POPC   PO474642   8.479  29.579   3.702 -0.2200  0.2032 -0.1670
 6155POPC   GL174643   8.461  29.490   4.091 -0.0588 -0.0925 -0.2797
 6155POPC   GL274644   8.250  29.676   4.204 -0.0702  0.0607  0.1469
 6155POPC   C1A74645   8.810  29.488   4.450  0.0728 -0.1124  0.0562
 6155POPC   D2A74646   8.897  29.347   4.885  0.1131  0.2649 -0.1645
 6155POPC   C3A74647   8.908  29.652   5.270 -0.0672  0.1921 -0.1990
 6155POPC   C4A74648   8.858  29.988   5.532 -0.0750 -0.0965 -0.1311
 6155POPC   C1B74649   8.134  29.922   4.586  0.1133 -0.0893 -0.0494
 6155POPC   C2B74650   7.894  29.932   5.042  0.0368  0.1061  0.1675
 6155POPC   C3B74651   7.860  30.190   5.470 -0.2195 -0.3625 -0.0097
 6155POPC   C4B74652   8.013  30.113   5.928  0.0229  0.3826  0.3114
 6156POPC   NC374653  15.499  28.739   3.557  0.3146  0.1301  0.0243
 6156POPC   PO474654  15.752  28.505   3.324 -0.0093  0.2094 -0.2798
 6156POPC   GL174655  15.991  28.396   3.567 -0.0432  0.2564  0.2904
 6156POPC   GL274656  15.816  28.461   3.807 -0.0803 -0.0474 -0.0830
 6156POPC   C1A74657  16.327  28.428   3.944  0.0768  0.3735 -0.1028
 6156POPC   D2A74658  16.294  28.495   4.394 -0.0045  0.0098  0.1003
 6156POPC   C3A74659  16.275  28.805   4.776 -0.1627 -0.0939 -0.0450
 6156POPC   C4A74660  16.132  29.026   5.146 -0.1220 -0.0381  0.2300
 6156POPC   C1B74661  15.910  28.271   4.214 -0.2830  0.0190  0.1512
 6156POPC   C2B74662  15.776  27.913   4.549 -0.0321  0.0359 -0.0161
 6156POPC   C3B74663  15.963  27.492   4.555  0.0955 -0.1485 -0.4414
 6156POPC   C4B74664  16.288  27.328   4.852 -0.1114 -0.0651  0.0914
 6157POPC   NC374665  13.467  21.740   3.879  0.1024  0.4380  0.0246
 6157POPC   PO474666  13.186  21.977   3.676  0.0026  0.2347 -0.1628
 6157POPC   GL174667  12.985  22.082   4.049 -0.2372  0.0609  0.1856
 6157POPC   GL274668  12.843  21.869   4.091  0.3550 -0.0599  0.4268
 6157POPC   C1A74669  13.071  22.047   4.527  0.0829  0.2162  0.2668
 6157POPC   D2A74670  12.951  21.911   4.940 -0.0744 -0.0163  0.0178
 6157POPC   C3A74671  12.772  21.958   5.360  0.0852  0.1215  0.0911
 6157POPC   C4A74672  12.935  21.782   5.821  0.1327  0.1254  0.2218
 6157POPC   C1B74673  12.576  21.793   4.502  0.0388 -0.2811 -0.3922
 6157POPC   C2B74674  12.493  21.612   4.983 -0.0046 -0.0503  0.0217
 6157POPC   C3B74675  12.340  21.153   5.027  0.1444  0.3588 -0.0699
 6157POPC   C4B74676  12.051  20.850   5.238 -0.0817 -0.1074 -0.1543
 6158POPC   NC374677  28.237  15.588   3.351 -0.5051 -0.1589 -0.2251
 6158POPC   PO474678  28.419  15.499   3.683  0.0638  0.2160  0.1902
 6158POPC   GL174679  28.394  15.287   4.090  0.0543  0.4720 -0.3986
 6158POPC   GL274680  28.083  15.396   4.221 -0.1420  0.0490 -0.1096
 6158POPC   C1A74681  28.638  15.422   4.475 -0.3165 -0.0775  0.0195
 6158POPC   D2A74682  28.978  15.438   4.719  0.1676  0.2112  0.2787
 6158POPC   C3A74683  29.162  15.054   4.922  0.0191  0.0839 -0.0426
 6158POPC   C4A74684  29.216  14.605   4.949  0.2614 -0.0918 -0.0882
 6158POPC   C1B74685  28.193  15.637   4.612  0.0517  0.3775  0.1731
 6158POPC   C2B74686  28.496  15.546   4.936  0.0938 -0.0472  0.1735
 6158POPC   C3B74687  28.751  15.337   5.250  0.2902  0.0056 -0.1813
 6158POPC   C4B74688  28.889  15.383   5.673 -0.1209 -0.1143 -0.3791
 6159POPC   NC374689   4.634  15.618   4.163  0.0738 -0.0801 -0.0288
 6159POPC   PO474690   4.231  15.569   4.139 -0.2529 -0.4622 -0.0967
 6159POPC   GL174691   4.254  15.188   4.344 -0.2169  0.0101 -0.3330
 6159POPC   GL274692   4.408  15.323   4.555 -0.1433 -0.0814  0.1589
 6159POPC   C1A74693   4.227  14.912   4.712  0.3364 -0.0202  0.1553
 6159POPC   D2A74694   4.341  14.482   4.877 -0.1243 -0.1952 -0.1944
 6159POPC   C3A74695   4.721  14.287   5.103 -0.3119  0.3234  0.2697
 6159POPC   C4A74696   5.052  14.091   5.473  0.1938 -0.0810  0.0327
 6159POPC   C1B74697   4.421  15.518   4.960 -0.1168  0.0310  0.3250
 6159POPC   C2B74698   4.338  15.802   5.269  0.2975  0.1002  0.6242
 6159POPC   C3B74699   4.241  15.834   5.740 -0.0325  0.2443 -0.1360
 6159POPC   C4B74700   4.398  15.817   6.115  0.0621  0.4347 -0.3876
 6160POPC   NC374701  15.554  17.328   3.953 -0.0031  0.0958 -0.1038
 6160POPC   PO474702  15.595  16.940   3.970 -0.2707  0.4859  0.0398
 6160POPC   GL174703  15.588  16.999   4.272 -0.1153  0.5059 -0.2878
 6160POPC   GL274704  15.790  17.075   4.420  0.0736  0.1991 -0.0625
 6160POPC   C1A74705  15.597  16.625   4.543  0.2857  0.1891 -0.1741
 6160POPC   D2A74706  15.885  16.485   4.951  0.2474 -0.3320 -0.1609
 6160POPC   C3A74707  15.758  16.350   5.373 -0.0186  0.1016  0.1328
 6160POPC   C4A74708  15.790  16.343   5.862  0.0114  0.2676 -0.3098
 6160POPC   C1B74709  15.854  16.992   4.830 -0.0071 -0.2740  0.1817
 6160POPC   C2B74710  16.012  16.853   5.263 -0.2231 -0.1042 -0.0508
 6160POPC   C3B74711  16.175  16.448   5.528 -0.2039 -0.1066  0.0072
 6160POPC   C4B74712  16.215  16.078   5.839 -0.3082 -0.0646 -0.0199
 6161POPC   NC374713   8.527  20.420   3.753 -0.1555  0.2867 -0.0891
 6161POPC   PO474714   8.248  20.659   3.619  0.0135  0.1745  0.0473
 6161POPC   GL174715   8.030  20.751   4.021  0.0935  0.0558  0.3319
 6161POPC   GL274716   7.720  20.710   4.053 -0.1130 -0.3190 -0.3503
 6161POPC   C1A74717   8.097  20.706   4.451 -0.2148  0.3171  0.0303
 6161POPC   D2A74718   7.759  20.622   4.802  0.0380  0.0852  0.3779
 6161POPC   C3A74719   7.639  20.960   5.114 -0.3401  0.2419  0.4003
 6161POPC   C4A74720   7.651  20.958   5.644 -0.1395 -0.0916 -0.0360
 6161POPC   C1B74721   7.497  20.813   4.454 -0.0748  0.0443  0.3956
 6161POPC   C2B74722   7.374  21.126   4.735  0.0799  0.3061 -0.0118
 6161POPC   C3B74723   7.300  21.358   5.149 -0.1913  0.0625  0.1653
 6161POPC   C4B74724   7.439  21.559   5.519 -0.1695  0.0426 -0.1022
 6162POPC   NC374725  17.501   1.709   3.808 -0.0794  0.0816  0.0016
 6162POPC   PO474726  17.784   1.955   3.755  0.0285 -0.0947  0.0025
 6162POPC   GL174727  17.757   1.961   4.150  0.2189 -0.1405 -0.1327
 6162POPC   GL274728  17.461   2.066   4.170 -0.0796  0.0314  0.4101
 6162POPC   C1A74729  17.705   2.001   4.622 -0.3650 -0.1933  0.2031
 6162POPC   D2A74730  17.630   1.979   5.057  0.0580 -0.1480 -0.1659
 6162POPC   C3A74731  17.700   1.803   5.448  0.1875  0.1600  0.0368
 6162POPC   C4A74732  18.047   1.976   5.696 -0.2647  0.2888 -0.2189
 6162POPC   C1B74733  17.305   2.472   4.314 -0.3080  0.1243  0.1807
 6162POPC   C2B74734  17.125   2.773   4.661  0.1794  0.3067 -0.2369
 6162POPC   C3B74735  16.779   3.022   4.908 -0.0976  0.5193  0.1932
 6162POPC   C4B74736  16.349   3.101   4.971  0.0941  0.0675 -0.0323
 6163POPC   NC374737   5.120   1.817   4.126  0.3410  0.1067  0.0185
 6163POPC   PO474738   5.479   1.789   4.012  0.1224 -0.0115 -0.0653
 6163POPC   GL174739   5.791   2.038   4.199 -0.1307  0.0089 -0.0193
 6163POPC   GL274740   5.942   1.834   4.306  0.1747 -0.2477 -0.0399
 6163POPC   C1A74741   5.908   2.300   4.584  0.0030  0.0835 -0.4581
 6163POPC   D2A74742   6.156   2.101   4.948  0.0072 -0.0974 -0.1374
 6163POPC   C3A74743   6.535   2.303   5.033  0.2312  0.1394  0.0161
 6163POPC   C4A74744   6.764   2.572   5.335 -0.0788 -0.0088 -0.1875
 6163POPC   C1B74745   5.746   1.827   4.695 -0.3919  0.2958 -0.1298
 6163POPC   C2B74746   5.679   1.740   5.183  0.0508 -0.0359  0.0061
 6163POPC   C3B74747   5.746   1.789   5.659  0.0175 -0.1589 -0.0444
 6163POPC   C4B74748   5.883   2.093   5.962  0.2484 -0.1510 -0.1199
 6164POPC   NC374749  14.116   0.052   3.431 -0.0707  0.0008  0.2053
 6164POPC   PO474750  14.235   0.383   3.612 -0.0635  0.0619  0.1868
 6164POPC   GL174751  14.210   0.182   4.015 -0.0627 -0.1219  0.0871
 6164POPC   GL274752  13.873   0.185   4.055  0.2038  0.2715  0.0819
 6164POPC   C1A74753  14.513  -0.002   4.320  0.2049 -0.0505  0.0710
 6164POPC   D2A74754  14.878  -0.326   4.321 -0.2294  0.2079 -0.1834
 6164POPC   C3A74755  14.993  -0.283   4.758 -0.1147 -0.0853  0.1726
 6164POPC   C4A74756  14.717  -0.131   5.098 -0.1498 -0.3478 -0.2907
 6164POPC   C1B74757  14.053  -0.002   4.470  0.1387  0.2673  0.2871
 6164POPC   C2B74758  14.119  -0.351   4.798  0.3176 -0.2476 -0.0276
 6164POPC   C3B74759  14.327  -0.480   5.163  0.3053  0.1547  0.0166
 6164POPC   C4B74760  14.541  -0.415   5.518 -0.2328 -0.1396  0.2212
 6165POPC   NC374761  19.098   3.485   3.452 -0.0053 -0.0192  0.1256
 6165POPC   PO474762  19.156   3.144   3.629 -0.1562  0.1854 -0.0550
 6165POPC   GL174763  19.124   3.311   3.957  0.1277 -0.3078 -0.1031
 6165POPC   GL274764  19.354   3.387   4.032 -0.3443 -0.1647  0.0191
 6165POPC   C1A74765  18.903   3.403   4.365  0.0230 -0.3373 -0.3107
 6165POPC   D2A74766  19.044   3.438   4.744  0.1952 -0.0852  0.0607
 6165POPC   C3A74767  18.765   3.396   5.076 -0.0018 -0.0097  0.0988
 6165POPC   C4A74768  18.355   3.279   5.155 -0.1590 -0.0213 -0.0675
 6165POPC   C1B74769  19.561   3.301   4.454  0.2276 -0.2353 -0.2678
 6165POPC   C2B74770  19.939   3.185   4.690  0.0533 -0.0082 -0.1072
 6165POPC   C3B74771  20.270   3.232   4.976  0.0241  0.1536  0.0890
 6165POPC   C4B74772  20.653   3.456   5.138 -0.1135 -0.1000 -0.3001
 6166POPC   NC374773  31.348   4.940   3.376  0.0249 -0.0928 -0.3662
 6166POPC   PO474774  31.079   4.770   3.635  0.2915  0.0377  0.0985
 6166POPC   GL174775  31.226   4.699   4.056 -0.1031  0.3252  0.5968
 6166POPC   GL274776  31.182   4.480   4.259  0.0722 -0.1198  0.0825
 6166POPC   C1A74777  31.017   5.086   4.327  0.2261 -0.0201 -0.1950
 6166POPC   D2A74778  30.978   5.036   4.816 -0.1241  0.0801 -0.2828
 6166POPC   C3A74779  31.131   5.041   5.229  0.3026 -0.0673  0.3627
 6166POPC   C4A74780  31.092   4.629   5.393  0.0519 -0.1893 -0.2448
 6166POPC   C1B74781  31.360   4.695   4.620 -0.1027  0.0880 -0.0395
 6166POPC   C2B74782  31.499   4.705   5.038 -0.1117 -0.1346 -0.0449
 6166POPC   C3B74783  31.535   4.840   5.526 -0.0131  0.0569 -0.1067
 6166POPC   C4B74784  31.707   4.738   5.927 -0.0502  0.4334 -0.4316
 6167POPC   NC374785   6.190  19.289   3.488 -0.2735 -0.4769 -0.2930
 6167POPC   PO474786   6.561  19.154   3.428 -0.3846  0.0501  0.1957
 6167POPC   GL174787   6.630  19.334   3.788  0.4444  0.1761  0.1885
 6167POPC   GL274788   6.453  19.588   3.835  0.1581  0.0700 -0.1023
 6167POPC   C1A74789   6.743  19.164   4.210 -0.0256 -0.0394 -0.1943
 6167POPC   D2A74790   6.690  19.187   4.662 -0.1020  0.2040  0.1499
 6167POPC   C3A74791   7.114  18.999   4.601  0.0619  0.0310 -0.3463
 6167POPC   C4A74792   7.557  18.916   4.533 -0.0565 -0.1605  0.0023
 6167POPC   C1B74793   6.213  19.313   4.116  0.2640 -0.3220  0.1873
 6167POPC   C2B74794   6.201  19.309   4.494  0.3034  0.0334 -0.0211
 6167POPC   C3B74795   6.015  19.381   4.913  0.0782 -0.2448  0.0603
 6167POPC   C4B74796   5.640  19.551   5.137  0.0354  0.3502 -0.0895
 6168POPC   NC374797  28.934   6.798   3.552 -0.1100  0.0054  0.1812
 6168POPC   PO474798  28.950   7.071   3.803 -0.0015 -0.2840  0.0364
 6168POPC   GL174799  28.705   6.851   3.957 -0.1484  0.1593  0.2494
 6168POPC   GL274800  28.908   6.583   4.036  0.2380  0.2730  0.2677
 6168POPC   C1A74801  28.538   6.875   4.404  0.1986 -0.2420  0.0878
 6168POPC   D2A74802  28.506   6.814   4.875 -0.1045  0.1596  0.0407
 6168POPC   C3A74803  28.266   6.907   5.251 -0.2640 -0.1857  0.1341
 6168POPC   C4A74804  28.354   7.229   5.532 -0.1527 -0.2155 -0.1847
 6168POPC   C1B74805  28.983   6.647   4.490 -0.0875  0.0710  0.0656
 6168POPC   C2B74806  28.934   6.682   4.958 -0.2030 -0.0976  0.4332
 6168POPC   C3B74807  28.759   6.628   5.350  0.2296 -0.0888  0.1244
 6168POPC   C4B74808  28.591   6.831   5.729  0.1577  0.2164  0.3876
 6169POPC   NC374809  15.180  19.183   3.675  0.1042 -0.3816 -0.2472
 6169POPC   PO474810  14.929  19.308   3.406  0.1254  0.1365 -0.0006
 6169POPC   GL174811  14.712  19.196   3.657  0.0451  0.2445  0.2990
 6169POPC   GL274812  14.613  18.907   3.634  0.2535  0.3259  0.0858
 6169POPC   C1A74813  14.591  19.109   4.070  0.0030  0.0579 -0.0604
 6169POPC   D2A74814  14.523  19.196   4.554 -0.0871  0.0778 -0.1585
 6169POPC   C3A74815  14.230  19.223   4.941 -0.0903 -0.0538 -0.0667
 6169POPC   C4A74816  13.880  19.237   5.288  0.0622  0.2002 -0.0100
 6169POPC   C1B74817  14.207  18.849   3.876  0.3486 -0.0492  0.0093
 6169POPC   C2B74818  13.941  18.702   4.253  0.0880 -0.1448  0.2661
 6169POPC   C3B74819  14.029  18.375   4.586  0.1601 -0.0120  0.1860
 6169POPC   C4B74820  13.727  18.140   4.839 -0.1719 -0.0167  0.0921
 6170POPC   NC374821  12.354  30.313   3.791  0.0776 -0.2245  0.1473
 6170POPC   PO474822  12.013  30.137   3.809 -0.0447  0.0106  0.1243
 6170POPC   GL174823  12.076  30.216   4.237  0.2062  0.0582  0.3343
 6170POPC   GL274824  11.938  30.034   4.432  0.0972 -0.1122  0.0981
 6170POPC   C1A74825  12.155  30.503   4.566  0.1145  0.2226 -0.1571
 6170POPC   D2A74826  12.330  30.489   5.005 -0.2328  0.1834  0.0023
 6170POPC   C3A74827  12.306  30.900   5.156 -0.1388  0.0862 -0.2127
 6170POPC   C4A74828  12.372  31.323   5.386 -0.3430  0.0572  0.1300
 6170POPC   C1B74829  12.056  30.063   4.880 -0.3464 -0.0212  0.0624
 6170POPC   C2B74830  12.007  29.823   5.258 -0.0418  0.0206  0.0138
 6170POPC   C3B74831  11.747  29.587   5.556  0.0211 -0.0519  0.2330
 6170POPC   C4B74832  11.527  29.333   5.884  0.2734  0.3686  0.1804
 6171POPC   NC374833  12.921  21.330   2.949  0.1551  0.2460  0.0676
 6171POPC   PO474834  13.118  21.269   3.279 -0.3356  0.2767  0.1665
 6171POPC   GL174835  13.003  21.264   3.623  0.3042  0.3453 -0.1262
 6171POPC   GL274836  13.235  21.031   3.725 -0.2378  0.0992 -0.1097
 6171POPC   C1A74837  13.087  21.386   4.081 -0.1205 -0.1409  0.2633
 6171POPC   D2A74838  13.167  21.560   4.468  0.2140  0.1316  0.0401
 6171POPC   C3A74839  13.308  21.581   4.847  0.2289 -0.2224 -0.3110
 6171POPC   C4A74840  13.284  21.608   5.326 -0.4723  0.2059  0.2068
 6171POPC   C1B74841  12.968  20.909   4.018 -0.0832  0.1252 -0.2251
 6171POPC   C2B74842  13.040  20.794   4.449  0.1258 -0.3512  0.1309
 6171POPC   C3B74843  13.259  20.588   4.806 -0.1372 -0.4501  0.0924
 6171POPC   C4B74844  13.260  20.175   5.082 -0.2181 -0.1847  0.0848
 6172POPC   NC374845  17.384  23.640   3.560  0.2066  0.0020 -0.0284
 6172POPC   PO474846  17.358  23.235   3.456  0.0486  0.1398  0.1134
 6172POPC   GL174847  17.190  23.277   3.796 -0.5348 -0.0986  0.1260
 6172POPC   GL274848  17.377  23.380   3.987 -0.0055 -0.1563  0.0031
 6172POPC   C1A74849  16.868  23.018   4.023 -0.1322 -0.2247 -0.2728
 6172POPC   D2A74850  16.694  22.921   4.454 -0.1634  0.0732 -0.0458
 6172POPC   C3A74851  16.587  23.088   4.825  0.2381 -0.4046 -0.1134
 6172POPC   C4A74852  16.402  23.345   5.208 -0.0947 -0.0526 -0.0113
 6172POPC   C1B74853  17.617  23.477   4.427  0.0147 -0.0394  0.2955
 6172POPC   C2B74854  17.572  23.433   4.867  0.0420 -0.3724 -0.0872
 6172POPC   C3B74855  17.463  23.220   5.224  0.1889  0.2302 -0.4232
 6172POPC   C4B74856  17.230  23.122   5.646  0.1567 -0.0393  0.0036
 6173POPC   NC374857  27.759   9.096   3.752 -0.1451 -0.0580  0.2318
 6173POPC   PO474858  27.537   9.451   3.851  0.1037  0.0198 -0.1214
 6173POPC   GL174859  27.320   9.735   4.226 -0.1279  0.3361 -0.0260
 6173POPC   GL274860  27.011   9.513   4.138 -0.2913 -0.1827 -0.3065
 6173POPC   C1A74861  27.427   9.765   4.639 -0.2298 -0.1063 -0.3566
 6173POPC   D2A74862  27.539   9.544   5.096 -0.1388  0.1632 -0.0584
 6173POPC   C3A74863  27.593   9.670   5.578 -0.0089  0.0108  0.1781
 6173POPC   C4A74864  27.403   9.532   5.954 -0.1994 -0.1413 -0.1329
 6173POPC   C1B74865  27.022   9.361   4.544 -0.2258  0.1402  0.0669
 6173POPC   C2B74866  27.039   9.368   5.013 -0.1013  0.0258  0.1812
 6173POPC   C3B74867  27.098   9.598   5.427  0.0373 -0.1834  0.1951
 6173POPC   C4B74868  27.142   9.924   5.804 -0.2167 -0.0426  0.3085
 6174POPC   NC374869  19.656  17.132   3.522 -0.1043 -0.0819  0.0167
 6174POPC   PO474870  19.381  17.210   3.832  0.1640 -0.2238 -0.0801
 6174POPC   GL174871  19.657  17.118   4.135  0.1101  0.0914 -0.3765
 6174POPC   GL274872  19.904  17.283   3.922  0.1156 -0.0476 -0.1200
 6174POPC   C1A74873  20.115  17.109   4.376  0.1529 -0.0378  0.0602
 6174POPC   D2A74874  20.444  17.048   4.693 -0.0456 -0.0533  0.2640
 6174POPC   C3A74875  20.623  17.398   4.907 -0.1522  0.1784  0.2469
 6174POPC   C4A74876  20.894  17.801   5.113 -0.0971 -0.1908 -0.1866
 6174POPC   C1B74877  20.372  17.400   3.899  0.1035 -0.0879  0.0045
 6174POPC   C2B74878  20.657  17.417   4.292  0.0018 -0.2542  0.1227
 6174POPC   C3B74879  20.807  17.844   4.463 -0.3307 -0.0268  0.1512
 6174POPC   C4B74880  21.239  18.123   4.436  0.1225 -0.0923 -0.3580
 6175POPC   NC374881  10.694  25.779   3.239 -0.2541  0.1978 -0.1644
 6175POPC   PO474882  10.950  25.937   3.513  0.1186 -0.1754  0.1948
 6175POPC   GL174883  10.671  26.131   3.769 -0.0414  0.3705  0.2270
 6175POPC   GL274884  10.614  26.384   3.711 -0.2175  0.0171  0.0652
 6175POPC   C1A74885  10.663  26.145   4.249 -0.0376 -0.0899 -0.0376
 6175POPC   D2A74886  10.959  25.972   4.585 -0.0702  0.3055  0.3695
 6175POPC   C3A74887  11.043  26.128   4.949  0.1771 -0.2442 -0.2698
 6175POPC   C4A74888  10.771  26.135   5.301  0.0305  0.0601  0.3568
 6175POPC   C1B74889  10.760  26.599   4.154  0.2418 -0.1220 -0.2304
 6175POPC   C2B74890  10.877  26.555   4.643  0.1015 -0.2236  0.1325
 6175POPC   C3B74891  10.725  26.619   5.092  0.0588  0.2094  0.0046
 6175POPC   C4B74892  10.823  26.985   5.381 -0.0218  0.0249  0.1759
 6176POPC   NC374893   6.765  28.360   3.346 -0.0087  0.0422 -0.2224
 6176POPC   PO474894   6.605  28.594   3.581 -0.0352  0.0481  0.0437
 6176POPC   GL174895   6.880  28.593   3.970 -0.2665 -0.3248 -0.3614
 6176POPC   GL274896   6.684  28.602   4.128  0.0527 -0.1262 -0.1337
 6176POPC   C1A74897   7.172  28.408   4.251  0.2439  0.1154  0.0376
 6176POPC   D2A74898   7.203  28.415   4.712 -0.1438  0.1252 -0.4131
 6176POPC   C3A74899   7.344  28.768   4.954  0.0380 -0.0006 -0.0496
 6176POPC   C4A74900   7.420  29.160   5.223 -0.1271 -0.1944 -0.1276
 6176POPC   C1B74901   6.450  28.734   4.497 -0.1667 -0.0978 -0.1805
 6176POPC   C2B74902   6.368  28.896   4.975 -0.2325 -0.0502  0.1673
 6176POPC   C3B74903   6.274  29.097   5.341  0.0696 -0.0878 -0.2481
 6176POPC   C4B74904   6.191  29.360   5.699  0.0232 -0.0699 -0.0155
 6177POPC   NC374905   2.273  29.802   3.132 -0.2209  0.2690  0.0069
 6177POPC   PO474906   2.336  29.682   3.495  0.0408 -0.1080 -0.2018
 6177POPC   GL174907   2.341  29.675   3.882 -0.1692 -0.1798 -0.1803
 6177POPC   GL274908   2.320  29.902   4.013 -0.1463  0.1608 -0.1831
 6177POPC   C1A74909   2.511  29.445   4.238  0.0998  0.0302  0.1623
 6177POPC   D2A74910   2.877  29.415   4.579  0.0151 -0.2016 -0.2744
 6177POPC   C3A74911   3.003  29.819   4.827  0.2643  0.3821 -0.0924
 6177POPC   C4A74912   3.167  30.210   4.999  0.0701 -0.2778 -0.1562
 6177POPC   C1B74913   2.257  29.918   4.499  0.0614 -0.1159 -0.2840
 6177POPC   C2B74914   2.516  29.721   4.804 -0.0305  0.1233  0.1519
 6177POPC   C3B74915   2.676  29.838   5.192 -0.2080 -0.4255  0.1876
 6177POPC   C4B74916   2.908  30.177   5.466  0.1792  0.3574 -0.0076
 6178POPC   NC374917   0.135  14.058   3.331  0.1458  0.2824  0.2243
 6178POPC   PO474918   0.309  13.849   3.661 -0.1885  0.1648  0.1672
 6178POPC   GL174919   0.143  13.912   4.103 -0.1298 -0.1272  0.0578
 6178POPC   GL274920   0.128  13.732   4.412 -0.3937 -0.1603 -0.0763
 6178POPC   C1A74921   0.226  14.284   4.355 -0.3427  0.0533 -0.0888
 6178POPC   D2A74922   0.296  14.404   4.836  0.1715  0.1570 -0.0681
 6178POPC   C3A74923   0.648  14.404   5.177 -0.0068  0.0662  0.3356
 6178POPC   C4A74924   0.995  14.202   5.445  0.1033 -0.0744  0.1808
 6178POPC   C1B74925  -0.060  14.032   4.739 -0.1169  0.0402  0.0777
 6178POPC   C2B74926  -0.043  14.259   5.211 -0.0230 -0.2162 -0.0595
 6178POPC   C3B74927   0.185  14.432   5.627  0.0724  0.1313  0.0842
 6178POPC   C4B74928   0.219  14.774   5.964 -0.0048 -0.0126 -0.2511
 6179POPC   NC374929  16.556   9.694   3.919  0.0695  0.2166  0.0989
 6179POPC   PO474930  16.599  10.058   3.819 -0.2937 -0.2055 -0.4448
 6179POPC   GL174931  16.588   9.986   4.305 -0.0727  0.0598  0.1284
 6179POPC   GL274932  16.762   9.802   4.403 -0.0946  0.1987  0.1418
 6179POPC   C1A74933  16.621  10.206   4.688  0.0846  0.3561  0.1603
 6179POPC   D2A74934  16.598  10.488   5.075 -0.2132 -0.0795 -0.0819
 6179POPC   C3A74935  16.822  10.457   5.436 -0.0766 -0.3785  0.0003
 6179POPC   C4A74936  17.014  10.678   5.812  0.0643  0.2203  0.0272
 6179POPC   C1B74937  16.998   9.801   4.793 -0.4885  0.1404 -0.0146
 6179POPC   C2B74938  16.764   9.962   5.238 -0.0945  0.0178 -0.1650
 6179POPC   C3B74939  16.389  10.175   5.465  0.1857  0.1868  0.1763
 6179POPC   C4B74940  16.097  10.559   5.498  0.0488  0.0545  0.0191
 6180POPC   NC374941   1.048   2.787   3.812  0.1200 -0.1405  0.0618
 6180POPC   PO474942   0.944   3.132   4.002 -0.2121  0.1313  0.1619
 6180POPC   GL174943   1.017   3.239   4.421  0.5235  0.1624 -0.5184
 6180POPC   GL274944   0.788   3.036   4.551 -0.0733  0.2859  0.1559
 6180POPC   C1A74945   1.150   3.249   4.879 -0.3169 -0.3179  0.0962
 6180POPC   D2A74946   1.065   3.194   5.335  0.2970 -0.2417 -0.1891
 6180POPC   C3A74947   1.187   3.466   5.706 -0.2708  0.1456 -0.1005
 6180POPC   C4A74948   1.232   3.703   6.133 -0.1182  0.3058  0.2885
 6180POPC   C1B74949   0.808   2.919   4.980  0.2645 -0.0849  0.0909
 6180POPC   C2B74950   0.937   2.695   5.357  0.1239  0.3336 -0.1281
 6180POPC   C3B74951   0.954   2.578   5.786 -0.2414  0.1026 -0.0755
 6180POPC   C4B74952   1.105   2.615   6.252  0.2281 -0.1565 -0.1070
 6181POPC   NC374953  19.611  23.983   4.068  0.3102 -0.0611 -0.0038
 6181POPC   PO474954  19.645  23.630   3.903 -0.0690 -0.0060 -0.0098
 6181POPC   GL174955  19.766  23.640   4.310 -0.0846 -0.1188  0.1390
 6181POPC   GL274956  20.033  23.761   4.315 -0.0036 -0.0871  0.1276
 6181POPC   C1A74957  19.687  23.422   4.695 -0.1067  0.1804 -0.1425
 6181POPC   D2A74958  19.865  23.096   4.916 -0.2180  0.1741 -0.0104
 6181POPC   C3A74959  19.884  22.969   5.374 -0.1086  0.3334  0.5128
 6181POPC   C4A74960  20.022  22.559   5.419  0.1607 -0.1547  0.2689
 6181POPC   C1B74961  20.002  23.753   4.845  0.1235  0.0606  0.1458
 6181POPC   C2B74962  19.815  23.605   5.224 -0.1153  0.3448  0.0591
 6181POPC   C3B74963  19.656  23.369   5.645 -0.2832  0.2455  0.2456
 6181POPC   C4B74964  19.412  23.365   6.081  0.1131 -0.0720  0.0051
 6182POPC   NC374965   0.340  12.454   3.667  0.0394  0.2910  0.0059
 6182POPC   PO474966  -0.008  12.326   3.552  0.3635 -0.0363  0.3619
 6182POPC   GL174967   0.048  12.428   4.010 -0.0843 -0.0322  0.2012
 6182POPC   GL274968   0.276  12.420   4.210  0.2557  0.0029  0.0425
 6182POPC   C1A74969  -0.309  12.629   4.289 -0.0484 -0.0647 -0.0514
 6182POPC   D2A74970  -0.549  13.043   4.466 -0.2909 -0.0281 -0.0021
 6182POPC   C3A74971  -0.663  13.251   4.816  0.0285  0.1317  0.2100
 6182POPC   C4A74972  -0.516  13.269   5.247  0.2708  0.3503  0.1175
 6182POPC   C1B74973   0.069  12.400   4.603 -0.1817 -0.2246  0.1079
 6182POPC   C2B74974  -0.013  12.267   5.045  0.0354  0.1185 -0.0115
 6182POPC   C3B74975   0.198  12.343   5.490  0.3314  0.0157 -0.1103
 6182POPC   C4B74976   0.504  12.387   5.797 -0.1454  0.2611 -0.4430
 6183POPC   NC374977  24.206  21.773   3.096 -0.1423 -0.0664  0.1608
 6183POPC   PO474978  24.226  21.798   3.446  0.1573 -0.0181 -0.1834
 6183POPC   GL174979  24.169  21.983   3.771 -0.0408 -0.0691  0.1877
 6183POPC   GL274980  23.860  21.913   3.842 -0.0701  0.4209  0.3523
 6183POPC   C1A74981  24.397  21.973   4.118  0.0900 -0.0151 -0.1170
 6183POPC   D2A74982  24.780  22.216   4.375 -0.1464  0.0513  0.1746
 6183POPC   C3A74983  24.901  22.246   4.790  0.1060  0.1615  0.2859
 6183POPC   C4A74984  24.970  22.161   5.239 -0.2530  0.2278 -0.1988
 6183POPC   C1B74985  23.964  21.925   4.294  0.4377  0.1878 -0.1340
 6183POPC   C2B74986  24.018  21.974   4.711 -0.2746 -0.3092  0.3952
 6183POPC   C3B74987  24.014  22.113   5.124 -0.2492 -0.0581 -0.1990
 6183POPC   C4B74988  23.889  22.253   5.557  0.0543 -0.1737 -0.0137
 6184POPC   NC374989   4.547  16.391   3.438 -0.2045 -0.0830 -0.0507
 6184POPC   PO474990   4.281  16.611   3.555 -0.1559  0.0638  0.0641
 6184POPC   GL174991   4.434  16.671   3.941  0.3021 -0.1416  0.1547
 6184POPC   GL274992   4.590  16.428   3.958  0.0537 -0.1705 -0.2104
 6184POPC   C1A74993   4.254  16.687   4.375 -0.0396  0.2557 -0.0841
 6184POPC   D2A74994   4.277  16.755   4.825  0.0534  0.2010 -0.1616
 6184POPC   C3A74995   3.924  16.646   5.078  0.0495  0.1696 -0.0530
 6184POPC   C4A74996   3.615  16.694   5.387 -0.0320  0.1156 -0.0653
 6184POPC   C1B74997   4.560  16.187   4.368 -0.1629 -0.1308 -0.3024
 6184POPC   C2B74998   4.745  15.950   4.772 -0.0375  0.1533  0.3258
 6184POPC   C3B74999   4.872  15.792   5.182 -0.1992  0.2383  0.0482
 6184POPC   C4B75000   4.693  15.598   5.548  0.1958  0.0787  0.2396
 6185POPC   NC375001  18.796   2.615   3.926  0.2895 -0.2595 -0.2589
 6185POPC   PO475002  19.148   2.584   3.689  0.0251  0.1486  0.3745
 6185POPC   GL175003  19.375   2.730   3.887 -0.0023 -0.0151  0.0351
 6185POPC   GL275004  19.163   2.892   4.111 -0.3926  0.5692 -0.2446
 6185POPC   C1A75005  19.723   2.955   4.107  0.2129 -0.1356  0.0455
 6185POPC   D2A75006  20.131   2.820   4.409  0.0526 -0.1258  0.1725
 6185POPC   C3A75007  20.127   2.776   4.874  0.0080 -0.1018  0.2342
 6185POPC   C4A75008  20.170   2.722   5.323 -0.2790  0.2672  0.2005
 6185POPC   C1B75009  19.189   3.006   4.587 -0.2744  0.1870  0.1976
 6185POPC   C2B75010  19.484   3.096   4.947 -0.1225  0.1849  0.1440
 6185POPC   C3B75011  19.869   3.161   5.222  0.2184 -0.0730 -0.1313
 6185POPC   C4B75012  19.834   2.876   5.604 -0.1471 -0.5006 -0.2181
 6186POPC   NC375013  26.710   2.016   3.293 -0.2004  0.0478 -0.0809
 6186POPC   PO475014  26.787   2.138   3.654 -0.1965 -0.2111  0.1369
 6186POPC   GL175015  26.781   2.097   4.016 -0.1338  0.1144  0.1536
 6186POPC   GL275016  26.557   2.002   4.148  0.0212  0.1199 -0.1137
 6186POPC   C1A75017  27.181   1.954   4.229 -0.4756 -0.0936 -0.2554
 6186POPC   D2A75018  27.357   1.909   4.666  0.0531  0.2295  0.0544
 6186POPC   C3A75019  27.766   1.913   4.856  0.1806  0.1183 -0.1401
 6186POPC   C4A75020  28.241   2.000   4.784 -0.1587  0.0574  0.0843
 6186POPC   C1B75021  26.756   1.927   4.543  0.2016  0.2112 -0.2180
 6186POPC   C2B75022  26.970   2.006   4.932 -0.0702 -0.0290  0.0886
 6186POPC   C3B75023  27.097   2.081   5.403 -0.1826 -0.0286 -0.3415
 6186POPC   C4B75024  27.078   2.280   5.830  0.0501  0.0591 -0.0077
 6187POPC   NC375025   7.275  16.128   3.772 -0.0866 -0.0800 -0.0125
 6187POPC   PO475026   7.207  16.489   3.657  0.2411 -0.1973  0.4050
 6187POPC   GL175027   7.324  16.470   4.096 -0.2533 -0.3402  0.0455
 6187POPC   GL275028   7.506  16.321   4.205 -0.0731 -0.1253  0.0023
 6187POPC   C1A75029   7.026  16.714   4.391  0.0617  0.0429 -0.1276
 6187POPC   D2A75030   7.019  17.113   4.612  0.0294 -0.1603  0.2288
 6187POPC   C3A75031   7.168  17.239   5.118  0.0597 -0.2338  0.1764
 6187POPC   C4A75032   7.292  17.357   5.573  0.4412 -0.1131 -0.1085
 6187POPC   C1B75033   7.480  16.559   4.597  0.3324  0.0320  0.1590
 6187POPC   C2B75034   7.261  16.794   5.001 -0.0803  0.3114  0.0677
 6187POPC   C3B75035   7.256  16.833   5.458 -0.0486 -0.1147 -0.0669
 6187POPC   C4B75036   7.027  16.640   5.796  0.0631  0.3085  0.1649
 6188POPC   NC375037  25.144   1.350   4.081 -0.3773  0.0897 -0.0898
 6188POPC   PO475038  25.311   1.688   3.899 -0.1623 -0.1520  0.0466
 6188POPC   GL175039  25.471   1.730   4.238  0.2008 -0.2950  0.4193
 6188POPC   GL275040  25.731   1.773   4.209  0.1094  0.0546 -0.0942
 6188POPC   C1A75041  25.518   1.381   4.516 -0.2766 -0.1504  0.2993
 6188POPC   D2A75042  25.731   1.011   4.763  0.1092 -0.1119  0.1415
 6188POPC   C3A75043  25.741   0.756   5.142 -0.0852  0.1756  0.0393
 6188POPC   C4A75044  25.825   0.646   5.591 -0.3119  0.3109  0.2419
 6188POPC   C1B75045  25.976   1.541   4.565  0.0451  0.1402  0.2821
 6188POPC   C2B75046  26.050   1.386   4.969 -0.4240 -0.2896  0.0522
 6188POPC   C3B75047  25.880   1.188   5.358 -0.1226  0.2580  0.2265
 6188POPC   C4B75048  26.103   1.091   5.721 -0.0518 -0.2197  0.1170
 6189POPC   NC375049  24.442   9.458   3.923  0.5632 -0.1339  0.2387
 6189POPC   PO475050  24.695   9.678   4.043 -0.1185  0.0015  0.1358
 6189POPC   GL175051  24.964   9.973   4.197 -0.0884 -0.1913  0.0989
 6189POPC   GL275052  25.141   9.774   4.285  0.0509 -0.0928 -0.0454
 6189POPC   C1A75053  25.230  10.219   4.530  0.0465  0.0440  0.1058
 6189POPC   D2A75054  25.412  10.523   4.817 -0.0876 -0.2585 -0.2872
 6189POPC   C3A75055  25.680  10.473   5.177 -0.0172 -0.1720  0.1483
 6189POPC   C4A75056  25.874  10.648   5.562 -0.1670  0.3365 -0.0177
 6189POPC   C1B75057  24.861   9.709   4.647 -0.0277  0.0545  0.1444
 6189POPC   C2B75058  24.559   9.856   4.930 -0.0668  0.1727  0.0488
 6189POPC   C3B75059  24.312  10.202   5.093  0.0615 -0.4560  0.2085
 6189POPC   C4B75060  24.310  10.383   5.523  0.0353  0.0893 -0.2086
 6190POPC   NC375061   6.495   2.228   3.784 -0.0694 -0.2003  0.3026
 6190POPC   PO475062   6.222   2.052   3.986  0.0345  0.2286  0.1537
 6190POPC   GL175063   6.311   2.240   4.309 -0.0544  0.4107 -0.2710
 6190POPC   GL275064   6.406   2.531   4.155 -0.1843 -0.1111  0.1648
 6190POPC   C1A75065   6.499   1.937   4.586 -0.2560 -0.0854  0.1594
 6190POPC   D2A75066   6.549   1.565   4.986  0.2144 -0.2516 -0.1598
 6190POPC   C3A75067   6.898   1.501   5.245  0.1999  0.2934 -0.0536
 6190POPC   C4A75068   7.086   1.184   5.604 -0.4139 -0.2987 -0.3291
 6190POPC   C1B75069   6.298   2.642   4.604 -0.1748 -0.1166 -0.0777
 6190POPC   C2B75070   6.400   2.866   4.977  0.0394  0.0220 -0.1865
 6190POPC   C3B75071   6.477   3.106   5.404  0.2102  0.3651  0.2146
 6190POPC   C4B75072   6.519   3.563   5.501  0.1691 -0.1470  0.0250
 6191POPC   NC375073   2.801  30.517   3.504  0.0441  0.3348 -0.1907
 6191POPC   PO475074   2.630  30.888   3.544  0.1232  0.2724  0.2752
 6191POPC   GL175075   2.446  30.960   3.874  0.0850  0.0489  0.4064
 6191POPC   GL275076   2.446  31.238   3.841  0.0180 -0.1623  0.0202
 6191POPC   C1A75077   2.407  30.784   4.283  0.0148 -0.1244  0.0163
 6191POPC   D2A75078   2.480  30.678   4.763  0.0672 -0.2319  0.1113
 6191POPC   C3A75079   2.420  30.913   5.180 -0.0976  0.0083 -0.0872
 6191POPC   C4A75080   2.202  31.146   5.589  0.1190  0.0580 -0.0167
 6191POPC   C1B75081   2.119  31.476   4.065 -0.1447 -0.1893 -0.0325
 6191POPC   C2B75082   2.045  31.588   4.466  0.2242 -0.0996 -0.0525
 6191POPC   C3B75083   2.381  31.705   4.818  0.2935  0.1734 -0.2301
 6191POPC   C4B75084   2.321  31.473   5.183  0.0627  0.2192 -0.0166
 6192POPC   NC375085  24.489   6.277   3.704 -0.1114  0.1565  0.0162
 6192POPC   PO475086  24.146   6.435   3.722  0.1755  0.0101 -0.1865
 6192POPC   GL175087  24.079   6.540   4.113  0.2830 -0.1815  0.0369
 6192POPC   GL275088  24.311   6.391   4.226  0.1175  0.1601 -0.2123
 6192POPC   C1A75089  23.913   6.775   4.443 -0.0928  0.1800 -0.1680
 6192POPC   D2A75090  23.754   6.459   4.770  0.2386  0.0876 -0.4493
 6192POPC   C3A75091  23.793   5.986   4.815 -0.0396  0.0836  0.1465
 6192POPC   C4A75092  23.934   5.562   4.849  0.2697  0.0187 -0.5112
 6192POPC   C1B75093  24.262   6.249   4.658 -0.1894 -0.1481 -0.0953
 6192POPC   C2B75094  24.152   6.172   5.084  0.1266  0.2211  0.0977
 6192POPC   C3B75095  24.097   6.132   5.534  0.2325  0.0959 -0.1177
 6192POPC   C4B75096  23.711   6.325   5.702 -0.2243 -0.4520  0.0152
 6193POPC   NC375097   5.855   2.437   4.015 -0.0068  0.0316  0.0935
 6193POPC   PO475098   5.716   2.730   3.746 -0.2588 -0.2841  0.0244
 6193POPC   GL175099   5.644   2.883   4.095  0.2164  0.4436 -0.3084
 6193POPC   GL275100   5.494   3.150   3.994 -0.2255  0.0694 -0.0071
 6193POPC   C1A75101   5.612   2.708   4.539 -0.1010  0.3653  0.1633
 6193POPC   D2A75102   5.721   2.701   4.922 -0.0327  0.1460 -0.5443
 6193POPC   C3A75103   6.068   2.552   5.122 -0.2182 -0.0444  0.0472
 6193POPC   C4A75104   6.279   2.675   5.471  0.0308 -0.1708 -0.1263
 6193POPC   C1B75105   5.511   3.133   4.490 -0.1055 -0.3210 -0.0129
 6193POPC   C2B75106   5.566   3.262   4.893  0.0719  0.2153  0.0717
 6193POPC   C3B75107   5.748   3.614   5.185 -0.0771  0.0740 -0.0856
 6193POPC   C4B75108   5.830   3.938   5.500  0.1445  0.0068  0.1936
 6194POPC   NC375109   7.003  28.859   3.471  0.1591  0.0312 -0.1031
 6194POPC   PO475110   6.825  29.156   3.289 -0.2089 -0.1159  0.2845
 6194POPC   GL175111   6.719  29.267   3.622  0.3331  0.0604  0.0504
 6194POPC   GL275112   6.706  29.055   3.835 -0.2469  0.1489 -0.0194
 6194POPC   C1A75113   6.329  29.398   3.903 -0.0685  0.1181  0.1424
 6194POPC   D2A75114   6.098  29.223   4.285  0.1989  0.0858 -0.0400
 6194POPC   C3A75115   6.222  29.317   4.700 -0.3751  0.0943 -0.2031
 6194POPC   C4A75116   6.535  29.571   4.925  0.1929  0.4084  0.0300
 6194POPC   C1B75117   6.607  29.166   4.310 -0.0711 -0.1063 -0.0743
 6194POPC   C2B75118   6.700  29.171   4.721 -0.0535  0.0664  0.0862
 6194POPC   C3B75119   6.858  29.174   5.162  0.1638  0.1665  0.2072
 6194POPC   C4B75120   6.941  28.909   5.514 -0.0949 -0.1547  0.2760
 6195POPC   NC375121   2.393  14.580   3.925  0.0302  0.1412  0.0363
 6195POPC   PO475122   2.687  14.788   3.852  0.1019 -0.1351  0.1061
 6195POPC   GL175123   2.694  15.080   4.167  0.1651  0.3920  0.3091
 6195POPC   GL275124   2.630  15.352   4.127 -0.1081  0.2065  0.0099
 6195POPC   C1A75125   2.920  15.187   4.567 -0.0816 -0.2164  0.0010
 6195POPC   D2A75126   3.027  14.976   4.986 -0.2521 -0.0034 -0.0499
 6195POPC   C3A75127   2.766  14.809   5.315 -0.0964  0.1088 -0.1400
 6195POPC   C4A75128   2.550  14.417   5.544  0.1208 -0.1221  0.2505
 6195POPC   C1B75129   2.376  15.372   4.478  0.2214 -0.0249  0.0368
 6195POPC   C2B75130   2.121  15.398   4.870 -0.0161  0.1816 -0.2687
 6195POPC   C3B75131   2.261  15.409   5.343  0.0876  0.1384 -0.2432
 6195POPC   C4B75132   2.475  15.095   5.686 -0.2143  0.0533  0.2310
 6196POPC   NC375133  19.361   6.510   3.675  0.1238  0.1093  0.3683
 6196POPC   PO475134  19.480   6.722   3.972  0.0407  0.2258  0.0363
 6196POPC   GL175135  19.455   6.669   4.372  0.0946 -0.2083 -0.3369
 6196POPC   GL275136  19.282   6.924   4.494 -0.0537 -0.1828 -0.2955
 6196POPC   C1A75137  19.333   6.354   4.681  0.1363 -0.1026 -0.1309
 6196POPC   D2A75138  19.319   6.237   5.139  0.1479  0.1351  0.0098
 6196POPC   C3A75139  19.261   6.129   5.547 -0.0196 -0.0164 -0.1476
 6196POPC   C4A75140  19.600   6.135   5.901 -0.4276 -0.3958  0.0710
 6196POPC   C1B75141  19.021   6.758   4.879  0.1933 -0.1886 -0.1302
 6196POPC   C2B75142  18.758   6.591   5.311  0.0211 -0.0974  0.3414
 6196POPC   C3B75143  18.589   6.503   5.721 -0.1914  0.3003 -0.1425
 6196POPC   C4B75144  18.572   6.364   6.168  0.3563  0.0157  0.0131
 6197POPC   NC375145  24.413   3.579   3.541  0.0569 -0.1721  0.1223
 6197POPC   PO475146  24.661   3.740   3.770  0.0063 -0.0769 -0.0255
 6197POPC   GL175147  24.496   3.728   4.116  0.2685  0.2093  0.0201
 6197POPC   GL275148  24.282   3.533   4.084 -0.0144 -0.0449  0.0372
 6197POPC   C1A75149  24.335   4.073   4.404  0.2320  0.1183 -0.0141
 6197POPC   D2A75150  24.217   4.387   4.720 -0.2328 -0.5540  0.0546
 6197POPC   C3A75151  24.097   4.262   5.139 -0.2698 -0.0372 -0.4015
 6197POPC   C4A75152  24.068   4.125   5.535 -0.2847 -0.0996 -0.1850
 6197POPC   C1B75153  24.203   3.613   4.542 -0.0723 -0.0854  0.1601
 6197POPC   C2B75154  24.186   3.332   4.938 -0.2625  0.1051 -0.2360
 6197POPC   C3B75155  23.878   3.211   5.239 -0.1496  0.1450 -0.1443
 6197POPC   C4B75156  23.943   2.832   5.508 -0.0264  0.1478 -0.1532
 6198POPC   NC375157   5.623  27.849   3.703 -0.2746 -0.0009 -0.2289
 6198POPC   PO475158   5.998  27.948   3.749 -0.1147  0.1300  0.0580
 6198POPC   GL175159   6.167  27.797   4.083  0.5992 -0.1785  0.0395
 6198POPC   GL275160   6.403  27.712   4.044 -0.3157  0.1032  0.0555
 6198POPC   C1A75161   6.105  28.115   4.415 -0.1323  0.2274  0.1951
 6198POPC   D2A75162   6.067  28.516   4.298 -0.2285  0.0875 -0.0023
 6198POPC   C3A75163   6.008  28.873   4.602  0.0760 -0.3873 -0.0994
 6198POPC   C4A75164   5.860  29.117   4.920  0.1871 -0.2387  0.0172
 6198POPC   C1B75165   6.485  27.788   4.440 -0.0128 -0.2698  0.1136
 6198POPC   C2B75166   6.479  27.769   4.898 -0.0497 -0.0165 -0.2493
 6198POPC   C3B75167   6.366  27.564   5.300  0.1050 -0.3043 -0.0887
 6198POPC   C4B75168   6.053  27.664   5.630  0.2411  0.0167  0.1206
 6199POPC   NC375169  15.612   9.268   3.752 -0.1831  0.2548  0.0420
 6199POPC   PO475170  15.427   9.560   3.523  0.0937  0.0000  0.1245
 6199POPC   GL175171  15.196   9.658   3.792 -0.1690 -0.1163  0.1260
 6199POPC   GL275172  15.380   9.616   4.012  0.2344  0.0242 -0.1079
 6199POPC   C1A75173  14.991  10.056   3.673 -0.0818  0.1096 -0.1365
 6199POPC   D2A75174  14.646  10.320   3.726 -0.1417 -0.0875 -0.2390
 6199POPC   C3A75175  14.827  10.522   4.074  0.2169  0.1659  0.0179
 6199POPC   C4A75176  14.872  10.958   4.240 -0.0186 -0.1794 -0.0909
 6199POPC   C1B75177  14.976   9.632   4.218 -0.0935 -0.0195 -0.0392
 6199POPC   C2B75178  14.831   9.771   4.627 -0.1258 -0.0237  0.0241
 6199POPC   C3B75179  14.813   9.807   5.124 -0.0166 -0.1249  0.0280
 6199POPC   C4B75180  14.593   9.576   5.489 -0.0852  0.1408 -0.0272
 6200POPC   NC375181  12.246   4.228   3.720 -0.0002  0.3313  0.1544
 6200POPC   PO475182  11.848   4.177   3.529 -0.0258 -0.0403  0.1300
 6200POPC   GL175183  11.811   4.237   3.936 -0.3006 -0.0162  0.7018
 6200POPC   GL275184  11.568   4.253   3.998 -0.1909 -0.0715 -0.0361
 6200POPC   C1A75185  12.104   3.984   4.208 -0.0511  0.1136  0.0442
 6200POPC   D2A75186  12.477   3.975   4.556 -0.0944  0.2377  0.2739
 6200POPC   C3A75187  12.427   3.656   4.882  0.0719  0.0846  0.1560
 6200POPC   C4A75188  12.214   3.596   5.251 -0.0570 -0.2086  0.0407
 6200POPC   C1B75189  11.657   4.235   4.449  0.1379  0.2034  0.4606
 6200POPC   C2B75190  11.573   4.092   4.858  0.2615 -0.1457  0.0135
 6200POPC   C3B75191  11.696   3.764   5.199  0.1460  0.0880 -0.4457
 6200POPC   C4B75192  11.784   3.790   5.654  0.0198 -0.0759 -0.0149
 6201POPC   NC375193  15.047  31.532   3.556 -0.2080  0.1469  0.2497
 6201POPC   PO475194  15.060  31.868   3.738  0.1923 -0.1996  0.1549
 6201POPC   GL175195  15.253  31.855   4.044  0.0485  0.1881  0.6154
 6201POPC   GL275196  15.026  32.048   4.239 -0.0718 -0.0069 -0.1014
 6201POPC   C1A75197  15.351  31.594   4.422  0.1245  0.0107  0.3103
 6201POPC   D2A75198  15.461  31.348   4.789 -0.0875  0.0257 -0.1593
 6201POPC   C3A75199  15.148  31.182   5.094  0.0161 -0.1218 -0.3614
 6201POPC   C4A75200  15.102  30.915   5.519  0.0126  0.0285 -0.0779
 6201POPC   C1B75201  14.901  31.947   4.680 -0.2350 -0.1913  0.1832
 6201POPC   C2B75202  14.706  32.117   5.078  0.0936  0.1402 -0.0430
 6201POPC   C3B75203  14.595  32.038   5.471  0.0118 -0.1622 -0.2256
 6201POPC   C4B75204  14.381  31.751   5.790 -0.1120 -0.2091 -0.0878
 6202POPC   NC375205  25.639  13.866   3.688 -0.0410  0.2978 -0.1858
 6202POPC   PO475206  25.417  13.554   3.630  0.0851 -0.0455 -0.1801
 6202POPC   GL175207  25.601  13.504   3.979 -0.3615 -0.2112  0.0310
 6202POPC   GL275208  25.470  13.414   4.207 -0.1342  0.3081 -0.2537
 6202POPC   C1A75209  25.898  13.734   4.311  0.2731  0.2134  0.4121
 6202POPC   D2A75210  25.834  13.860   4.755 -0.0163 -0.1177 -0.1829
 6202POPC   C3A75211  26.085  14.191   5.030  0.0657  0.3512 -0.0644
 6202POPC   C4A75212  26.109  14.268   5.546  0.1466 -0.3069  0.2128
 6202POPC   C1B75213  25.553  13.328   4.625  0.0668 -0.2756  0.2983
 6202POPC   C2B75214  25.851  13.101   4.951  0.0665 -0.3338  0.2782
 6202POPC   C3B75215  26.175  12.944   5.205 -0.1159 -0.1205  0.2184
 6202POPC   C4B75216  26.612  12.828   5.302  0.0554  0.0797  0.0224
 6203POPC   NC375217  27.768  13.919   3.318 -0.0034 -0.0008 -0.2358
 6203POPC   PO475218  28.127  13.710   3.408  0.1158 -0.2007 -0.1390
 6203POPC   GL175219  27.964  13.604   3.818 -0.0911  0.0426 -0.2239
 6203POPC   GL275220  28.244  13.505   3.932 -0.0743  0.0301  0.1562
 6203POPC   C1A75221  27.850  13.448   4.293 -0.1281  0.2773  0.1413
 6203POPC   D2A75222  27.656  13.701   4.558  0.1206 -0.2207  0.1455
 6203POPC   C3A75223  27.888  14.098   4.678 -0.2871  0.2724 -0.0515
 6203POPC   C4A75224  27.706  14.552   4.643 -0.0263 -0.0712  0.2733
 6203POPC   C1B75225  28.403  13.280   4.342  0.2696  0.0196  0.0584
 6203POPC   C2B75226  28.549  13.142   4.736  0.1117  0.3855  0.0549
 6203POPC   C3B75227  28.445  13.050   5.250  0.3017 -0.1056  0.0614
 6203POPC   C4B75228  28.227  13.124   5.668  0.3251 -0.0327 -0.1277
 6204POPC   NC375229   3.203  17.325   3.178 -0.1675  0.1019 -0.1297
 6204POPC   PO475230   2.844  17.242   3.297 -0.1555  0.1057 -0.1409
 6204POPC   GL175231   3.050  17.282   3.611 -0.0705  0.0326 -0.1966
 6204POPC   GL275232   3.222  17.535   3.626 -0.1108  0.1512  0.2263
 6204POPC   C1A75233   3.042  17.228   4.061  0.1725  0.0180  0.0203
 6204POPC   D2A75234   3.101  17.447   4.492  0.3716  0.4272  0.2531
 6204POPC   C3A75235   3.096  17.227   4.934 -0.0148 -0.0324 -0.0754
 6204POPC   C4A75236   3.204  16.949   5.293  0.2738 -0.1141 -0.0478
 6204POPC   C1B75237   2.947  17.740   3.882 -0.2053  0.2810  0.0953
 6204POPC   C2B75238   2.909  17.910   4.338  0.0731  0.1496  0.0546
 6204POPC   C3B75239   2.767  18.032   4.738  0.3381 -0.1761 -0.2246
 6204POPC   C4B75240   2.906  18.317   5.031  0.0970 -0.2228 -0.2182
 6205POPC   NC375241   1.395  25.933   3.403  0.1300  0.3073  0.1343
 6205POPC   PO475242   1.633  25.775   3.692 -0.0474 -0.0985 -0.1241
 6205POPC   GL175243   1.834  25.797   4.102  0.0973 -0.0876  0.1041
 6205POPC   GL275244   2.174  25.731   4.059 -0.1148  0.2035  0.0037
 6205POPC   C1A75245   1.663  25.726   4.475 -0.1566  0.1808  0.0954
 6205POPC   D2A75246   1.499  25.575   4.836 -0.2051  0.2175 -0.0867
 6205POPC   C3A75247   1.162  25.642   5.030 -0.0947 -0.0549  0.0475
 6205POPC   C4A75248   0.936  25.570   5.392  0.2556 -0.1263 -0.1842
 6205POPC   C1B75249   2.386  25.981   4.376 -0.1809 -0.4071  0.0630
 6205POPC   C2B75250   2.398  26.133   4.830  0.0138 -0.2282  0.5991
 6205POPC   C3B75251   2.195  26.136   5.210 -0.3826 -0.2964  0.1989
 6205POPC   C4B75252   2.042  26.204   5.637  0.3916 -0.1570  0.1143
 6206POPC   NC375253  26.925   4.366   4.017  0.0066 -0.0513  0.1579
 6206POPC   PO475254  26.991   3.998   3.919 -0.0040  0.0133  0.1603
 6206POPC   GL175255  26.774   3.966   4.288  0.0724  0.1599 -0.0382
 6206POPC   GL275256  26.681   4.250   4.500 -0.0287 -0.1997  0.0860
 6206POPC   C1A75257  26.837   3.540   4.581  0.0159 -0.0379  0.0282
 6206POPC   D2A75258  26.917   3.437   5.019  0.0712 -0.1226 -0.3791
 6206POPC   C3A75259  27.097   3.864   5.225  0.3984  0.0345 -0.1980
 6206POPC   C4A75260  27.373   4.176   5.368  0.0273 -0.1279  0.0860
 6206POPC   C1B75261  27.060   3.985   4.623 -0.0622 -0.0608 -0.2028
 6206POPC   C2B75262  27.340   3.675   4.888 -0.2541 -0.1281  0.2669
 6206POPC   C3B75263  27.381   3.378   5.241  0.0632 -0.0731 -0.0849
 6206POPC   C4B75264  27.421   3.174   5.656  0.0778  0.1858 -0.0474
 6207POPC   NC375265  27.661   6.683   3.327 -0.1279 -0.0736 -0.0824
 6207POPC   PO475266  27.458   6.566   3.649  0.0458  0.0016 -0.2187
 6207POPC   GL175267  27.684   6.592   4.023 -0.1487  0.0988  0.0346
 6207POPC   GL275268  27.503   6.829   4.202 -0.1021  0.4378  0.0141
 6207POPC   C1A75269  27.786   6.453   4.449  0.2897  0.0500 -0.4790
 6207POPC   D2A75270  27.586   6.260   4.842  0.0351  0.2823 -0.2352
 6207POPC   C3A75271  27.366   6.294   5.236 -0.2094 -0.3001 -0.1709
 6207POPC   C4A75272  27.124   6.264   5.631  0.4872 -0.2089 -0.2367
 6207POPC   C1B75273  27.368   6.693   4.637  0.0109  0.1270 -0.0651
 6207POPC   C2B75274  27.516   6.797   5.064  0.2333  0.2400 -0.0677
 6207POPC   C3B75275  27.456   6.824   5.531  0.2645  0.0404  0.1795
 6207POPC   C4B75276  27.146   7.035   5.744  0.3190 -0.0705 -0.0395
 6208POPC   NC375277   1.926  31.724   3.633 -0.0991  0.0187 -0.0506
 6208POPC   PO475278   2.188  32.027   3.492 -0.0254  0.2645 -0.1880
 6208POPC   GL175279   1.955  32.189   3.748  0.0679 -0.3316  0.1044
 6208POPC   GL275280   2.134  32.069   4.003  0.1473  0.0646 -0.3103
 6208POPC   C1A75281   1.583  31.964   3.926  0.1432  0.1455 -0.1578
 6208POPC   D2A75282   1.153  31.773   3.995 -0.2075  0.1653 -0.0108
 6208POPC   C3A75283   0.859  31.899   4.386 -0.3022 -0.2180 -0.1822
 6208POPC   C4A75284   0.917  32.159   4.825 -0.1021 -0.2154 -0.0171
 6208POPC   C1B75285   1.808  32.035   4.355 -0.1395  0.0507  0.1004
 6208POPC   C2B75286   1.736  31.820   4.777  0.4019  0.1154  0.0803
 6208POPC   C3B75287   1.540  31.977   5.178  0.0480 -0.0509  0.0088
 6208POPC   C4B75288   1.448  31.763   5.590 -0.0978  0.1008  0.1410
 6209POPC   NC375289  29.509  14.888   3.467  0.0889 -0.0656  0.0964
 6209POPC   PO475290  29.148  14.781   3.540 -0.1435 -0.0398 -0.0815
 6209POPC   GL175291  29.065  14.774   4.036  0.2979  0.1778 -0.1333
 6209POPC   GL275292  29.319  14.936   4.056  0.0816 -0.1901 -0.2315
 6209POPC   C1A75293  28.873  14.940   4.441  0.0576 -0.2817 -0.1236
 6209POPC   D2A75294  28.664  15.076   4.795  0.2267  0.2348 -0.0448
 6209POPC   C3A75295  28.763  14.811   5.211 -0.0411 -0.0735  0.2133
 6209POPC   C4A75296  28.746  14.796   5.712  0.1471 -0.1317 -0.1330
 6209POPC   C1B75297  29.110  15.322   4.245  0.1769  0.0666  0.1061
 6209POPC   C2B75298  29.245  15.720   4.451  0.0542  0.1551 -0.1552
 6209POPC   C3B75299  29.174  15.798   4.868 -0.0019 -0.1407  0.1824
 6209POPC   C4B75300  29.368  16.083   5.153  0.5210 -0.2296  0.0892
 6210POPC   NC375301  14.146  26.966   3.651 -0.0247 -0.1513 -0.0188
 6210POPC   PO475302  14.110  26.705   3.945 -0.0344 -0.0767 -0.1770
 6210POPC   GL175303  14.110  26.898   4.345 -0.2963 -0.1060 -0.0818
 6210POPC   GL275304  13.867  26.757   4.498 -0.3201 -0.2312  0.2111
 6210POPC   C1A75305  14.470  27.097   4.610  0.0102 -0.3013  0.2302
 6210POPC   D2A75306  14.713  27.435   4.548  0.4566  0.1000 -0.3931
 6210POPC   C3A75307  15.047  27.570   4.872 -0.2654  0.2085 -0.2346
 6210POPC   C4A75308  15.288  27.229   5.101 -0.2379  0.0509  0.0296
 6210POPC   C1B75309  13.454  26.491   4.515 -0.2752  0.0336  0.2621
 6210POPC   C2B75310  13.445  26.267   4.942  0.3189  0.0201  0.3275
 6210POPC   C3B75311  13.576  26.167   5.396  0.0404 -0.1333  0.0106
 6210POPC   C4B75312  13.878  26.306   5.710 -0.1021 -0.0194 -0.3117
 6211POPC   NC375313  15.194  30.679   3.594 -0.0175 -0.0827 -0.0746
 6211POPC   PO475314  15.062  31.040   3.602 -0.1602  0.1532  0.1041
 6211POPC   GL175315  15.119  30.936   4.023  0.0989 -0.1330  0.0361
 6211POPC   GL275316  15.303  30.721   4.088  0.0963 -0.0834  0.0492
 6211POPC   C1A75317  14.837  30.861   4.348  0.0934 -0.0444  0.0502
 6211POPC   D2A75318  14.751  30.593   4.755 -0.2208 -0.4016 -0.1889
 6211POPC   C3A75319  14.710  30.266   5.055 -0.2692 -0.3447  0.1110
 6211POPC   C4A75320  14.483  30.083   5.430  0.2165 -0.0337  0.1679
 6211POPC   C1B75321  15.199  30.494   4.484 -0.2087 -0.4105  0.4008
 6211POPC   C2B75322  15.164  30.272   4.887  0.0878 -0.0007  0.2749
 6211POPC   C3B75323  15.022  29.935   5.195  0.1883  0.1084 -0.1749
 6211POPC   C4B75324  14.869  29.764   5.615  0.0640 -0.2680 -0.3028
 6212POPC   NC375325  12.174   6.172   3.403  0.0916 -0.0534 -0.1825
 6212POPC   PO475326  11.871   6.000   3.455  0.0991 -0.0382  0.2109
 6212POPC   GL175327  11.906   5.869   3.900 -0.1826 -0.0249  0.0668
 6212POPC   GL275328  12.132   5.779   3.869  0.0559  0.0067 -0.1114
 6212POPC   C1A75329  12.028   6.107   4.276  0.4765  0.0868 -0.0932
 6212POPC   D2A75330  12.191   6.196   4.659 -0.1280  0.3775 -0.0119
 6212POPC   C3A75331  12.179   6.265   5.075  0.0811 -0.2417 -0.0095
 6212POPC   C4A75332  12.188   6.471   5.506  0.0530  0.1702  0.0549
 6212POPC   C1B75333  12.361   5.702   4.285 -0.2770 -0.1150  0.2289
 6212POPC   C2B75334  12.598   5.698   4.649 -0.0595 -0.1324  0.0407
 6212POPC   C3B75335  12.822   5.736   5.011 -0.1333  0.0933 -0.0049
 6212POPC   C4B75336  12.689   5.420   5.400  0.1704 -0.0466 -0.0481
 6213POPC   NC375337   7.321  12.744   3.201 -0.0603  0.3067  0.1045
 6213POPC   PO475338   7.462  13.107   3.318  0.1094  0.1334 -0.0092
 6213POPC   GL175339   7.264  12.931   3.620  0.0531 -0.0147 -0.1704
 6213POPC   GL275340   7.489  12.943   3.844 -0.4040  0.0716 -0.3769
 6213POPC   C1A75341   7.080  12.618   3.919 -0.5459 -0.3811 -0.0922
 6213POPC   D2A75342   6.775  12.408   4.202  0.2909 -0.0527  0.1060
 6213POPC   C3A75343   6.847  12.326   4.648 -0.3508  0.2461  0.0322
 6213POPC   C4A75344   6.588  12.544   5.010 -0.0028  0.3136 -0.1669
 6213POPC   C1B75345   7.389  12.881   4.283 -0.0891 -0.1824  0.0524
 6213POPC   C2B75346   7.250  13.199   4.569 -0.0458  0.2115  0.1392
 6213POPC   C3B75347   7.176  13.541   4.845 -0.1067 -0.2176 -0.3118
 6213POPC   C4B75348   7.056  13.904   5.167 -0.0284  0.1616 -0.1900
 6214POPC   NC375349  19.559   7.697   3.543  0.0410  0.0698 -0.1158
 6214POPC   PO475350  19.890   7.456   3.700  0.2916  0.4055 -0.0099
 6214POPC   GL175351  20.003   7.416   4.053  0.1724 -0.0629  0.1296
 6214POPC   GL275352  20.266   7.344   4.110  0.1218  0.2581  0.0834
 6214POPC   C1A75353  19.819   7.601   4.483 -0.0286  0.3708  0.2527
 6214POPC   D2A75354  19.636   7.618   4.829 -0.5316  0.2975 -0.1165
 6214POPC   C3A75355  19.692   7.311   5.148  0.0164  0.0322  0.2765
 6214POPC   C4A75356  19.578   7.057   5.484 -0.1915 -0.3491 -0.0671
 6214POPC   C1B75357  20.555   7.521   4.496 -0.3498 -0.1486  0.1777
 6214POPC   C2B75358  20.567   7.645   4.966 -0.0540  0.0956 -0.2780
 6214POPC   C3B75359  20.732   7.672   5.414 -0.0461 -0.0046  0.0847
 6214POPC   C4B75360  20.618   7.925   5.809  0.0207  0.0343  0.1005
 6215POPC   NC375361   6.935  25.037   3.874  0.0474  0.3245  0.0996
 6215POPC   PO475362   6.550  25.076   3.927 -0.0533 -0.0882  0.1283
 6215POPC   GL175363   6.455  25.393   4.209 -0.1941  0.1509 -0.0483
 6215POPC   GL275364   6.747  25.284   4.338 -0.2836  0.1772  0.1525
 6215POPC   C1A75365   6.522  25.549   4.649 -0.0285  0.1570  0.0649
 6215POPC   D2A75366   6.423  25.782   5.081 -0.0277 -0.1237 -0.0081
 6215POPC   C3A75367   6.834  26.059   5.132 -0.1972 -0.2508  0.0281
 6215POPC   C4A75368   7.184  26.315   5.293  0.3172  0.1486  0.4292
 6215POPC   C1B75369   6.661  25.090   4.726  0.1271 -0.0826 -0.1212
 6215POPC   C2B75370   6.410  24.954   5.058 -0.1019  0.3023 -0.1351
 6215POPC   C3B75371   6.097  25.074   5.463  0.0520  0.0101  0.2582
 6215POPC   C4B75372   5.690  25.103   5.674  0.0648  0.0301  0.2275
 6216POPC   NC375373   0.406  28.631   3.630  0.2944  0.1467 -0.0226
 6216POPC   PO475374   0.693  28.348   3.564 -0.1704  0.0938  0.2585
 6216POPC   GL175375   0.782  28.479   3.973 -0.0693 -0.1372  0.0309
 6216POPC   GL275376   0.511  28.562   4.125  0.0421  0.0035 -0.1286
 6216POPC   C1A75377   0.972  28.537   4.417  0.1489 -0.0343 -0.1389
 6216POPC   D2A75378   0.923  28.536   4.834 -0.0018 -0.1028  0.2086
 6216POPC   C3A75379   1.168  28.744   5.163  0.1866 -0.1289 -0.1931
 6216POPC   C4A75380   1.568  28.807   5.323 -0.2790  0.0997 -0.2573
 6216POPC   C1B75381   0.477  28.716   4.506 -0.2159  0.0586 -0.0526
 6216POPC   C2B75382   0.502  28.997   4.894  0.1773 -0.1175  0.1534
 6216POPC   C3B75383   0.818  29.081   5.202  0.2712 -0.1652 -0.1041
 6216POPC   C4B75384   1.250  29.175   5.376  0.1157 -0.0343 -0.2267
 6217POPC   NC375385  14.134  23.003   3.372  0.0125  0.2234  0.1173
 6217POPC   PO475386  14.485  23.126   3.517 -0.1822 -0.0362  0.0991
 6217POPC   GL175387  14.292  23.025   3.824 -0.0364  0.2162 -0.0394
 6217POPC   GL275388  14.405  22.764   4.062  0.0583 -0.1953  0.0060
 6217POPC   C1A75389  14.180  23.332   4.173 -0.3756  0.0706 -0.0409
 6217POPC   D2A75390  13.892  23.562   4.488 -0.0898 -0.0522 -0.2748
 6217POPC   C3A75391  13.568  23.371   4.735 -0.2598 -0.1877  0.1459
 6217POPC   C4A75392  13.286  23.341   5.079  0.1438  0.0660  0.0847
 6217POPC   C1B75393  14.807  22.882   4.242 -0.2506  0.0049 -0.0920
 6217POPC   C2B75394  14.997  22.914   4.658  0.1927 -0.0370 -0.0938
 6217POPC   C3B75395  15.323  22.981   4.924 -0.0199  0.1023 -0.4676
 6217POPC   C4B75396  15.346  23.043   5.333 -0.0321  0.3780 -0.3269
 6218POPC   NC375397   3.612  13.295   4.172  0.1694 -0.0201 -0.0421
 6218POPC   PO475398   3.864  13.623   4.146  0.0159 -0.0653 -0.1154
 6218POPC   GL175399   4.133  13.699   4.454  0.0556  0.3819 -0.3371
 6218POPC   GL275400   4.195  13.464   4.511 -0.1699  0.0044  0.0215
 6218POPC   C1A75401   3.996  13.997   4.791 -0.0875  0.1309  0.0569
 6218POPC   D2A75402   4.025  14.168   5.214 -0.0078  0.2023 -0.3088
 6218POPC   C3A75403   4.187  14.490   5.460 -0.0206 -0.1235 -0.1949
 6218POPC   C4A75404   4.035  14.746   5.790 -0.0039  0.1722 -0.0002
 6218POPC   C1B75405   4.091  13.522   4.919  0.1137  0.1329  0.2125
 6218POPC   C2B75406   4.317  13.773   5.263 -0.0415 -0.1421 -0.1693
 6218POPC   C3B75407   4.545  14.097   5.537 -0.2566 -0.1606  0.0950
 6218POPC   C4B75408   4.537  14.486   5.796 -0.0695 -0.2588  0.1478
 6219POPC   NC375409   8.222  18.502   3.552 -0.1464  0.1483 -0.0015
 6219POPC   PO475410   7.939  18.742   3.541  0.2439 -0.1551 -0.0482
 6219POPC   GL175411   7.814  18.800   3.981  0.5093 -0.2001  0.3631
 6219POPC   GL275412   7.762  18.511   3.965 -0.0058 -0.2771  0.3764
 6219POPC   C1A75413   7.996  18.736   4.396  0.2021 -0.0068 -0.1251
 6219POPC   D2A75414   8.149  18.384   4.593 -0.2636 -0.4265 -0.0931
 6219POPC   C3A75415   8.241  18.239   5.053  0.0743  0.0170 -0.0107
 6219POPC   C4A75416   8.083  17.992   5.428 -0.0485 -0.0006  0.1544
 6219POPC   C1B75417   7.662  18.333   4.445 -0.3054  0.3320  0.2971
 6219POPC   C2B75418   7.766  18.556   4.835 -0.0791  0.0377  0.0202
 6219POPC   C3B75419   7.919  18.565   5.236  0.2707  0.2985  0.0170
 6219POPC   C4B75420   8.034  18.481   5.717  0.3065 -0.1228  0.2400
 6220POPC   NC375421  19.801   7.845   3.982 -0.0278 -0.2229  0.1088
 6220POPC   PO475422  19.433   8.056   3.871 -0.2201 -0.0942 -0.0855
 6220POPC   GL175423  19.335   8.163   4.237  0.3814 -0.0064  0.5497
 6220POPC   GL275424  19.242   7.991   4.358 -0.0924 -0.0710 -0.0627
 6220POPC   C1A75425  19.284   8.341   4.706  0.4424 -0.1638 -0.1023
 6220POPC   D2A75426  19.172   8.402   5.132  0.0370 -0.2323 -0.0737
 6220POPC   C3A75427  19.523   8.391   5.391  0.1238 -0.1849 -0.0592
 6220POPC   C4A75428  19.791   8.430   5.726 -0.1544  0.0645 -0.1490
 6220POPC   C1B75429  19.177   7.823   4.804 -0.0685  0.1447 -0.0468
 6220POPC   C2B75430  19.405   7.864   5.215 -0.1651 -0.1999  0.2101
 6220POPC   C3B75431  19.488   7.974   5.611 -0.2245 -0.0198  0.0838
 6220POPC   C4B75432  19.238   8.251   5.780 -0.0258  0.1838  0.0663
 6221POPC   NC375433  18.351  18.118   3.462 -0.1197 -0.2675  0.4228
 6221POPC   PO475434  18.139  18.050   3.732 -0.3051  0.0136 -0.3340
 6221POPC   GL175435  18.375  18.075   4.044 -0.3149  0.0059  0.0167
 6221POPC   GL275436  18.264  18.338   4.137 -0.1302 -0.2564 -0.1535
 6221POPC   C1A75437  18.123  17.948   4.452 -0.1560 -0.1478  0.1809
 6221POPC   D2A75438  18.209  17.722   4.813  0.2335  0.1440 -0.1249
 6221POPC   C3A75439  18.514  17.727   5.144  0.0246  0.4079  0.3887
 6221POPC   C4A75440  18.560  17.749   5.606 -0.0491 -0.1141 -0.0345
 6221POPC   C1B75441  18.669  18.593   4.206  0.1850 -0.1127 -0.2482
 6221POPC   C2B75442  19.037  18.760   4.405  0.2350 -0.1407  0.0066
 6221POPC   C3B75443  19.169  18.830   4.843 -0.1764 -0.2021  0.1272
 6221POPC   C4B75444  19.235  19.010   5.266  0.1723  0.2152 -0.0393
 6222POPC   NC375445   7.859   5.164   3.347 -0.0297 -0.1188 -0.2445
 6222POPC   PO475446   8.232   5.227   3.304 -0.1443 -0.1326 -0.1629
 6222POPC   GL175447   8.215   5.082   3.724  0.0914 -0.2069 -0.1622
 6222POPC   GL275448   8.494   4.895   3.728 -0.0426 -0.4362 -0.0611
 6222POPC   C1A75449   8.163   5.026   4.201  0.1248 -0.0332  0.0321
 6222POPC   D2A75450   8.166   4.744   4.540 -0.1016  0.0586  0.2159
 6222POPC   C3A75451   7.840   4.748   4.844  0.0512  0.2605 -0.2149
 6222POPC   C4A75452   7.558   4.839   5.172  0.1612 -0.1658  0.2849
 6222POPC   C1B75453   8.742   4.641   3.953  0.2851  0.0288 -0.1692
 6222POPC   C2B75454   8.868   4.357   4.282 -0.0763 -0.2155 -0.0243
 6222POPC   C3B75455   9.126   4.156   4.598  0.0694 -0.0544 -0.0298
 6222POPC   C4B75456   8.998   4.095   5.009  0.2167  0.0321  0.0419
 6223POPC   NC375457   8.497  25.273   3.224  0.1035 -0.0284 -0.1008
 6223POPC   PO475458   8.832  25.470   3.345  0.0868  0.1762  0.0991
 6223POPC   GL175459   8.886  25.435   3.849 -0.1293 -0.0520  0.4137
 6223POPC   GL275460   8.897  25.673   3.893 -0.0525  0.1779 -0.0508
 6223POPC   C1A75461   8.878  25.073   4.170 -0.0708 -0.1857 -0.0387
 6223POPC   D2A75462   8.658  24.866   4.445 -0.2060  0.2703  0.0441
 6223POPC   C3A75463   8.557  24.820   4.842 -0.2009 -0.2404 -0.0373
 6223POPC   C4A75464   8.308  24.661   5.221 -0.1585 -0.1309  0.1415
 6223POPC   C1B75465   8.620  25.552   4.211  0.1840  0.0547  0.4681
 6223POPC   C2B75466   8.424  25.769   4.595 -0.1516  0.2963  0.1946
 6223POPC   C3B75467   8.396  25.649   5.036  0.1482 -0.1710 -0.3655
 6223POPC   C4B75468   8.701  25.655   5.383 -0.0463  0.1911  0.1229
 6224POPC   NC375469  17.740  17.195   3.947 -0.4097  0.1768 -0.1651
 6224POPC   PO475470  17.528  17.488   3.796 -0.2079  0.0766 -0.1196
 6224POPC   GL175471  17.408  17.509   4.145  0.0694 -0.2611 -0.1928
 6224POPC   GL275472  17.451  17.325   4.389  0.0946  0.0800 -0.1596
 6224POPC   C1A75473  17.407  17.851   4.487 -0.1933 -0.2386 -0.0610
 6224POPC   D2A75474  17.746  18.062   4.756 -0.0462 -0.2616 -0.1811
 6224POPC   C3A75475  17.925  17.916   5.166  0.1853  0.1972 -0.0274
 6224POPC   C4A75476  17.959  17.721   5.603 -0.1412  0.0477 -0.1319
 6224POPC   C1B75477  17.627  17.404   4.780 -0.0436 -0.1083 -0.0144
 6224POPC   C2B75478  17.918  17.342   5.069  0.3138 -0.0780  0.0830
 6224POPC   C3B75479  18.356  17.278   5.335 -0.0430 -0.4583 -0.0455
 6224POPC   C4B75480  18.821  17.379   5.388  0.1326 -0.0988  0.1260
 6225POPC   NC375481  20.873   9.016   3.425  0.0480  0.0517  0.1386
 6225POPC   PO475482  21.206   9.044   3.635  0.0708  0.0691 -0.4640
 6225POPC   GL175483  21.335   9.001   3.936  0.0534  0.0743  0.0564
 6225POPC   GL275484  21.112   9.010   4.152 -0.0368  0.1782  0.0387
 6225POPC   C1A75485  21.515   9.391   4.100  0.0422  0.1386 -0.0117
 6225POPC   D2A75486  21.803   9.606   4.446  0.0341 -0.1724 -0.2902
 6225POPC   C3A75487  21.701   9.710   4.915 -0.0207 -0.0778  0.1254
 6225POPC   C4A75488  21.479   9.689   5.339  0.1339  0.1876  0.1797
 6225POPC   C1B75489  20.778   8.985   4.471  0.1908 -0.1091 -0.3468
 6225POPC   C2B75490  20.660   9.109   4.898  0.0192  0.1051  0.0692
 6225POPC   C3B75491  20.287   9.063   5.203  0.0168  0.2711 -0.3408
 6225POPC   C4B75492  19.908   9.003   5.007 -0.0299  0.2558  0.2570
 6226POPC   NC375493  21.809  25.378   3.455  0.1664 -0.1870 -0.1272
 6226POPC   PO475494  22.097  25.577   3.652 -0.0915  0.0204  0.1328
 6226POPC   GL175495  22.242  25.367   3.964  0.1106 -0.0172 -0.1546
 6226POPC   GL275496  22.150  25.539   4.176  0.1082 -0.1717 -0.0903
 6226POPC   C1A75497  22.515  25.317   4.384 -0.2255 -0.2619  0.2185
 6226POPC   D2A75498  22.942  25.205   4.486  0.2742  0.1075  0.1838
 6226POPC   C3A75499  23.271  25.272   4.799 -0.1749 -0.3257  0.0218
 6226POPC   C4A75500  23.358  25.559   5.168 -0.0554 -0.3927  0.1728
 6226POPC   C1B75501  22.241  25.805   4.552 -0.2671  0.1473  0.1985
 6226POPC   C2B75502  22.335  25.871   4.993 -0.1504  0.1939  0.2227
 6226POPC   C3B75503  22.487  25.942   5.390 -0.0602 -0.0949 -0.0713
 6226POPC   C4B75504  22.643  25.882   5.830 -0.1328  0.2692  0.1107
 6227POPC   NC375505  28.259  22.448   3.243 -0.0540 -0.0822  0.4489
 6227POPC   PO475506  28.232  22.810   3.448 -0.2269  0.1310 -0.0411
 6227POPC   GL175507  28.412  22.966   3.835 -0.2896  0.1824  0.1575
 6227POPC   GL275508  28.459  22.696   3.962  0.0048 -0.2650  0.2954
 6227POPC   C1A75509  28.362  23.013   4.281  0.0988 -0.0233 -0.0116
 6227POPC   D2A75510  27.967  23.132   4.475 -0.0427 -0.2075 -0.0410
 6227POPC   C3A75511  27.887  23.233   4.947 -0.0071  0.2059  0.1397
 6227POPC   C4A75512  27.872  23.234   5.383  0.1390 -0.4275 -0.3550
 6227POPC   C1B75513  28.762  22.656   4.285  0.0737 -0.0003 -0.2404
 6227POPC   C2B75514  28.969  22.546   4.638 -0.1466 -0.2887 -0.1244
 6227POPC   C3B75515  29.127  22.472   5.098  0.1592  0.0332  0.3130
 6227POPC   C4B75516  29.461  22.494   5.339  0.3422  0.0804  0.1309
 6228POPC   NC375517  14.073  26.247   3.771 -0.3737  0.0410  0.1961
 6228POPC   PO475518  13.726  26.285   3.914 -0.1361  0.0463 -0.2881
 6228POPC   GL175519  13.912  26.170   4.232 -0.4107  0.4672  0.0926
 6228POPC   GL275520  14.083  25.985   4.271  0.1796  0.1941 -0.0642
 6228POPC   C1A75521  13.768  26.021   4.621  0.1183  0.0516 -0.2263
 6228POPC   D2A75522  13.904  26.148   5.034 -0.0057  0.3631  0.0217
 6228POPC   C3A75523  14.260  25.938   5.244 -0.0821  0.0331  0.1228
 6228POPC   C4A75524  14.504  25.645   5.504 -0.2343  0.0045  0.4452
 6228POPC   C1B75525  14.293  26.001   4.678  0.0269  0.0609 -0.1233
 6228POPC   C2B75526  14.585  26.208   4.885  0.0709  0.0507 -0.0177
 6228POPC   C3B75527  15.017  26.293   5.150  0.1520  0.0020 -0.1663
 6228POPC   C4B75528  15.253  25.919   5.268 -0.2004 -0.0531 -0.4241
 6229POPC   NC375529  16.182  31.649   4.061  0.1958 -0.2491  0.0781
 6229POPC   PO475530  16.187  31.847   3.742 -0.0812 -0.1051 -0.0870
 6229POPC   GL175531  15.974  32.015   4.051  0.0280  0.0852 -0.0161
 6229POPC   GL275532  15.669  31.849   4.099  0.1832 -0.3658  0.1887
 6229POPC   C1A75533  16.075  32.013   4.504 -0.2765 -0.1857 -0.1065
 6229POPC   D2A75534  16.027  32.169   4.940  0.0197 -0.2422 -0.1112
 6229POPC   C3A75535  15.582  32.234   5.046 -0.0353 -0.2126 -0.0717
 6229POPC   C4A75536  15.233  31.911   5.060 -0.5546  0.0505 -0.0883
 6229POPC   C1B75537  15.766  31.448   4.214 -0.2275 -0.0661 -0.0968
 6229POPC   C2B75538  15.960  31.122   4.511 -0.2180 -0.1195 -0.1933
 6229POPC   C3B75539  16.096  30.741   4.722  0.2334 -0.1395 -0.1527
 6229POPC   C4B75540  16.018  30.434   5.078  0.0121 -0.3277  0.3145
 6230POPC   NC375541  26.108   6.513   3.927  0.1307  0.2748  0.0560
 6230POPC   PO475542  26.534   6.442   3.876 -0.0129 -0.3044 -0.2336
 6230POPC   GL175543  26.400   6.379   4.259  0.0767  0.1035  0.1080
 6230POPC   GL275544  26.268   6.498   4.408 -0.1652 -0.0821 -0.0201
 6230POPC   C1A75545  26.541   6.166   4.679  0.1168  0.1190 -0.1849
 6230POPC   D2A75546  26.849   5.956   5.077  0.0851 -0.0797  0.0839
 6230POPC   C3A75547  26.862   5.696   5.389 -0.0701  0.3142 -0.0834
 6230POPC   C4A75548  26.598   5.628   5.789  0.1991  0.0124  0.0406
 6230POPC   C1B75549  26.330   6.665   4.810 -0.1492  0.2560 -0.0107
 6230POPC   C2B75550  26.184   6.660   5.248  0.0131  0.5298  0.2265
 6230POPC   C3B75551  25.824   6.709   5.464 -0.1587 -0.0129 -0.0858
 6230POPC   C4B75552  25.617   6.797   5.891 -0.1906  0.0027  0.0912
 6231POPC   NC375553  10.355  10.802   3.616  0.1362 -0.2904 -0.1622
 6231POPC   PO475554  10.381  10.600   3.961  0.0213  0.0683 -0.0597
 6231POPC   GL175555  10.373  10.531   4.322 -0.2879  0.1599 -0.1060
 6231POPC   GL275556  10.334  10.270   4.370 -0.0327 -0.0746  0.2134
 6231POPC   C1A75557  10.632  10.652   4.663  0.0018 -0.2939  0.1420
 6231POPC   D2A75558  10.653  10.878   5.052 -0.1788  0.0932  0.0454
 6231POPC   C3A75559  10.638  10.530   5.320 -0.1948 -0.0789 -0.1273
 6231POPC   C4A75560  10.666  10.159   5.581  0.1161 -0.0097 -0.2146
 6231POPC   C1B75561  10.431   9.926   4.665  0.0461 -0.4394  0.0632
 6231POPC   C2B75562  10.176   9.716   4.969 -0.2237 -0.2399 -0.0783
 6231POPC   C3B75563  10.066   9.780   5.452  0.0751 -0.0100  0.0483
 6231POPC   C4B75564  10.259   9.876   5.847  0.1380 -0.2263 -0.0387
 6232POPC   NC375565   8.770   9.235   3.898 -0.0242  0.0702 -0.4230
 6232POPC   PO475566   8.478   9.229   4.154  0.0279  0.0897 -0.1264
 6232POPC   GL175567   8.344   9.112   4.523  0.3169 -0.1777  0.1508
 6232POPC   GL275568   8.375   8.808   4.451 -0.1609  0.1157 -0.1672
 6232POPC   C1A75569   8.300   9.044   4.939 -0.1112 -0.1568 -0.2531
 6232POPC   D2A75570   8.144   9.199   5.351  0.1710 -0.2209 -0.0391
 6232POPC   C3A75571   8.527   9.102   5.539 -0.4786 -0.0887  0.0077
 6232POPC   C4A75572   9.002   9.185   5.585  0.0737  0.0748  0.0287
 6232POPC   C1B75573   8.461   8.595   4.831 -0.1030  0.2765 -0.1768
 6232POPC   C2B75574   8.308   8.660   5.278  0.2673  0.2027 -0.1264
 6232POPC   C3B75575   8.287   8.670   5.712  0.1314 -0.0254 -0.0213
 6232POPC   C4B75576   8.451   8.936   6.017  0.1730 -0.1310 -0.1745
 6233POPC   NC375577  15.036  21.991   3.120 -0.0059 -0.2645 -0.2682
 6233POPC   PO475578  14.785  21.699   3.264 -0.1771  0.2106  0.1221
 6233POPC   GL175579  14.962  21.679   3.645  0.1687  0.1753  0.1335
 6233POPC   GL275580  15.212  21.920   3.616  0.0425  0.0464 -0.0983
 6233POPC   C1A75581  14.846  21.373   3.973  0.2121  0.0562  0.2495
 6233POPC   D2A75582  14.780  21.156   4.382  0.1880 -0.0288 -0.3736
 6233POPC   C3A75583  15.112  20.914   4.591 -0.1675 -0.4245 -0.1573
 6233POPC   C4A75584  15.307  20.669   4.950  0.2230 -0.2350  0.3012
 6233POPC   C1B75585  15.095  21.929   4.128  0.0229  0.0158  0.2143
 6233POPC   C2B75586  15.457  21.892   4.471 -0.0689 -0.1253  0.0299
 6233POPC   C3B75587  15.773  21.572   4.479  0.0083 -0.1654  0.1352
 6233POPC   C4B75588  16.076  21.319   4.219  0.0420 -0.2767  0.3229
 6234POPC   NC375589   6.400  20.019   3.558  0.2354 -0.0472  0.4992
 6234POPC   PO475590   6.034  20.026   3.534 -0.1182  0.0349 -0.0473
 6234POPC   GL175591   6.029  19.750   3.794 -0.2087 -0.0408 -0.0444
 6234POPC   GL275592   5.780  19.652   3.767 -0.1531  0.1157  0.0741
 6234POPC   C1A75593   6.123  19.846   4.303 -0.0294 -0.2860  0.0560
 6234POPC   D2A75594   6.083  19.898   4.749 -0.0046 -0.1316 -0.0216
 6234POPC   C3A75595   6.435  19.670   4.909 -0.0152  0.0446  0.2749
 6234POPC   C4A75596   6.620  19.374   5.182  0.0794  0.0946  0.2407
 6234POPC   C1B75597   5.736  19.542   4.286  0.2023  0.1555 -0.0427
 6234POPC   C2B75598   5.451  19.453   4.676 -0.1257 -0.0731 -0.0222
 6234POPC   C3B75599   5.082  19.269   4.927  0.2845 -0.0483  0.0113
 6234POPC   C4B75600   4.794  19.202   5.318  0.1956  0.1654 -0.1718
 6235POPC   NC375601  18.500  29.400   3.685  0.2141  0.1147  0.0615
 6235POPC   PO475602  18.811  29.546   3.839 -0.1171 -0.1564  0.4193
 6235POPC   GL175603  18.987  29.547   4.234 -0.3128  0.0603 -0.1449
 6235POPC   GL275604  19.251  29.596   4.170 -0.0210  0.1249  0.0973
 6235POPC   C1A75605  18.941  29.640   4.713 -0.2652  0.1705  0.0645
 6235POPC   D2A75606  18.904  29.861   5.150  0.0633 -0.2909 -0.2162
 6235POPC   C3A75607  18.585  29.720   5.470  0.0214 -0.2410  0.0408
 6235POPC   C4A75608  18.311  29.350   5.530 -0.0152  0.0177  0.1087
 6235POPC   C1B75609  19.602  29.422   4.360 -0.4455 -0.1100  0.0698
 6235POPC   C2B75610  19.922  29.145   4.580 -0.0487  0.0129 -0.0526
 6235POPC   C3B75611  20.130  28.811   4.860 -0.0623  0.0856 -0.1018
 6235POPC   C4B75612  20.101  28.329   4.957  0.0860 -0.0159 -0.0790
 6236POPC   NC375613  23.569  14.843   3.588 -0.4090 -0.2691 -0.1168
 6236POPC   PO475614  23.572  15.197   3.749  0.2373  0.2437  0.3218
 6236POPC   GL175615  23.580  14.984   4.016 -0.3672  0.1672 -0.0998
 6236POPC   GL275616  23.840  15.048   4.144 -0.2409 -0.0290 -0.3989
 6236POPC   C1A75617  23.367  14.971   4.428  0.2689  0.3499 -0.1866
 6236POPC   D2A75618  23.015  14.710   4.656  0.0026 -0.0087  0.0842
 6236POPC   C3A75619  22.988  14.611   5.060 -0.2096 -0.0920 -0.0675
 6236POPC   C4A75620  22.814  14.671   5.489  0.0309  0.1772  0.1984
 6236POPC   C1B75621  23.682  14.608   4.299 -0.0219 -0.1522  0.2131
 6236POPC   C2B75622  23.412  14.427   4.605  0.1511 -0.0870  0.0777
 6236POPC   C3B75623  23.446  14.241   5.043  0.1225 -0.1362 -0.3003
 6236POPC   C4B75624  23.312  14.514   5.413  0.1038  0.0251 -0.2284
 6237POPC   NC375625  14.931  26.246   3.828  0.3782  0.0832 -0.0399
 6237POPC   PO475626  15.253  26.046   3.854 -0.1007  0.2649 -0.0411
 6237POPC   GL175627  15.186  26.013   4.281  0.0520  0.1792  0.2079
 6237POPC   GL275628  15.274  26.326   4.275  0.0221 -0.0002 -0.4994
 6237POPC   C1A75629  15.147  25.886   4.702 -0.2583 -0.1227  0.3887
 6237POPC   D2A75630  15.385  25.553   4.933  0.1255  0.1278  0.0885
 6237POPC   C3A75631  15.517  25.136   4.967 -0.0966  0.2392  0.0852
 6237POPC   C4A75632  15.745  24.871   5.219 -0.3412  0.5559 -0.4843
 6237POPC   C1B75633  15.473  26.294   4.747 -0.1530  0.0908 -0.0185
 6237POPC   C2B75634  15.550  26.374   5.172 -0.1898  0.1477 -0.0658
 6237POPC   C3B75635  15.761  26.564   5.555  0.2241 -0.1472  0.1746
 6237POPC   C4B75636  15.826  26.625   6.008  0.1835 -0.0089  0.0519
 6238POPC   NC375637  17.293   3.241   3.191 -0.0387  0.0526  0.5573
 6238POPC   PO475638  17.294   3.014   3.493 -0.3684  0.2976  0.0300
 6238POPC   GL175639  17.514   2.884   3.860 -0.0701 -0.2035 -0.0806
 6238POPC   GL275640  17.787   2.874   3.928  0.0949  0.0432 -0.2958
 6238POPC   C1A75641  17.558   3.212   4.181  0.2302  0.1788 -0.2357
 6238POPC   D2A75642  17.697   3.639   4.354  0.0899  0.3355  0.4102
 6238POPC   C3A75643  17.832   3.976   4.649 -0.1204 -0.3481  0.2446
 6238POPC   C4A75644  18.182   4.193   4.947 -0.2171  0.2047  0.0846
 6238POPC   C1B75645  17.685   2.796   4.422 -0.1249  0.0618 -0.2480
 6238POPC   C2B75646  17.544   2.887   4.855  0.0415 -0.2156  0.0149
 6238POPC   C3B75647  17.512   3.030   5.320 -0.2890  0.0318 -0.0602
 6238POPC   C4B75648  17.435   3.333   5.704  0.2586  0.0871  0.4830
 6239POPC   NC375649   9.989   2.981   3.258 -0.1916 -0.1001 -0.3612
 6239POPC   PO475650  10.255   2.780   3.557  0.1756 -0.2255  0.1363
 6239POPC   GL175651  10.266   2.974   3.891 -0.2446  0.0260  0.0549
 6239POPC   GL275652  10.520   3.103   3.919 -0.2382  0.1717  0.1734
 6239POPC   C1A75653  10.382   2.938   4.363  0.4915  0.0222  0.1301
 6239POPC   D2A75654  10.185   2.744   4.712 -0.0901 -0.0796 -0.1285
 6239POPC   C3A75655  10.367   2.980   5.078 -0.0700  0.2144 -0.0468
 6239POPC   C4A75656  10.432   3.175   5.505 -0.0934 -0.1057  0.2453
 6239POPC   C1B75657  10.240   3.380   4.148  0.2533 -0.0145 -0.2457
 6239POPC   C2B75658  10.060   3.706   4.453  0.0671  0.0791  0.0301
 6239POPC   C3B75659  10.140   3.846   4.904 -0.0575  0.2493  0.1343
 6239POPC   C4B75660   9.964   3.873   5.357  0.2251 -0.0725 -0.0534
 6240POPC   NC375661   7.311   0.724   4.116 -0.0579  0.1175 -0.3800
 6240POPC   PO475662   7.652   0.651   4.066 -0.0354 -0.0311 -0.2042
 6240POPC   GL175663   7.653   0.615   4.453 -0.3878 -0.4378  0.0968
 6240POPC   GL275664   7.627   0.358   4.471  0.1684 -0.0189 -0.0392
 6240POPC   C1A75665   8.087   0.446   4.633 -0.0137 -0.2513 -0.0617
 6240POPC   D2A75666   8.385   0.395   5.011  0.1481  0.0661  0.1150
 6240POPC   C3A75667   8.549   0.034   4.983  0.2366 -0.2335 -0.1697
 6240POPC   C4A75668   8.401  -0.392   5.064  0.0562  0.0505 -0.1270
 6240POPC   C1B75669   7.637   0.350   4.887  0.0657  0.0267 -0.1798
 6240POPC   C2B75670   7.722   0.254   5.327  0.1877 -0.1556  0.0922
 6240POPC   C3B75671   7.757  -0.122   5.588  0.0712 -0.0424  0.0320
 6240POPC   C4B75672   7.699  -0.621   5.557 -0.1659 -0.0745  0.0653
 6241POPC   NC375673  25.932  15.712   4.197  0.0270 -0.0054 -0.0739
 6241POPC   PO475674  26.023  15.345   4.082  0.1209 -0.4010  0.0436
 6241POPC   GL175675  25.753  15.261   4.319 -0.0915  0.1020  0.1276
 6241POPC   GL275676  25.520  15.386   4.219 -0.0733  0.0256  0.0633
 6241POPC   C1A75677  25.782  15.067   4.724  0.1047 -0.2382  0.1578
 6241POPC   D2A75678  25.604  14.937   5.131 -0.1045 -0.0710 -0.3695
 6241POPC   C3A75679  25.709  14.509   5.309  0.1585 -0.3689 -0.3574
 6241POPC   C4A75680  25.525  14.273   5.689  0.0531  0.1154 -0.2970
 6241POPC   C1B75681  25.351  15.359   4.646 -0.0273  0.1158 -0.0173
 6241POPC   C2B75682  25.094  15.200   5.062 -0.0326 -0.0474  0.0533
 6241POPC   C3B75683  24.834  14.949   5.347 -0.0718 -0.2008 -0.0271
 6241POPC   C4B75684  24.884  14.887   5.773 -0.1085  0.2966 -0.2639
 6242POPC   NC375685  13.096  15.561   3.671 -0.2411 -0.1922 -0.2302
 6242POPC   PO475686  13.086  15.895   3.511 -0.0564  0.1676  0.0558
 6242POPC   GL175687  13.225  15.978   3.875  0.0090 -0.1893 -0.0063
 6242POPC   GL275688  13.162  15.774   4.117 -0.1905 -0.1199  0.0894
 6242POPC   C1A75689  13.351  16.342   4.149  0.2012 -0.3709 -0.1471
 6242POPC   D2A75690  13.348  16.705   4.364  0.3019 -0.1168 -0.0438
 6242POPC   C3A75691  13.319  16.752   4.801 -0.0968 -0.3040 -0.2128
 6242POPC   C4A75692  12.956  16.800   5.080  0.3845  0.4069  0.2922
 6242POPC   C1B75693  13.537  15.500   4.016 -0.2870  0.1815 -0.2454
 6242POPC   C2B75694  13.884  15.187   4.276 -0.0123 -0.2690  0.1050
 6242POPC   C3B75695  13.948  15.039   4.651 -0.2005 -0.0510 -0.1002
 6242POPC   C4B75696  14.121  15.206   5.064 -0.1079 -0.0620 -0.1911
 6243POPC   NC375697   5.550  28.758   3.503  0.0765 -0.0192  0.0474
 6243POPC   PO475698   5.163  28.652   3.477  0.2120  0.2127 -0.0381
 6243POPC   GL175699   5.143  28.764   3.798  0.3641  0.0214  0.0152
 6243POPC   GL275700   5.390  28.854   3.959  0.1552 -0.4768  0.0305
 6243POPC   C1A75701   4.919  29.179   4.002 -0.1644  0.4828  0.0129
 6243POPC   D2A75702   4.847  29.602   3.963 -0.3873 -0.1025 -0.0262
 6243POPC   C3A75703   5.115  30.027   3.941 -0.2961 -0.1543 -0.0359
 6243POPC   C4A75704   5.287  30.281   4.334  0.0321  0.2040  0.1804
 6243POPC   C1B75705   5.256  28.975   4.393 -0.1515  0.4933 -0.3970
 6243POPC   C2B75706   5.308  29.228   4.778 -0.0299 -0.2782  0.3484
 6243POPC   C3B75707   5.165  29.537   5.076  0.0165  0.0206 -0.3798
 6243POPC   C4B75708   4.787  29.671   5.280  0.3422 -0.0485  0.0148
 6244POPC   NC375709  24.974  18.659   3.574  0.0994  0.3805  0.1387
 6244POPC   PO475710  24.871  18.878   3.853  0.3745  0.0991  0.0585
 6244POPC   GL175711  24.977  18.794   4.155  0.0746 -0.1725  0.6748
 6244POPC   GL275712  25.061  18.528   4.175  0.1905  0.1151  0.0599
 6244POPC   C1A75713  25.299  18.819   4.523  0.1183 -0.0767  0.1462
 6244POPC   D2A75714  25.474  19.011   4.867  0.2324 -0.1814  0.0305
 6244POPC   C3A75715  25.306  19.332   5.180  0.2925  0.1692  0.2030
 6244POPC   C4A75716  25.042  19.529   5.413  0.1797 -0.0851 -0.1653
 6244POPC   C1B75717  24.767  18.650   4.519 -0.1211 -0.0841 -0.2154
 6244POPC   C2B75718  24.651  18.516   4.993  0.1418  0.0967 -0.0455
 6244POPC   C3B75719  24.671  18.253   5.431  0.1936  0.0112 -0.1220
 6244POPC   C4B75720  24.999  18.081   5.765  0.0830  0.2890  0.2718
 6245POPC   NC375721   1.219   4.092   3.810  0.0754 -0.1385  0.2737
 6245POPC   PO475722   1.031   4.407   3.921  0.1597 -0.0526  0.1177
 6245POPC   GL175723   1.012   4.742   4.008  0.1608 -0.0990 -0.2121
 6245POPC   GL275724   0.795   4.808   4.124  0.2121 -0.1679 -0.4026
 6245POPC   C1A75725   1.271   5.053   4.270 -0.1150  0.0970 -0.4007
 6245POPC   D2A75726   1.449   5.195   4.671  0.0035 -0.0910 -0.0941
 6245POPC   C3A75727   1.705   5.221   5.045  0.1980 -0.0567  0.0467
 6245POPC   C4A75728   1.697   5.330   5.498 -0.0568 -0.0076  0.2645
 6245POPC   C1B75729   0.911   4.701   4.577 -0.0487 -0.1121 -0.0780
 6245POPC   C2B75730   0.917   4.673   5.070 -0.1149 -0.0004  0.1497
 6245POPC   C3B75731   0.826   4.577   5.501 -0.1369  0.4261 -0.0044
 6245POPC   C4B75732   0.394   4.650   5.703 -0.4728  0.2765  0.0888
 6246POPC   NC375733  20.272  30.830   3.513 -0.1938  0.0020 -0.0354
 6246POPC   PO475734  19.977  30.834   3.251 -0.1810  0.1391  0.1819
 6246POPC   GL175735  19.765  30.929   3.503 -0.0554  0.0927  0.2884
 6246POPC   GL275736  19.864  30.809   3.780  0.1017 -0.2193  0.3072
 6246POPC   C1A75737  19.787  31.306   3.754 -0.2609 -0.0216 -0.0999
 6246POPC   D2A75738  19.913  31.589   4.179 -0.0336  0.2148 -0.0392
 6246POPC   C3A75739  19.850  32.063   4.293 -0.3165 -0.0783 -0.1303
 6246POPC   C4A75740  19.732  32.472   4.162 -0.3540 -0.1642 -0.2724
 6246POPC   C1B75741  19.750  31.011   4.202 -0.0917  0.0773 -0.1139
 6246POPC   C2B75742  19.918  31.182   4.553 -0.0984 -0.1791  0.1714
 6246POPC   C3B75743  20.139  31.198   4.978 -0.0347 -0.0935  0.2290
 6246POPC   C4B75744  20.162  31.205   5.439 -0.1972 -0.1761  0.3003
 6247POPC   NC375745  28.599  19.508   3.454 -0.3087  0.0667  0.2612
 6247POPC   PO475746  28.868  19.685   3.722  0.0060 -0.3079 -0.1228
 6247POPC   GL175747  29.066  19.292   3.947 -0.1473 -0.1489  0.4429
 6247POPC   GL275748  29.082  19.186   3.653  0.2694  0.2828 -0.1894
 6247POPC   C1A75749  29.282  19.143   4.377 -0.0825  0.1426  0.0221
 6247POPC   D2A75750  29.325  19.316   4.822  0.1461 -0.0038 -0.0754
 6247POPC   C3A75751  29.037  19.062   5.057 -0.1890 -0.1232 -0.1379
 6247POPC   C4A75752  28.874  19.220   5.505 -0.0428  0.3759  0.0751
 6247POPC   C1B75753  28.923  18.769   3.580 -0.1773  0.0009 -0.3024
 6247POPC   C2B75754  28.758  18.329   3.794  0.1862 -0.3418  0.2028
 6247POPC   C3B75755  28.716  17.866   3.926 -0.0598  0.0666  0.5197
 6247POPC   C4B75756  28.731  17.465   3.789 -0.3442  0.1940  0.2071
 6248POPC   NC375757   4.222  27.934   4.047  0.0424  0.0593  0.0047
 6248POPC   PO475758   4.297  28.309   3.931 -0.1465  0.2133 -0.0897
 6248POPC   GL175759   4.582  28.337   4.206  0.0051 -0.0630  0.1993
 6248POPC   GL275760   4.386  28.336   4.487  0.1017 -0.0362 -0.0990
 6248POPC   C1A75761   4.796  28.728   4.256  0.1304  0.2270 -0.0599
 6248POPC   D2A75762   4.854  29.029   4.606 -0.1596  0.0648 -0.0402
 6248POPC   C3A75763   5.013  28.875   5.027 -0.1235  0.3294  0.2322
 6248POPC   C4A75764   5.038  28.625   5.408  0.0262 -0.1765 -0.2596
 6248POPC   C1B75765   4.398  28.141   4.935 -0.2097  0.3608  0.2921
 6248POPC   C2B75766   4.286  28.252   5.324  0.1080  0.1299 -0.0347
 6248POPC   C3B75767   3.928  28.276   5.643 -0.0464  0.0201  0.4198
 6248POPC   C4B75768   3.690  28.659   5.774  0.1942 -0.0106 -0.1439
 6249POPC   NC375769  24.348  17.151   4.391  0.0822  0.3616 -0.1358
 6249POPC   PO475770  24.242  16.800   4.548 -0.3332  0.1031  0.1301
 6249POPC   GL175771  24.228  16.860   4.907  0.0594 -0.1133 -0.2492
 6249POPC   GL275772  24.276  17.176   4.857  0.0018 -0.1972 -0.1877
 6249POPC   C1A75773  24.189  16.973   5.359 -0.0928 -0.0556  0.3384
 6249POPC   D2A75774  24.060  17.048   5.821  0.1220  0.0780  0.4261
 6249POPC   C3A75775  23.706  17.345   6.002  0.3153 -0.1388 -0.1138
 6249POPC   C4A75776  23.430  17.522   6.306  0.2591 -0.2900  0.2525
 6249POPC   C1B75777  23.925  17.281   5.066  0.0944  0.3298  0.2040
 6249POPC   C2B75778  23.685  17.083   5.438  0.1572  0.0310 -0.2859
 6249POPC   C3B75779  23.374  16.728   5.584  0.3722 -0.3197  0.1039
 6249POPC   C4B75780  23.039  16.643   5.901 -0.2090 -0.2452  0.1255
 6250POPC   NC375781  23.622  17.952   3.839 -0.3109 -0.2321  0.2980
 6250POPC   PO475782  23.517  17.710   4.112  0.2228 -0.0555  0.2048
 6250POPC   GL175783  23.479  17.848   4.506  0.4497 -0.0952  0.3742
 6250POPC   GL275784  23.679  17.912   4.657 -0.2538  0.2307  0.1203
 6250POPC   C1A75785  23.333  18.031   4.956 -0.1487 -0.0593 -0.0444
 6250POPC   D2A75786  23.399  18.068   5.432 -0.0719 -0.0550  0.0036
 6250POPC   C3A75787  23.021  17.769   5.582  0.1051  0.2344 -0.1888
 6250POPC   C4A75788  22.570  17.607   5.692 -0.0766  0.1787  0.0549
 6250POPC   C1B75789  23.763  18.085   5.095 -0.2498 -0.1325 -0.0181
 6250POPC   C2B75790  23.924  17.946   5.542 -0.0939  0.1404  0.1729
 6250POPC   C3B75791  23.960  17.791   6.031  0.0674 -0.0754  0.1750
 6250POPC   C4B75792  24.080  17.599   6.448 -0.2376 -0.1699 -0.1073
 6251POPC   NC375793  26.538   5.650   3.682 -0.1113 -0.2351  0.1002
 6251POPC   PO475794  26.615   5.269   3.646  0.1119 -0.0603 -0.0509
 6251POPC   GL175795  26.621   5.313   4.080 -0.0603 -0.0939 -0.0640
 6251POPC   GL275796  26.693   5.586   4.250 -0.2442  0.0474  0.1791
 6251POPC   C1A75797  26.463   5.286   4.556 -0.1465  0.1062 -0.1201
 6251POPC   D2A75798  26.678   5.201   4.950  0.2890  0.1999  0.3261
 6251POPC   C3A75799  26.967   5.191   5.315 -0.2448 -0.2364  0.0196
 6251POPC   C4A75800  27.337   5.113   5.603  0.3537  0.1858 -0.3893
 6251POPC   C1B75801  26.976   5.761   4.536 -0.3210  0.0005  0.0613
 6251POPC   C2B75802  27.330   5.851   4.869 -0.0393 -0.1556 -0.0342
 6251POPC   C3B75803  27.731   5.872   5.156  0.0279 -0.0786 -0.0099
 6251POPC   C4B75804  27.935   6.043   5.587 -0.3060  0.3085  0.0323
 6252POPC   NC375805  14.206   8.508   3.504  0.1516  0.1173  0.1887
 6252POPC   PO475806  14.425   8.228   3.691  0.1182  0.1178  0.1562
 6252POPC   GL175807  14.189   8.297   3.963 -0.1281 -0.5508  0.0416
 6252POPC   GL275808  14.176   8.601   4.078  0.2146 -0.0713 -0.0003
 6252POPC   C1A75809  14.113   8.111   4.368 -0.1399  0.1690  0.1340
 6252POPC   D2A75810  14.234   7.993   4.797 -0.1054 -0.0090 -0.1110
 6252POPC   C3A75811  14.163   8.236   5.148  0.1552  0.4752 -0.1174
 6252POPC   C4A75812  13.922   8.134   5.541  0.1457  0.1123 -0.1152
 6252POPC   C1B75813  13.783   8.722   4.319  0.0474  0.1278  0.0468
 6252POPC   C2B75814  13.737   8.955   4.690 -0.1286 -0.0764  0.1223
 6252POPC   C3B75815  13.870   9.022   5.117  0.1363 -0.3024  0.1963
 6252POPC   C4B75816  13.807   9.180   5.529  0.3680  0.0515 -0.0170
 6253POPC   NC375817   2.840  10.631   3.350 -0.2075  0.0374  0.2430
 6253POPC   PO475818   3.158  10.832   3.481 -0.1627  0.0746  0.1062
 6253POPC   GL175819   3.305  10.825   3.943 -0.0064 -0.0416  0.1165
 6253POPC   GL275820   3.562  10.956   4.103 -0.1281  0.1529 -0.2727
 6253POPC   C1A75821   3.073  11.045   4.302  0.1605 -0.0340  0.0236
 6253POPC   D2A75822   2.870  11.260   4.654 -0.0555  0.0182 -0.2484
 6253POPC   C3A75823   2.648  11.508   4.920  0.2636  0.1159 -0.1818
 6253POPC   C4A75824   2.548  11.680   5.330  0.2960  0.0264  0.0751
 6253POPC   C1B75825   3.794  11.107   4.507  0.0693 -0.2343  0.0262
 6253POPC   C2B75826   4.149  11.313   4.707 -0.0100  0.0515  0.0019
 6253POPC   C3B75827   4.494  11.531   4.958  0.0893  0.0185  0.0928
 6253POPC   C4B75828   4.801  11.667   5.269 -0.2049 -0.0520 -0.1554
 6254POPC   NC375829   7.139  25.248   3.104  0.1582 -0.3415  0.1543
 6254POPC   PO475830   7.310  25.223   3.425  0.1785 -0.1594  0.0628
 6254POPC   GL175831   7.511  25.139   3.835 -0.2153 -0.1598  0.0294
 6254POPC   GL275832   7.520  25.400   4.003 -0.2053  0.0687  0.2394
 6254POPC   C1A75833   7.291  25.032   4.237  0.2979 -0.0698 -0.0974
 6254POPC   D2A75834   7.477  24.643   4.443  0.0501 -0.1617  0.1135
 6254POPC   C3A75835   7.461  24.703   4.871 -0.1859  0.0844 -0.2237
 6254POPC   C4A75836   7.506  24.735   5.318  0.0727  0.0970  0.3762
 6254POPC   C1B75837   7.337  25.512   4.407 -0.1771  0.0826 -0.0648
 6254POPC   C2B75838   7.147  25.261   4.692  0.2341 -0.1648  0.0236
 6254POPC   C3B75839   7.065  25.039   5.084 -0.1635 -0.0099 -0.0437
 6254POPC   C4B75840   6.765  24.977   5.469 -0.0532 -0.2252 -0.1450
 6255POPC   NC375841  17.793  15.717   4.102  0.1464  0.2042  0.3264
 6255POPC   PO475842  17.980  16.063   4.010 -0.0756 -0.1001 -0.1705
 6255POPC   GL175843  18.172  16.017   4.250 -0.0667  0.0538 -0.0599
 6255POPC   GL275844  18.259  15.705   4.341  0.3080  0.1442 -0.0465
 6255POPC   C1A75845  18.275  16.187   4.634 -0.1578 -0.0386 -0.2182
 6255POPC   D2A75846  18.276  16.134   5.081 -0.1037 -0.0065  0.1912
 6255POPC   C3A75847  18.676  16.004   5.337  0.0511 -0.4850  0.2140
 6255POPC   C4A75848  19.100  15.930   5.263 -0.1473  0.0246  0.3354
 6255POPC   C1B75849  18.160  15.674   4.826 -0.2075 -0.0476  0.3717
 6255POPC   C2B75850  18.297  15.661   5.215  0.1413 -0.1090 -0.2032
 6255POPC   C3B75851  18.243  15.744   5.674  0.2113  0.2531 -0.1919
 6255POPC   C4B75852  18.386  15.862   6.104 -0.1762 -0.1713 -0.0178
 6256POPC   NC375853  24.453   1.659   3.849  0.1242 -0.0755  0.1785
 6256POPC   PO475854  24.724   1.396   3.804 -0.1200 -0.0254 -0.1098
 6256POPC   GL175855  24.708   1.305   4.200 -0.3045 -0.0099  0.0908
 6256POPC   GL275856  24.469   1.416   4.321 -0.2016  0.0275  0.0115
 6256POPC   C1A75857  24.859   1.412   4.597 -0.1507  0.2668 -0.0897
 6256POPC   D2A75858  25.149   1.412   4.937  0.1770 -0.0146 -0.2924
 6256POPC   C3A75859  25.580   1.615   5.004  0.3874  0.0114  0.0510
 6256POPC   C4A75860  25.869   1.948   4.895 -0.1133  0.0503 -0.1381
 6256POPC   C1B75861  24.213   1.221   4.654 -0.0038  0.0734  0.2196
 6256POPC   C2B75862  23.851   1.048   4.907 -0.1393 -0.1185 -0.2684
 6256POPC   C3B75863  23.628   0.950   5.263 -0.0269 -0.0447  0.0723
 6256POPC   C4B75864  23.623   0.813   5.680 -0.1570 -0.0625 -0.1128
 6257POPC   NC375865   8.891  21.753   3.937 -0.0532 -0.1801 -0.3104
 6257POPC   PO475866   9.219  21.966   3.757 -0.0565  0.2627  0.2174
 6257POPC   GL175867   9.293  22.064   4.118  0.2354 -0.2271 -0.0273
 6257POPC   GL275868   9.293  21.830   4.281  0.0325  0.2298 -0.3216
 6257POPC   C1A75869   9.359  22.495   4.269  0.0877  0.1524 -0.0659
 6257POPC   D2A75870   9.357  22.858   4.584  0.1279  0.0918 -0.2207
 6257POPC   C3A75871   9.050  23.187   4.504 -0.1852 -0.1619 -0.0773
 6257POPC   C4A75872   8.858  23.518   4.280 -0.4139 -0.3234  0.3648
 6257POPC   C1B75873   9.103  21.720   4.700  0.1720  0.1032 -0.3805
 6257POPC   C2B75874   9.218  21.926   5.075  0.2144  0.2937 -0.0668
 6257POPC   C3B75875   9.245  22.348   5.330  0.1301  0.1154  0.1825
 6257POPC   C4B75876   9.388  22.713   5.061  0.2167  0.2343 -0.2047
 6258POPC   NC375877  19.848  26.462   3.284  0.1513 -0.0275  0.0880
 6258POPC   PO475878  19.993  26.614   3.615  0.1859  0.0374 -0.0670
 6258POPC   GL175879  19.909  26.594   3.934  0.5163  0.0473 -0.0759
 6258POPC   GL275880  19.624  26.570   4.095  0.1596  0.3721 -0.1366
 6258POPC   C1A75881  19.991  26.510   4.433 -0.0029  0.3700 -0.2835
 6258POPC   D2A75882  20.099  26.590   4.940  0.1866 -0.1428  0.3196
 6258POPC   C3A75883  19.936  26.908   5.237  0.1321 -0.0927  0.0745
 6258POPC   C4A75884  19.949  27.121   5.611  0.0039  0.0419 -0.1026
 6258POPC   C1B75885  19.425  26.358   4.456 -0.0497 -0.1842 -0.0976
 6258POPC   C2B75886  19.528  26.191   4.874  0.0455 -0.0076 -0.5087
 6258POPC   C3B75887  19.401  26.165   5.282  0.4118  0.1650 -0.1932
 6258POPC   C4B75888  19.106  26.056   5.610 -0.0795  0.2414 -0.0140
 6259POPC   NC375889  26.012  24.504   3.574 -0.1313  0.1109  0.1419
 6259POPC   PO475890  25.900  24.399   3.228  0.3030 -0.2927 -0.0856
 6259POPC   GL175891  25.543  24.451   3.279 -0.3072  0.1629 -0.0367
 6259POPC   GL275892  25.536  24.346   3.548 -0.2307 -0.2803 -0.0146
 6259POPC   C1A75893  25.302  24.782   3.442 -0.0630 -0.2675 -0.0825
 6259POPC   D2A75894  25.079  25.171   3.414  0.2357 -0.0568 -0.0907
 6259POPC   C3A75895  24.714  25.287   3.652 -0.3274  0.2909 -0.2501
 6259POPC   C4A75896  24.385  25.332   4.011  0.0732 -0.1019  0.2726
 6259POPC   C1B75897  25.302  24.503   3.985 -0.1466 -0.1502  0.1153
 6259POPC   C2B75898  25.007  24.648   4.293  0.1889  0.1206 -0.3234
 6259POPC   C3B75899  24.829  24.791   4.731 -0.1153  0.0266  0.0858
 6259POPC   C4B75900  24.517  24.908   5.116 -0.0376 -0.2476  0.1173
 6260POPC   NC375901  27.642  22.026   4.028  0.0707 -0.0576  0.4916
 6260POPC   PO475902  27.332  21.865   3.845 -0.0428 -0.1463 -0.2190
 6260POPC   GL175903  27.331  21.750   4.243  0.1401 -0.4482 -0.2584
 6260POPC   GL275904  27.439  21.920   4.500  0.1585 -0.0108 -0.3292
 6260POPC   C1A75905  27.435  21.386   4.525  0.0893 -0.0098  0.0528
 6260POPC   D2A75906  27.439  21.107   4.922  0.1763  0.0076  0.1904
 6260POPC   C3A75907  27.489  21.157   5.376 -0.0235 -0.0956  0.2116
 6260POPC   C4A75908  27.344  21.307   5.770  0.1046 -0.0043  0.0418
 6260POPC   C1B75909  27.471  22.011   4.911 -0.0030 -0.1496 -0.2922
 6260POPC   C2B75910  27.224  22.075   5.333  0.0457  0.0817 -0.1037
 6260POPC   C3B75911  27.155  22.403   5.690 -0.1942 -0.1848 -0.1912
 6260POPC   C4B75912  26.990  22.541   6.076 -0.0979  0.1150 -0.2232
 6261POPC   NC375913   9.614  19.461   3.805  0.0641  0.2081  0.2222
 6261POPC   PO475914   9.630  19.778   3.579 -0.2411  0.2205 -0.1504
 6261POPC   GL175915   9.700  19.930   3.930 -0.0066  0.1873  0.4552
 6261POPC   GL275916   9.468  19.927   4.016  0.0703  0.1507  0.0294
 6261POPC   C1A75917   9.802  19.697   4.344  0.0513 -0.1875 -0.0218
 6261POPC   D2A75918  10.030  19.561   4.756 -0.1260 -0.1453  0.1415
 6261POPC   C3A75919   9.863  19.124   4.696 -0.1383  0.0785  0.0192
 6261POPC   C4A75920   9.701  18.722   4.876  0.1248  0.0872  0.1877
 6261POPC   C1B75921   9.407  19.996   4.471  0.1132 -0.1271  0.2335
 6261POPC   C2B75922   9.579  19.973   4.886 -0.4847 -0.1073  0.0196
 6261POPC   C3B75923   9.699  19.830   5.306 -0.1633 -0.1911  0.2505
 6261POPC   C4B75924   9.698  19.535   5.679  0.1063  0.0647 -0.0583
 6262POPC   NC375925  21.073  24.803   3.863 -0.0649 -0.0303  0.2193
 6262POPC   PO475926  21.236  25.142   4.040  0.0339 -0.0120  0.0924
 6262POPC   GL175927  21.095  25.034   4.397  0.1554 -0.0757  0.2460
 6262POPC   GL275928  20.967  25.289   4.457  0.1854  0.2059 -0.3597
 6262POPC   C1A75929  21.027  24.868   4.831  0.2390  0.2804  0.0678
 6262POPC   D2A75930  20.792  24.667   5.185  0.0213  0.0186  0.1523
 6262POPC   C3A75931  20.719  24.400   5.588  0.0309  0.0053  0.1826
 6262POPC   C4A75932  20.388  24.218   5.844 -0.0319 -0.2544  0.1652
 6262POPC   C1B75933  20.920  25.461   4.894  0.0891  0.3004  0.1122
 6262POPC   C2B75934  20.991  25.578   5.309 -0.1515 -0.1453 -0.0383
 6262POPC   C3B75935  21.049  25.846   5.701 -0.2900 -0.0867 -0.2151
 6262POPC   C4B75936  21.280  25.925   6.072  0.1588  0.3104 -0.1475
 6263POPC   NC375937   9.035   0.457   4.324  0.2048  0.0479 -0.1949
 6263POPC   PO475938   9.282   0.727   4.229 -0.0237  0.2172  0.0132
 6263POPC   GL175939   9.266   0.905   4.581  0.2154  0.2079 -0.1345
 6263POPC   GL275940   9.301   0.661   4.793  0.1239 -0.2033  0.0274
 6263POPC   C1A75941   9.389   1.145   4.977  0.0985  0.1397 -0.3596
 6263POPC   D2A75942   9.388   1.101   5.473  0.0192  0.1124  0.1343
 6263POPC   C3A75943   9.587   1.350   5.774 -0.2123 -0.0919 -0.0580
 6263POPC   C4A75944   9.732   1.276   6.204  0.2080  0.2149 -0.1117
 6263POPC   C1B75945   8.945   0.924   4.942 -0.1329  0.0444  0.1187
 6263POPC   C2B75946   8.983   1.251   5.209  0.0671 -0.2463 -0.0889
 6263POPC   C3B75947   9.096   1.504   5.528 -0.0857  0.0084  0.2416
 6263POPC   C4B75948   8.774   1.638   5.792  0.0052  0.0734  0.1899
 6264POPC   NC375949  21.258   5.970   4.241 -0.1949  0.3353  0.0180
 6264POPC   PO475950  21.108   5.635   4.093 -0.0135  0.0518 -0.2316
 6264POPC   GL175951  21.130   5.529   4.456  0.1689  0.1722 -0.0699
 6264POPC   GL275952  21.293   5.264   4.368 -0.1127 -0.0845 -0.2232
 6264POPC   C1A75953  20.822   5.355   4.682  0.0088  0.0076  0.1097
 6264POPC   D2A75954  20.525   5.156   4.985 -0.1867  0.1926 -0.0467
 6264POPC   C3A75955  20.454   4.872   5.345  0.1500  0.1561  0.2917
 6264POPC   C4A75956  20.668   4.588   5.651  0.2038 -0.0544 -0.0684
 6264POPC   C1B75957  21.402   5.474   4.815 -0.0533 -0.0768 -0.4522
 6264POPC   C2B75958  21.557   5.556   5.263  0.0164  0.2704 -0.1936
 6264POPC   C3B75959  21.525   5.600   5.796  0.2067 -0.0200  0.0601
 6264POPC   C4B75960  21.406   5.601   6.191 -0.1788 -0.3944 -0.2900
 6265POPC   NC375961  27.809  17.874   3.721  0.1130  0.2017  0.0551
 6265POPC   PO475962  27.691  17.650   3.416 -0.1723 -0.4385 -0.3536
 6265POPC   GL175963  27.841  17.407   3.636  0.0052  0.3362  0.1544
 6265POPC   GL275964  27.706  17.360   3.870  0.3876  0.1956  0.1957
 6265POPC   C1A75965  28.280  17.230   3.819  0.0698  0.1747  0.0049
 6265POPC   D2A75966  28.564  16.998   4.115 -0.0514  0.2004 -0.0621
 6265POPC   C3A75967  28.423  16.803   4.490  0.2975  0.0327 -0.1870
 6265POPC   C4A75968  28.297  16.877   4.938  0.2500  0.0545 -0.2324
 6265POPC   C1B75969  27.802  17.663   4.190  0.2472 -0.0241 -0.1179
 6265POPC   C2B75970  27.970  17.740   4.672 -0.0732 -0.2810 -0.0196
 6265POPC   C3B75971  28.430  17.873   4.767 -0.0653 -0.0908  0.2016
 6265POPC   C4B75972  28.810  17.727   4.977 -0.0487 -0.2051 -0.1086
 6266POPC   NC375973  13.903  23.931   3.667  0.0088 -0.0450  0.1136
 6266POPC   PO475974  13.959  24.312   3.698 -0.0480  0.0093  0.1087
 6266POPC   GL175975  13.814  24.160   4.076  0.0519 -0.3011  0.1384
 6266POPC   GL275976  13.837  24.426   4.250  0.2869  0.1187  0.0862
 6266POPC   C1A75977  13.701  23.976   4.462  0.0402  0.1305  0.0124
 6266POPC   D2A75978  13.649  23.879   4.889 -0.0832  0.1292 -0.4197
 6266POPC   C3A75979  13.727  23.756   5.283  0.0253 -0.1519 -0.0405
 6266POPC   C4A75980  13.760  23.529   5.681 -0.2845 -0.2811 -0.1593
 6266POPC   C1B75981  13.785  24.694   4.623  0.3545  0.1941  0.1641
 6266POPC   C2B75982  13.833  24.603   5.108 -0.2309 -0.2244  0.0627
 6266POPC   C3B75983  13.627  24.743   5.511 -0.1550  0.0705  0.1085
 6266POPC   C4B75984  13.536  24.536   5.884  0.0900  0.0511 -0.0684
 6267POPC   NC375985   6.041  26.199   3.342  0.0784 -0.0077  0.3489
 6267POPC   PO475986   6.318  26.185   3.673 -0.0875 -0.2115 -0.0354
 6267POPC   GL175987   6.355  26.148   4.019  0.2795 -0.0420  0.0643
 6267POPC   GL275988   6.653  26.254   4.094 -0.1353 -0.1646 -0.0180
 6267POPC   C1A75989   6.455  26.061   4.514  0.4228  0.1445 -0.2160
 6267POPC   D2A75990   6.449  26.301   4.919 -0.0772 -0.1414 -0.0948
 6267POPC   C3A75991   6.130  26.609   5.064  0.0277  0.4245 -0.1311
 6267POPC   C4A75992   6.056  27.022   5.303 -0.3242 -0.1734  0.0472
 6267POPC   C1B75993   6.889  26.432   4.415  0.0912  0.1216  0.3554
 6267POPC   C2B75994   6.984  26.501   4.863  0.0592  0.0903  0.1042
 6267POPC   C3B75995   6.733  26.539   5.232 -0.0219 -0.1215  0.1725
 6267POPC   C4B75996   6.819  26.407   5.691  0.2191  0.1921 -0.1325
 6268POPC   NC375997  21.114   7.596   3.666  0.0683 -0.1991 -0.1725
 6268POPC   PO475998  21.271   7.978   3.677  0.1346  0.1420  0.2785
 6268POPC   GL175999  21.227   7.971   4.097  0.3083  0.0672  0.0325
 6268POPC   GL276000  21.481   8.028   4.112 -0.3178  0.0769 -0.1155
 6268POPC   C1A76001  21.005   7.773   4.393  0.3646  0.0791  0.2423
 6268POPC   D2A76002  21.080   7.586   4.804 -0.1282 -0.0745 -0.0954
 6268POPC   C3A76003  21.441   7.389   5.007 -0.1135  0.1689 -0.0726
 6268POPC   C4A76004  21.465   7.374   5.449 -0.1578 -0.3649 -0.1328
 6268POPC   C1B76005  21.497   8.250   4.490 -0.3055 -0.0899 -0.0090
 6268POPC   C2B76006  21.384   7.990   4.837 -0.0070  0.2135 -0.0379
 6268POPC   C3B76007  21.190   7.861   5.221 -0.3614  0.2281 -0.1805
 6268POPC   C4B76008  21.222   7.804   5.671 -0.2680 -0.3017 -0.0213
 6269POPC   NC376009  23.100  30.688   3.072  0.0240 -0.2515  0.3541
 6269POPC   PO476010  22.941  30.559   3.366  0.0345 -0.1538 -0.1103
 6269POPC   GL176011  22.864  30.271   3.667 -0.3999  0.0830 -0.0353
 6269POPC   GL276012  23.103  30.339   3.841  0.1446  0.3881 -0.0765
 6269POPC   C1A76013  22.654  30.411   4.060  0.0759 -0.2101 -0.0221
 6269POPC   D2A76014  22.514  30.520   4.486 -0.1999  0.1847  0.1328
 6269POPC   C3A76015  22.725  30.503   4.873  0.2869  0.0210 -0.4916
 6269POPC   C4A76016  22.858  30.770   5.181  0.3090 -0.0733 -0.0808
 6269POPC   C1B76017  23.248  30.618   4.191 -0.2351  0.0544  0.0024
 6269POPC   C2B76018  23.305  30.712   4.686  0.3067 -0.1592  0.2896
 6269POPC   C3B76019  23.297  30.611   5.139  0.0128 -0.0475 -0.3695
 6269POPC   C4B76020  23.275  30.299   5.433  0.2699  0.1107  0.1455
 6270POPC   NC376021  13.319  14.796   3.403 -0.0675  0.0427  0.0359
 6270POPC   PO476022  13.188  15.019   3.725  0.0817  0.2026  0.2177
 6270POPC   GL176023  13.124  15.028   4.071  0.0230  0.1780  0.1541
 6270POPC   GL276024  12.999  15.283   4.113  0.2710  0.0346  0.0019
 6270POPC   C1A76025  12.906  14.990   4.492 -0.1844  0.1136  0.1799
 6270POPC   D2A76026  12.956  15.063   4.980 -0.3079 -0.2939  0.1188
 6270POPC   C3A76027  12.677  15.006   5.333 -0.0494 -0.3561  0.2143
 6270POPC   C4A76028  12.306  14.949   5.547  0.1715  0.1490 -0.1212
 6270POPC   C1B76029  13.159  15.416   4.529 -0.1345  0.4556  0.0258
 6270POPC   C2B76030  13.259  15.770   4.775  0.1202  0.0238 -0.2090
 6270POPC   C3B76031  13.398  15.956   5.133  0.0873 -0.0188 -0.1349
 6270POPC   C4B76032  13.450  16.403   5.242 -0.2909  0.2262  0.2333
 6271POPC   NC376033  15.160   3.880   3.351 -0.0302  0.0455  0.0042
 6271POPC   PO476034  15.429   3.914   3.651 -0.0566  0.1169  0.1613
 6271POPC   GL176035  15.284   4.064   3.978  0.0531  0.0657  0.1316
 6271POPC   GL276036  15.443   4.324   4.106 -0.3006 -0.2999  0.2907
 6271POPC   C1A76037  15.383   3.879   4.406 -0.2415  0.1976 -0.0261
 6271POPC   D2A76038  15.305   3.507   4.695  0.2515 -0.4008  0.2651
 6271POPC   C3A76039  15.652   3.516   4.999  0.1655  0.1255 -0.0514
 6271POPC   C4A76040  15.692   3.439   5.465 -0.1712  0.0926 -0.2186
 6271POPC   C1B76041  15.837   4.408   4.282 -0.0658 -0.2398  0.0027
 6271POPC   C2B76042  15.926   4.763   4.548 -0.1478 -0.3949 -0.0887
 6271POPC   C3B76043  16.069   4.770   5.035  0.1141 -0.0510  0.0389
 6271POPC   C4B76044  15.853   4.991   5.421  0.2020  0.2114  0.3412
 6272POPC   NC376045  19.686  30.118   3.178  0.3543 -0.0114 -0.2457
 6272POPC   PO476046  19.805  29.950   3.510  0.1464 -0.0377  0.1010
 6272POPC   GL176047  19.700  30.072   3.813  0.1850  0.2924 -0.1292
 6272POPC   GL276048  19.927  30.248   3.943  0.0661 -0.3097  0.2579
 6272POPC   C1A76049  19.541  29.952   4.219 -0.1533 -0.1341 -0.0499
 6272POPC   D2A76050  19.197  30.021   4.496  0.2595  0.3761  0.0380
 6272POPC   C3A76051  19.447  29.728   4.739 -0.4013  0.0196  0.2143
 6272POPC   C4A76052  19.753  29.448   4.942  0.2550 -0.0352  0.0336
 6272POPC   C1B76053  19.828  30.418   4.362  0.0753  0.1112 -0.2852
 6272POPC   C2B76054  19.497  30.327   4.668 -0.1636 -0.1289 -0.0572
 6272POPC   C3B76055  19.427  30.312   5.145  0.3830 -0.1454  0.0675
 6272POPC   C4B76056  19.219  30.192   5.488 -0.0970  0.2776  0.0858
 6273POPC   NC376057  22.355   4.038   3.779  0.1088 -0.1627 -0.0688
 6273POPC   PO476058  22.082   4.338   3.687 -0.1990  0.1999  0.3341
 6273POPC   GL176059  22.191   4.414   4.025 -0.1111  0.3255 -0.2102
 6273POPC   GL276060  22.253   4.205   4.224  0.1459 -0.2242  0.0982
 6273POPC   C1A76061  22.024   4.654   4.370 -0.3064 -0.1430 -0.0899
 6273POPC   D2A76062  21.901   4.735   4.820 -0.1139 -0.1063 -0.1335
 6273POPC   C3A76063  22.139   4.530   5.161 -0.0883  0.0019  0.0293
 6273POPC   C4A76064  22.119   4.473   5.620  0.1484 -0.3227 -0.0888
 6273POPC   C1B76065  21.923   4.212   4.519  0.0677  0.0146 -0.1740
 6273POPC   C2B76066  21.909   4.145   4.952 -0.2251  0.3418 -0.1656
 6273POPC   C3B76067  21.957   3.933   5.359  0.2436 -0.2798 -0.0806
 6273POPC   C4B76068  22.105   3.935   5.808 -0.2157 -0.0887 -0.1831
 6274POPC   NC376069  25.436   2.371   3.644 -0.2502  0.3033  0.1975
 6274POPC   PO476070  25.183   2.181   3.836  0.0074  0.4858 -0.0997
 6274POPC   GL176071  25.106   1.939   4.199 -0.0073  0.0667  0.2949
 6274POPC   GL276072  24.875   1.789   4.113 -0.4586 -0.3541 -0.0680
 6274POPC   C1A76073  25.222   1.786   4.587 -0.2183 -0.2457  0.1729
 6274POPC   D2A76074  25.332   2.023   4.971  0.1381 -0.0828  0.1114
 6274POPC   C3A76075  25.048   2.107   5.386 -0.0642  0.0019 -0.0304
 6274POPC   C4A76076  25.020   1.822   5.766 -0.1297 -0.0639 -0.2919
 6274POPC   C1B76077  24.784   2.123   4.487  0.1116  0.0463 -0.1782
 6274POPC   C2B76078  24.801   2.001   4.939 -0.0723  0.1921 -0.5720
 6274POPC   C3B76079  24.935   1.645   5.301  0.0788  0.0466 -0.0401
 6274POPC   C4B76080  24.996   1.279   5.647  0.0204 -0.3405 -0.3702
 6275POPC   NC376081   3.538  26.520   3.873 -0.2372  0.1620  0.2213
 6275POPC   PO476082   3.791  26.264   3.735 -0.1086  0.0654 -0.1390
 6275POPC   GL176083   3.860  26.262   4.098  0.0823 -0.0233 -0.0692
 6275POPC   GL276084   3.815  25.893   4.076  0.0352 -0.2058 -0.2337
 6275POPC   C1A76085   3.940  26.072   4.529  0.0882  0.1769  0.1094
 6275POPC   D2A76086   3.702  25.971   4.934  0.0676 -0.1990  0.2957
 6275POPC   C3A76087   3.631  26.067   5.375  0.1454 -0.1783  0.0893
 6275POPC   C4A76088   3.484  26.230   5.761  0.0671  0.2299  0.1174
 6275POPC   C1B76089   3.533  25.689   4.432 -0.1244 -0.1338 -0.1862
 6275POPC   C2B76090   3.558  25.511   4.826 -0.0336  0.1082  0.0145
 6275POPC   C3B76091   3.487  25.548   5.292 -0.1183 -0.1232 -0.0187
 6275POPC   C4B76092   3.353  25.615   5.728  0.1234 -0.0614  0.1291
 6276POPC   NC376093  16.878   7.574   3.764  0.0170 -0.1533  0.0907
 6276POPC   PO476094  16.550   7.558   3.946  0.3055 -0.0370 -0.2095
 6276POPC   GL176095  16.630   7.547   4.347 -0.0269  0.1740  0.3097
 6276POPC   GL276096  16.386   7.742   4.427  0.0211  0.1656  0.1307
 6276POPC   C1A76097  16.566   7.354   4.784 -0.0688 -0.1935  0.1287
 6276POPC   D2A76098  16.678   6.985   5.022  0.2033  0.0562 -0.1571
 6276POPC   C3A76099  16.342   6.918   5.234  0.0938 -0.0162 -0.0178
 6276POPC   C4A76100  16.206   6.817   5.688 -0.0681  0.2033 -0.0346
 6276POPC   C1B76101  16.103   7.550   4.733  0.2605  0.0217  0.0151
 6276POPC   C2B76102  16.236   7.493   5.177  0.2690  0.2731 -0.0683
 6276POPC   C3B76103  16.079   7.514   5.635 -0.1615 -0.0994  0.1234
 6276POPC   C4B76104  16.173   7.652   6.070 -0.0068 -0.1089  0.1006
 6277POPC   NC376105  16.270  10.616   3.365  0.0852 -0.0003  0.2447
 6277POPC   PO476106  16.031  10.830   3.558  0.1030  0.1049 -0.1002
 6277POPC   GL176107  15.847  10.687   3.782 -0.0437  0.0217  0.2285
 6277POPC   GL276108  15.619  10.807   3.985  0.1154  0.0010  0.3273
 6277POPC   C1A76109  15.824  10.345   4.086 -0.0981  0.1369  0.1656
 6277POPC   D2A76110  15.689   9.929   4.235  0.0705  0.2041  0.0991
 6277POPC   C3A76111  15.323   9.755   4.551 -0.1724  0.1054 -0.1791
 6277POPC   C4A76112  15.272   9.486   4.990  0.0740  0.2195  0.3950
 6277POPC   C1B76113  15.218  10.954   3.843 -0.1404  0.1492  0.1606
 6277POPC   C2B76114  14.796  10.889   3.712  0.0167 -0.2150  0.2630
 6277POPC   C3B76115  14.585  10.696   3.372  0.0631  0.1301 -0.2977
 6277POPC   C4B76116  14.467  10.443   3.050 -0.2847 -0.0079  0.0907
 6278POPC   NC376117  27.125   2.470   3.623  0.0200  0.1391  0.3728
 6278POPC   PO476118  27.433   2.589   3.814 -0.1531  0.0126 -0.0682
 6278POPC   GL176119  27.270   2.837   4.063 -0.4197 -0.3907  0.1145
 6278POPC   GL276120  27.461   3.116   4.087  0.1336 -0.0099 -0.0446
 6278POPC   C1A76121  27.137   3.057   4.463 -0.2722 -0.1000 -0.0154
 6278POPC   D2A76122  27.112   3.028   4.953 -0.0113  0.0751 -0.2546
 6278POPC   C3A76123  27.315   2.847   5.303  0.1466  0.0159  0.0545
 6278POPC   C4A76124  27.416   2.473   5.532  0.1047  0.0483 -0.1998
 6278POPC   C1B76125  27.866   3.252   4.351  0.0785  0.0522 -0.2179
 6278POPC   C2B76126  28.299   3.329   4.561 -0.2699 -0.0880  0.1800
 6278POPC   C3B76127  28.365   3.621   4.860 -0.2597 -0.1835 -0.2288
 6278POPC   C4B76128  28.212   3.683   5.325  0.1558  0.0268 -0.0607
 6279POPC   NC376129  26.385   8.603   3.594 -0.0373  0.1025 -0.2014
 6279POPC   PO476130  26.722   8.553   3.748 -0.2605 -0.2710  0.0295
 6279POPC   GL176131  26.732   8.306   4.108 -0.0002 -0.2345  0.2439
 6279POPC   GL276132  26.815   8.100   4.179 -0.2806 -0.1602  0.0009
 6279POPC   C1A76133  26.712   8.446   4.494  0.1119 -0.1794  0.2035
 6279POPC   D2A76134  26.540   8.330   4.907  0.1294  0.1023  0.1247
 6279POPC   C3A76135  26.493   8.457   5.347  0.1549  0.0683  0.0895
 6279POPC   C4A76136  26.507   8.033   5.603 -0.2182  0.0164  0.0566
 6279POPC   C1B76137  26.545   7.936   4.509  0.3439  0.2867  0.2165
 6279POPC   C2B76138  26.663   7.779   4.964  0.0660 -0.1205  0.1480
 6279POPC   C3B76139  26.905   7.908   5.316  0.0046  0.1904 -0.1119
 6279POPC   C4B76140  27.057   7.869   5.765 -0.0070 -0.1761 -0.2895
 6280POPC   NC376141  10.967   7.576   3.380 -0.0597  0.0146  0.3943
 6280POPC   PO476142  10.956   7.952   3.327 -0.0099 -0.2032  0.1323
 6280POPC   GL176143  11.002   8.019   3.781 -0.1340  0.3033 -0.1998
 6280POPC   GL276144  10.809   7.790   3.800 -0.0517 -0.0894  0.1987
 6280POPC   C1A76145  10.931   8.345   4.155  0.1822 -0.0652 -0.0121
 6280POPC   D2A76146  10.541   8.454   4.456 -0.1329  0.0399  0.1248
 6280POPC   C3A76147  10.384   8.445   4.939 -0.2280 -0.2815  0.1252
 6280POPC   C4A76148  10.389   8.448   5.392  0.0900 -0.1161 -0.1001
 6280POPC   C1B76149  11.087   7.664   4.134 -0.0441 -0.3104  0.1471
 6280POPC   C2B76150  11.168   7.967   4.470 -0.2657 -0.2110 -0.3037
 6280POPC   C3B76151  11.068   8.241   4.880 -0.0534 -0.1468  0.1337
 6280POPC   C4B76152  10.824   8.326   5.280 -0.0341 -0.0227 -0.1455
 6281POPC   NC376153  16.901  10.275   4.173  0.1192 -0.2180  0.0310
 6281POPC   PO476154  17.207  10.040   4.258 -0.1330  0.5191  0.1208
 6281POPC   GL176155  17.301  10.366   4.437 -0.1711 -0.4037 -0.1805
 6281POPC   GL276156  17.138  10.305   4.667 -0.4658  0.0411 -0.0404
 6281POPC   C1A76157  17.608  10.367   4.826 -0.0225  0.4285  0.0039
 6281POPC   D2A76158  17.978  10.544   5.026  0.0719  0.1701  0.0013
 6281POPC   C3A76159  17.970  10.565   5.505  0.0719  0.1081  0.0023
 6281POPC   C4A76160  18.295  10.462   5.839  0.3661  0.0186 -0.0284
 6281POPC   C1B76161  17.144  10.238   5.109 -0.1462  0.2062 -0.1446
 6281POPC   C2B76162  17.344  10.447   5.457  0.1521  0.1674 -0.1845
 6281POPC   C3B76163  17.474  10.523   5.940 -0.2610 -0.2559  0.0796
 6281POPC   C4B76164  17.808  10.799   6.066  0.4353  0.0592  0.0109
 6282POPC   NC376165  23.314  18.441   3.988  0.2373 -0.2726 -0.0502
 6282POPC   PO476166  23.630  18.293   4.170 -0.1880  0.0220  0.0245
 6282POPC   GL176167  23.657  18.342   4.510  0.4395  0.5010  0.0977
 6282POPC   GL276168  23.393  18.331   4.573  0.4581 -0.2859 -0.3282
 6282POPC   C1A76169  23.872  18.569   4.883 -0.0100  0.1520  0.0162
 6282POPC   D2A76170  23.792  18.861   5.212 -0.2159  0.0631 -0.0309
 6282POPC   C3A76171  23.456  19.191   5.025 -0.1594 -0.0091  0.1011
 6282POPC   C4A76172  23.159  19.398   5.269  0.1305  0.1627 -0.0567
 6282POPC   C1B76173  22.973  18.408   4.888 -0.3538 -0.0988  0.0990
 6282POPC   C2B76174  22.733  18.567   5.271 -0.4329  0.2031 -0.1952
 6282POPC   C3B76175  22.625  18.614   5.726  0.2429 -0.2650  0.1754
 6282POPC   C4B76176  22.840  18.630   6.145 -0.0876 -0.2378 -0.3098
 6283POPC   NC376177  21.159  29.328   3.738  0.3193 -0.1254  0.1187
 6283POPC   PO476178  21.088  29.015   3.994  0.0686  0.0163 -0.0993
 6283POPC   GL176179  21.026  29.274   4.350  0.4961  0.1226 -0.2001
 6283POPC   GL276180  20.941  29.065   4.590  0.1378  0.0525  0.0984
 6283POPC   C1A76181  20.867  29.486   4.744  0.3399  0.2005 -0.0687
 6283POPC   D2A76182  21.072  29.782   4.999  0.0289  0.1037  0.0351
 6283POPC   C3A76183  21.212  29.578   5.427  0.0115 -0.1029 -0.2362
 6283POPC   C4A76184  21.347  29.417   5.871 -0.0308 -0.5304  0.3181
 6283POPC   C1B76185  20.941  29.064   5.060 -0.0334  0.1228  0.1124
 6283POPC   C2B76186  20.979  28.737   5.410 -0.0476  0.0406 -0.2807
 6283POPC   C3B76187  20.976  28.743   5.874 -0.0321  0.2790  0.1026
 6283POPC   C4B76188  21.196  29.045   6.170  0.1944 -0.0526 -0.0153
 6284POPC   NC376189   3.156  14.804   3.578 -0.2255 -0.1251  0.2863
 6284POPC   PO476190   3.202  14.622   3.910 -0.0471  0.1942  0.1228
 6284POPC   GL176191   3.371  14.757   4.244  0.3489 -0.2045  0.0240
 6284POPC   GL276192   3.258  14.676   4.519  0.0997  0.0491  0.0978
 6284POPC   C1A76193   3.350  15.184   4.409  0.1483  0.1407 -0.2205
 6284POPC   D2A76194   3.284  15.451   4.796  0.1852 -0.1860  0.4624
 6284POPC   C3A76195   3.594  15.695   4.999 -0.0134 -0.2673 -0.1521
 6284POPC   C4A76196   3.818  15.709   5.465  0.2482  0.0594 -0.0619
 6284POPC   C1B76197   2.893  14.575   4.782  0.0312 -0.0617 -0.1622
 6284POPC   C2B76198   2.444  14.463   5.040 -0.0012  0.2381  0.0338
 6284POPC   C3B76199   1.971  14.462   5.048  0.0129 -0.2780  0.3373
 6284POPC   C4B76200   1.517  14.380   4.995 -0.0751 -0.1928 -0.3073
 6285POPC   NC376201  10.894  28.376   4.226 -0.1763 -0.1497 -0.1208
 6285POPC   PO476202  11.078  28.455   3.909 -0.1331 -0.1445  0.0534
 6285POPC   GL176203  11.348  28.333   4.213 -0.1288  0.0428  0.4544
 6285POPC   GL276204  11.268  28.027   4.199 -0.0337 -0.4561  0.0484
 6285POPC   C1A76205  11.711  28.211   4.467 -0.3359 -0.1261 -0.1055
 6285POPC   D2A76206  11.906  28.158   4.862  0.0469  0.1646 -0.3464
 6285POPC   C3A76207  11.998  28.477   5.114  0.0307  0.2873 -0.1763
 6285POPC   C4A76208  12.087  28.919   5.092  0.2728  0.0601  0.2408
 6285POPC   C1B76209  11.197  28.142   4.632 -0.1230 -0.2946 -0.3139
 6285POPC   C2B76210  11.023  28.549   4.845 -0.3109  0.1243 -0.1973
 6285POPC   C3B76211  10.714  28.508   5.171 -0.0782  0.3644 -0.0441
 6285POPC   C4B76212  10.701  28.574   5.633  0.0088 -0.2633  0.4629
 6286POPC   NC376213  30.412   5.845   3.030  0.2618 -0.2169 -0.1590
 6286POPC   PO476214  30.546   6.187   3.142  0.0151  0.1046  0.1801
 6286POPC   GL176215  30.469   6.184   3.513 -0.0083  0.0768 -0.0314
 6286POPC   GL276216  30.358   5.896   3.652 -0.0938  0.0729 -0.1210
 6286POPC   C1A76217  30.426   6.414   3.882  0.1769 -0.1880 -0.0663
 6286POPC   D2A76218  30.206   6.533   4.324  0.0571  0.2739  0.2127
 6286POPC   C3A76219  30.290   6.965   4.538  0.0859  0.0303 -0.1590
 6286POPC   C4A76220  30.239   7.137   4.990 -0.0214  0.2384  0.5270
 6286POPC   C1B76221  30.260   5.500   3.812 -0.0411  0.2542  0.1728
 6286POPC   C2B76222  30.131   5.166   4.070 -0.2546  0.1706 -0.0211
 6286POPC   C3B76223  29.671   5.046   4.079  0.3799  0.1801  0.0100
 6286POPC   C4B76224  29.349   4.773   4.253 -0.2304  0.0985 -0.0071
 6287POPC   NC376225  31.171   1.149   3.843  0.0897 -0.1626  0.0476
 6287POPC   PO476226  31.272   1.520   3.935  0.0327  0.2836  0.2718
 6287POPC   GL176227  31.172   1.662   4.310 -0.1139 -0.0329  0.2534
 6287POPC   GL276228  31.415   1.448   4.388 -0.3562 -0.1035  0.2791
 6287POPC   C1A76229  31.389   1.951   4.592 -0.1990 -0.1184  0.3251
 6287POPC   D2A76230  31.349   1.918   5.058  0.4139  0.2476 -0.2575
 6287POPC   C3A76231  31.600   1.680   5.318 -0.2457 -0.0607 -0.1672
 6287POPC   C4A76232  32.044   1.532   5.500  0.0373 -0.1702  0.0193
 6287POPC   C1B76233  31.620   1.192   4.693  0.1602  0.2385  0.3237
 6287POPC   C2B76234  31.724   0.785   4.908 -0.1231 -0.1117 -0.0058
 6287POPC   C3B76235  31.935   0.412   5.102  0.1201 -0.3011 -0.1884
 6287POPC   C4B76236  31.952   0.231   5.495 -0.1254  0.3314 -0.0315
 6288POPC   NC376237   0.036   1.304   3.593 -0.0773 -0.2077  0.0301
 6288POPC   PO476238  -0.125   0.966   3.634  0.0356  0.0444  0.2310
 6288POPC   GL176239  -0.104   1.164   4.021  0.1761  0.2486  0.2539
 6288POPC   GL276240  -0.236   1.006   4.207 -0.0371  0.5592  0.2300
 6288POPC   C1A76241   0.149   1.388   4.310 -0.0624  0.2774 -0.2191
 6288POPC   D2A76242   0.543   1.663   4.454  0.2290  0.1995 -0.1517
 6288POPC   C3A76243   0.587   1.638   4.866  0.0573  0.1068 -0.0318
 6288POPC   C4A76244   0.384   1.914   5.216  0.1128 -0.1694 -0.1050
 6288POPC   C1B76245  -0.440   0.807   4.611  0.1358 -0.1093  0.3065
 6288POPC   C2B76246  -0.495   0.766   5.045  0.1203 -0.2318 -0.1584
 6288POPC   C3B76247  -0.825   0.470   5.171  0.0329  0.0317  0.2447
 6288POPC   C4B76248  -1.246   0.335   5.301 -0.0465 -0.0254 -0.1435
 6289POPC   NC376249   6.926  26.426   3.712 -0.0569  0.0930  0.1150
 6289POPC   PO476250   6.871  26.002   3.676  0.0898 -0.1662 -0.3217
 6289POPC   GL176251   7.110  25.934   4.002  0.1861 -0.2668 -0.1217
 6289POPC   GL276252   7.234  26.113   4.140  0.1779 -0.0206  0.0602
 6289POPC   C1A76253   6.927  25.830   4.409  0.2561 -0.0516  0.0494
 6289POPC   D2A76254   7.032  25.742   4.775 -0.0246 -0.1695 -0.1412
 6289POPC   C3A76255   6.806  25.432   5.038  0.1554 -0.1515  0.2118
 6289POPC   C4A76256   6.485  25.398   5.436  0.3440 -0.1614  0.0809
 6289POPC   C1B76257   7.310  26.256   4.605 -0.0355 -0.1880  0.1238
 6289POPC   C2B76258   7.559  26.200   5.031  0.1614  0.1323  0.1891
 6289POPC   C3B76259   7.796  26.281   5.423  0.0187  0.1056  0.0250
 6289POPC   C4B76260   7.948  26.356   5.810  0.0913  0.3582  0.2370
 6290POPC   NC376261  20.928   7.143   3.620  0.0572 -0.2710 -0.1112
 6290POPC   PO476262  20.720   6.958   3.900  0.0962  0.3549  0.1102
 6290POPC   GL176263  20.702   7.119   4.278  0.4588 -0.1923 -0.1170
 6290POPC   GL276264  20.800   6.861   4.384  0.1326  0.1357 -0.0358
 6290POPC   C1A76265  20.571   7.092   4.729  0.1280 -0.2020 -0.1636
 6290POPC   D2A76266  20.585   6.966   5.230  0.1310 -0.0111  0.1552
 6290POPC   C3A76267  20.636   6.645   5.598  0.0333  0.1257 -0.2284
 6290POPC   C4A76268  20.646   6.522   6.041 -0.0001  0.1259 -0.2570
 6290POPC   C1B76269  20.830   6.625   4.770 -0.2506 -0.1375  0.0445
 6290POPC   C2B76270  20.933   6.576   5.180  0.0636  0.2161  0.3465
 6290POPC   C3B76271  21.263   6.351   5.389  0.1731 -0.3782 -0.0579
 6290POPC   C4B76272  21.163   6.039   5.780 -0.0868 -0.1068  0.1187
 6291POPC   NC376273  10.556  25.551   3.676  0.2406  0.0962  0.1095
 6291POPC   PO476274  10.935  25.472   3.669  0.1649  0.0354 -0.0455
 6291POPC   GL176275  11.126  25.404   4.020  0.3837 -0.1279  0.4429
 6291POPC   GL276276  11.210  25.161   3.975 -0.1008  0.1084  0.1423
 6291POPC   C1A76277  11.008  25.355   4.465  0.5006  0.1943  0.1988
 6291POPC   D2A76278  10.722  25.321   4.900 -0.0121  0.0345 -0.5297
 6291POPC   C3A76279  10.721  25.319   5.413 -0.4350 -0.1726  0.0451
 6291POPC   C4A76280  10.421  25.079   5.606  0.1666  0.0293 -0.0618
 6291POPC   C1B76281  11.514  25.350   4.204  0.0368  0.2403 -0.2013
 6291POPC   C2B76282  11.617  25.459   4.635  0.0406  0.0496  0.2211
 6291POPC   C3B76283  11.244  25.520   4.873 -0.0390 -0.1538 -0.0446
 6291POPC   C4B76284  11.117  25.664   5.294  0.0645 -0.0445  0.2051
 6292POPC   NC376285  30.392  27.561   3.961  0.5697 -0.0832 -0.1090
 6292POPC   PO476286  30.616  27.851   4.102 -0.1214 -0.0817  0.0430
 6292POPC   GL176287  30.609  27.553   4.358 -0.1696  0.3173 -0.1423
 6292POPC   GL276288  30.932  27.524   4.383 -0.1428  0.1628  0.0482
 6292POPC   C1A76289  30.677  27.603   4.790 -0.1858 -0.0260 -0.2424
 6292POPC   D2A76290  30.428  27.615   5.151  0.0534 -0.1409  0.2700
 6292POPC   C3A76291  29.977  27.628   5.053 -0.4550  0.2821 -0.0389
 6292POPC   C4A76292  29.707  27.933   4.828 -0.1143  0.1247 -0.0413
 6292POPC   C1B76293  31.157  27.491   4.804  0.0653  0.0141 -0.2138
 6292POPC   C2B76294  31.257  27.201   5.131  0.1971 -0.2700 -0.0264
 6292POPC   C3B76295  31.339  27.204   5.649 -0.3053  0.2784  0.0319
 6292POPC   C4B76296  31.743  27.243   5.958  0.1157  0.4761 -0.1155
 6293POPC   NC376297  20.967   4.558   3.852 -0.0178  0.1199 -0.0133
 6293POPC   PO476298  20.711   4.252   3.828 -0.1065 -0.2176  0.1835
 6293POPC   GL176299  20.704   4.093   4.171  0.1963  0.2069  0.1272
 6293POPC   GL276300  20.455   3.873   4.106  0.3978  0.1070 -0.1735
 6293POPC   C1A76301  20.707   3.901   4.577 -0.2469  0.2669  0.1171
 6293POPC   D2A76302  20.955   3.923   5.004 -0.1068 -0.1046 -0.0796
 6293POPC   C3A76303  20.991   3.666   5.395  0.0045 -0.0573 -0.5233
 6293POPC   C4A76304  20.730   3.449   5.774  0.0026 -0.2586 -0.0179
 6293POPC   C1B76305  20.416   3.511   4.396 -0.1377 -0.0594  0.0917
 6293POPC   C2B76306  20.475   3.135   4.533  0.0457  0.1043 -0.3845
 6293POPC   C3B76307  20.627   2.940   4.957 -0.1420  0.0605  0.1429
 6293POPC   C4B76308  20.810   2.901   5.362  0.1571  0.1440 -0.1307
 6294POPC   NC376309   8.273   1.849   4.015 -0.0619  0.2147 -0.0143
 6294POPC   PO476310   8.573   2.075   3.972  0.0720 -0.1270  0.1713
 6294POPC   GL176311   8.578   2.034   4.341  0.3901 -0.0056  0.2507
 6294POPC   GL276312   8.338   2.098   4.477 -0.0456 -0.2373 -0.0629
 6294POPC   C1A76313   8.933   2.150   4.629 -0.2710 -0.0535 -0.0304
 6294POPC   D2A76314   9.187   2.157   5.046  0.2170 -0.1479  0.0853
 6294POPC   C3A76315   9.337   1.930   5.420 -0.1676  0.0151  0.0901
 6294POPC   C4A76316   9.425   1.803   5.837  0.1186 -0.0595  0.0825
 6294POPC   C1B76317   8.218   2.243   4.891  0.0235 -0.4470  0.1312
 6294POPC   C2B76318   8.219   2.064   5.258  0.1256 -0.1155  0.0418
 6294POPC   C3B76319   8.390   2.287   5.633  0.0174 -0.0581  0.3811
 6294POPC   C4B76320   8.666   2.519   5.910 -0.0173  0.0276  0.1753
 6295POPC   NC376321   8.443  10.640   3.929 -0.1944  0.0074  0.0134
 6295POPC   PO476322   8.672  10.896   3.728  0.2604  0.0421 -0.1162
 6295POPC   GL176323   8.332  11.117   3.982  0.2024 -0.2146 -0.0492
 6295POPC   GL276324   8.299  11.438   4.049  0.1422  0.1609  0.1891
 6295POPC   C1A76325   7.943  11.198   4.299  0.2207  0.2001  0.1739
 6295POPC   D2A76326   7.611  11.079   4.578  0.0018  0.0001 -0.0332
 6295POPC   C3A76327   7.672  11.040   5.032 -0.0150 -0.1765  0.2679
 6295POPC   C4A76328   7.998  11.300   5.251  0.1739 -0.1063  0.1311
 6295POPC   C1B76329   8.451  11.358   4.475  0.1215 -0.1935  0.0783
 6295POPC   C2B76330   8.438  11.402   5.013 -0.1897 -0.1227  0.1862
 6295POPC   C3B76331   8.547  11.528   5.447 -0.3684  0.2080  0.1075
 6295POPC   C4B76332   8.497  11.836   5.796  0.5455  0.0659  0.2143
 6296POPC   NC376333   2.266  19.016   3.601  0.1139 -0.1336 -0.1462
 6296POPC   PO476334   2.115  18.753   3.373  0.0287 -0.0597 -0.1195
 6296POPC   GL176335   1.995  18.498   3.731 -0.1368 -0.3114 -0.1528
 6296POPC   GL276336   2.318  18.571   3.830  0.1817 -0.2453  0.0921
 6296POPC   C1A76337   1.902  18.184   4.084 -0.0264 -0.0181  0.1527
 6296POPC   D2A76338   1.767  18.115   4.492 -0.0014  0.2260 -0.0494
 6296POPC   C3A76339   1.911  18.321   4.876 -0.0525 -0.0778  0.2851
 6296POPC   C4A76340   1.965  18.692   5.008  0.1361  0.1262  0.2401
 6296POPC   C1B76341   2.306  18.451   4.267  0.1549  0.2624  0.0464
 6296POPC   C2B76342   2.377  18.337   4.732  0.1749 -0.1958 -0.1319
 6296POPC   C3B76343   2.427  18.406   5.217  0.2069  0.1319  0.0894
 6296POPC   C4B76344   2.378  18.135   5.582 -0.2237  0.0535 -0.0889
 6297POPC   NC376345  11.612   1.794   3.444 -0.0885  0.0817  0.1537
 6297POPC   PO476346  11.352   1.896   3.732 -0.0805  0.0915 -0.1961
 6297POPC   GL176347  11.295   1.914   4.130 -0.1546 -0.5164 -0.0566
 6297POPC   GL276348  11.161   2.108   4.211  0.0916  0.1809  0.0049
 6297POPC   C1A76349  11.547   2.167   4.456 -0.1793  0.0447  0.3010
 6297POPC   D2A76350  11.813   2.172   4.801 -0.0376 -0.0647  0.4052
 6297POPC   C3A76351  12.122   1.963   5.063  0.2145 -0.2769  0.2184
 6297POPC   C4A76352  12.563   1.818   5.145  0.1311 -0.1025  0.0573
 6297POPC   C1B76353  10.918   1.871   4.556  0.0800  0.2076 -0.1601
 6297POPC   C2B76354  11.035   1.822   5.000  0.0925  0.1350  0.2764
 6297POPC   C3B76355  11.310   1.963   5.333 -0.0032 -0.1382 -0.0505
 6297POPC   C4B76356  11.720   2.046   5.306 -0.0843  0.1395 -0.4225
 6298POPC   NC376357  23.634   1.110   3.764  0.0057  0.0827 -0.2852
 6298POPC   PO476358  23.862   1.459   3.684  0.0024 -0.2330  0.1062
 6298POPC   GL176359  23.761   1.473   4.083  0.1261  0.3181 -0.0691
 6298POPC   GL276360  23.448   1.593   4.031 -0.0332 -0.0091 -0.1059
 6298POPC   C1A76361  23.847   1.721   4.473  0.1981  0.0467  0.0784
 6298POPC   D2A76362  23.870   1.688   4.907 -0.1042 -0.0688 -0.0834
 6298POPC   C3A76363  24.159   1.572   5.257  0.2491 -0.3508 -0.3554
 6298POPC   C4A76364  24.527   1.514   5.558 -0.0670 -0.0224 -0.1106
 6298POPC   C1B76365  23.219   1.533   4.449  0.0250 -0.1233  0.3430
 6298POPC   C2B76366  23.017   1.549   4.836  0.1526 -0.2077 -0.0694
 6298POPC   C3B76367  22.979   1.612   5.326 -0.2032 -0.0834 -0.1103
 6298POPC   C4B76368  22.878   1.449   5.739  0.4471  0.2049 -0.1184
 6299POPC   NC376369   2.640  24.858   3.748 -0.0332 -0.1255  0.1216
 6299POPC   PO476370   2.998  25.041   3.761  0.0931  0.2039 -0.1505
 6299POPC   GL176371   2.937  24.754   4.068 -0.2861 -0.1045  0.0853
 6299POPC   GL276372   2.840  24.992   4.248  0.3095  0.3580  0.1555
 6299POPC   C1A76373   2.548  24.647   4.376  0.1960  0.0070 -0.1260
 6299POPC   D2A76374   2.495  24.750   4.808  0.0300 -0.2358 -0.2302
 6299POPC   C3A76375   2.395  24.779   5.314 -0.0990 -0.0119  0.0499
 6299POPC   C4A76376   2.449  24.533   5.723  0.2779 -0.1693 -0.0850
 6299POPC   C1B76377   2.658  25.234   4.583 -0.2174  0.3037 -0.1157
 6299POPC   C2B76378   2.400  25.300   4.974 -0.2668  0.3950 -0.0916
 6299POPC   C3B76379   2.074  25.208   5.315 -0.1766  0.0760  0.0985
 6299POPC   C4B76380   1.751  24.998   5.557  0.0967 -0.1761 -0.1155
 6300POPC   NC376381  26.373   4.753   3.486 -0.3865  0.0127 -0.0868
 6300POPC   PO476382  26.107   4.551   3.714  0.0558  0.0508  0.0082
 6300POPC   GL176383  25.891   4.619   4.019 -0.1285 -0.0808 -0.1203
 6300POPC   GL276384  25.783   4.506   4.326 -0.1845  0.1809  0.1598
 6300POPC   C1A76385  26.066   4.910   4.353 -0.4394  0.0956 -0.2917
 6300POPC   D2A76386  25.958   5.275   4.620 -0.1386 -0.3606  0.1602
 6300POPC   C3A76387  26.152   5.398   4.951  0.0063 -0.0365  0.0141
 6300POPC   C4A76388  26.494   5.371   5.343  0.2755 -0.0288  0.1400
 6300POPC   C1B76389  25.869   4.599   4.813 -0.0513 -0.0547 -0.1188
 6300POPC   C2B76390  26.173   4.878   5.098  0.1538 -0.0635  0.2786
 6300POPC   C3B76391  26.110   5.151   5.495 -0.0618  0.1125  0.0844
 6300POPC   C4B76392  26.115   5.260   5.934  0.4223  0.2756  0.0148
 6301POPC   NC376393  24.715  29.651   3.785  0.1299  0.0458  0.2186
 6301POPC   PO476394  24.670  29.259   3.699  0.2556 -0.1875 -0.0084
 6301POPC   GL176395  24.756  29.229   4.064  0.5160  0.0543 -0.1494
 6301POPC   GL276396  24.903  29.457   4.197  0.0089 -0.1830 -0.0738
 6301POPC   C1A76397  24.541  29.248   4.490  0.0549 -0.0663 -0.3924
 6301POPC   D2A76398  24.637  29.512   4.835  0.0895  0.3016  0.3995
 6301POPC   C3A76399  24.900  29.785   5.163 -0.1321  0.2887  0.1272
 6301POPC   C4A76400  24.971  29.892   5.662  0.1468 -0.0011 -0.0433
 6301POPC   C1B76401  25.028  29.247   4.614 -0.1299  0.1449  0.0139
 6301POPC   C2B76402  25.046  29.312   5.037  0.0909  0.0182  0.3566
 6301POPC   C3B76403  25.134  29.466   5.455  0.2896 -0.0753 -0.1907
 6301POPC   C4B76404  25.355  29.676   5.830 -0.1371  0.0924 -0.2901
 6302POPC   NC376405   4.724   9.401   3.644 -0.4711  0.4374 -0.0752
 6302POPC   PO476406   4.721   9.765   3.790 -0.0478 -0.0193  0.1197
 6302POPC   GL176407   4.634  10.111   3.964 -0.0540 -0.2105 -0.2878
 6302POPC   GL276408   4.862  10.301   3.864  0.1410 -0.1029 -0.0640
 6302POPC   C1A76409   4.895  10.158   4.358  0.5065 -0.1861  0.0989
 6302POPC   D2A76410   5.186  10.384   4.697 -0.2992 -0.3698  0.2162
 6302POPC   C3A76411   5.665  10.491   4.668 -0.1247  0.0102  0.1945
 6302POPC   C4A76412   6.101  10.535   4.736  0.0227 -0.2022 -0.1573
 6302POPC   C1B76413   5.166  10.552   4.102 -0.1129  0.1341  0.0102
 6302POPC   C2B76414   5.445  10.788   4.347 -0.3570  0.3054 -0.3200
 6302POPC   C3B76415   5.434  10.925   4.815 -0.1648  0.2952  0.2396
 6302POPC   C4B76416   5.801  10.750   5.100 -0.0541 -0.2308  0.0813
 6303POPC   NC376417   8.590  16.719   3.463  0.2786  0.0096 -0.2167
 6303POPC   PO476418   8.334  16.984   3.585  0.2440  0.0681 -0.0382
 6303POPC   GL176419   8.331  17.084   3.951  0.2145 -0.1626  0.0225
 6303POPC   GL276420   8.121  16.960   4.061 -0.0864 -0.1055  0.2278
 6303POPC   C1A76421   8.620  16.810   4.213 -0.1086 -0.3036  0.4445
 6303POPC   D2A76422   8.741  16.888   4.659 -0.1696 -0.2326  0.0681
 6303POPC   C3A76423   8.520  16.728   4.993 -0.0452 -0.0967  0.2180
 6303POPC   C4A76424   8.160  16.526   5.116 -0.1046  0.0985  0.3978
 6303POPC   C1B76425   8.263  17.137   4.418 -0.0236 -0.0415 -0.0676
 6303POPC   C2B76426   8.330  17.157   4.864 -0.0095  0.2974 -0.5133
 6303POPC   C3B76427   8.316  17.050   5.319 -0.1397 -0.0315 -0.1992
 6303POPC   C4B76428   8.114  16.804   5.720  0.4230  0.2445  0.5095
 6304POPC   NC376429  24.669   0.927   3.677  0.2351 -0.1381 -0.0071
 6304POPC   PO476430  24.869   0.873   4.030 -0.1200 -0.0964 -0.1502
 6304POPC   GL176431  24.610   0.838   4.337 -0.0174 -0.2658  0.1571
 6304POPC   GL276432  24.387   0.918   4.265 -0.1238  0.3787  0.3665
 6304POPC   C1A76433  24.776   0.933   4.771  0.0403 -0.0111  0.3039
 6304POPC   D2A76434  24.875   1.045   5.207 -0.1971 -0.2332 -0.0969
 6304POPC   C3A76435  24.488   1.034   5.557  0.1598  0.0077 -0.2045
 6304POPC   C4A76436  24.068   1.139   5.435  0.2480  0.0256  0.3139
 6304POPC   C1B76437  24.236   0.723   4.669  0.3104  0.0139  0.0323
 6304POPC   C2B76438  23.949   0.543   4.950 -0.3135  0.2966 -0.2376
 6304POPC   C3B76439  23.647   0.421   5.267  0.0680  0.2631  0.0573
 6304POPC   C4B76440  23.595   0.071   5.482 -0.3762 -0.2498  0.0034
 6305POPC   NC376441   4.778   8.550   3.650 -0.0838 -0.1188  0.2407
 6305POPC   PO476442   4.825   8.920   3.769  0.0775 -0.0291 -0.2399
 6305POPC   GL176443   4.705   8.833   4.031 -0.3824 -0.1141 -0.1392
 6305POPC   GL276444   4.916   8.878   4.225 -0.3214  0.0902 -0.0367
 6305POPC   C1A76445   4.457   8.957   4.429  0.2358 -0.1047 -0.0627
 6305POPC   D2A76446   4.369   9.277   4.757  0.1697 -0.0730 -0.2042
 6305POPC   C3A76447   3.916   9.299   4.850  0.1870 -0.1296 -0.2105
 6305POPC   C4A76448   3.452   9.366   5.082 -0.0005 -0.0831 -0.0840
 6305POPC   C1B76449   4.953   9.143   4.575 -0.1194 -0.1756  0.0670
 6305POPC   C2B76450   4.970   9.389   4.993  0.3320  0.1978 -0.0867
 6305POPC   C3B76451   4.693   9.648   5.190 -0.2075 -0.2607  0.1088
 6305POPC   C4B76452   4.544   9.821   5.572 -0.1472  0.0058  0.0547
 6306POPC   NC376453  22.058  20.149   3.660 -0.2495  0.1539  0.3167
 6306POPC   PO476454  22.379  20.350   3.697  0.1425 -0.1712  0.0076
 6306POPC   GL176455  22.385  20.552   3.995 -0.3348 -0.2059 -0.2109
 6306POPC   GL276456  22.223  20.393   4.186  0.1748 -0.1025  0.0401
 6306POPC   C1A76457  22.184  20.917   4.190  0.0867  0.1263  0.3815
 6306POPC   D2A76458  22.033  21.274   4.346  0.0727 -0.1193  0.3023
 6306POPC   C3A76459  21.962  21.356   4.815 -0.0461 -0.1854  0.1021
 6306POPC   C4A76460  21.828  21.242   5.263 -0.0094  0.2739 -0.0531
 6306POPC   C1B76461  22.305  20.117   4.477  0.0944 -0.1207  0.1067
 6306POPC   C2B76462  22.457  19.876   4.901  0.0744 -0.0272 -0.2090
 6306POPC   C3B76463  22.257  19.619   5.220 -0.1731 -0.0996  0.0606
 6306POPC   C4B76464  22.008  19.315   5.410  0.2540  0.1837  0.3669
 6307POPC   NC376465   3.240  27.883   3.885 -0.0894  0.1250  0.2015
 6307POPC   PO476466   3.239  28.237   3.699 -0.0502 -0.1199  0.1191
 6307POPC   GL176467   3.449  28.365   4.034  0.3218 -0.1067  0.1649
 6307POPC   GL276468   3.432  28.672   4.006 -0.2432 -0.0509  0.0699
 6307POPC   C1A76469   3.537  28.044   4.405  0.1815  0.0182  0.2157
 6307POPC   D2A76470   3.490  27.713   4.687 -0.0764 -0.0924 -0.1122
 6307POPC   C3A76471   3.384  27.774   5.120 -0.1130  0.1324 -0.0043
 6307POPC   C4A76472   3.339  27.913   5.555  0.1160  0.1411 -0.1859
 6307POPC   C1B76473   3.442  28.705   4.462  0.1647 -0.0029  0.2487
 6307POPC   C2B76474   3.478  28.810   4.885 -0.3282 -0.0384  0.1045
 6307POPC   C3B76475   3.449  28.992   5.298  0.3182  0.2067 -0.0113
 6307POPC   C4B76476   3.067  28.841   5.553 -0.2706  0.0153  0.1223
 6308POPC   NC376477  12.309   9.660   3.123 -0.1113  0.1005 -0.2646
 6308POPC   PO476478  12.237   9.443   3.476 -0.0895 -0.1409 -0.0311
 6308POPC   GL176479  12.465   9.614   3.780  0.1000  0.0827 -0.1013
 6308POPC   GL276480  12.769   9.620   3.775 -0.3727 -0.0538  0.2185
 6308POPC   C1A76481  12.348   9.757   4.196  0.2573 -0.1281 -0.0548
 6308POPC   D2A76482  11.989   9.847   4.454  0.0610  0.0725 -0.3430
 6308POPC   C3A76483  12.061   9.606   4.881 -0.2372 -0.1524 -0.4757
 6308POPC   C4A76484  11.865   9.423   5.247 -0.2521  0.4963 -0.5635
 6308POPC   C1B76485  12.912   9.729   4.172 -0.4063  0.2094 -0.2090
 6308POPC   C2B76486  12.706   9.956   4.471 -0.0672 -0.0408  0.0005
 6308POPC   C3B76487  12.464  10.132   4.838  0.0199  0.2179  0.0128
 6308POPC   C4B76488  12.410   9.985   5.263  0.0484 -0.1291 -0.3990
 6309POPC   NC376489  10.830   1.851   3.854  0.1786 -0.1666  0.4239
 6309POPC   PO476490  10.972   1.499   3.914 -0.2790 -0.2365  0.0873
 6309POPC   GL176491  11.300   1.404   4.114  0.0607 -0.2252 -0.3274
 6309POPC   GL276492  11.204   1.514   4.368  0.3361 -0.0486 -0.3039
 6309POPC   C1A76493  11.660   1.250   4.347  0.0022  0.0081  0.2718
 6309POPC   D2A76494  11.771   1.071   4.752 -0.1210  0.0899  0.2119
 6309POPC   C3A76495  11.584   0.942   5.165  0.2236 -0.0596 -0.0638
 6309POPC   C4A76496  11.632   1.019   5.643  0.0603  0.1773 -0.0563
 6309POPC   C1B76497  11.347   1.477   4.784  0.0601 -0.2135 -0.0616
 6309POPC   C2B76498  11.499   1.410   5.222  0.3021 -0.2190  0.3745
 6309POPC   C3B76499  11.633   1.636   5.568 -0.0389 -0.1992 -0.0478
 6309POPC   C4B76500  11.733   1.771   6.056 -0.4304  0.0427  0.3575
 6310POPC   NC376501   7.667   1.136   3.961 -0.1589  0.1887  0.1480
 6310POPC   PO476502   7.304   1.237   4.102  0.0705  0.1415  0.0853
 6310POPC   GL176503   7.449   1.319   4.471  0.1897 -0.2727  0.1195
 6310POPC   GL276504   7.581   1.035   4.450  0.3905 -0.0472 -0.0126
 6310POPC   C1A76505   7.152   1.279   4.778  0.3435  0.0153  0.2607
 6310POPC   D2A76506   6.973   0.967   5.111 -0.4978  0.1622 -0.0155
 6310POPC   C3A76507   7.012   0.669   5.547 -0.0116  0.1479  0.0126
 6310POPC   C4A76508   7.053   0.808   6.024 -0.2722 -0.1557  0.2245
 6310POPC   C1B76509   7.809   0.818   4.774 -0.1950 -0.1263 -0.0148
 6310POPC   C2B76510   7.931   0.710   5.206  0.3293 -0.0347  0.0721
 6310POPC   C3B76511   8.349   0.707   5.429  0.0915  0.2808 -0.0316
 6310POPC   C4B76512   8.757   0.855   5.420 -0.0734  0.1750  0.0670
 6311POPC   NC376513  28.591  25.312   3.463 -0.0049  0.0033 -0.0376
 6311POPC   PO476514  28.725  25.625   3.644 -0.0153 -0.1701 -0.0067
 6311POPC   GL176515  28.872  25.601   4.032 -0.0152  0.2196 -0.0600
 6311POPC   GL276516  28.876  25.367   4.296 -0.1546 -0.0817 -0.0182
 6311POPC   C1A76517  28.944  25.863   4.439  0.1115 -0.1489  0.1347
 6311POPC   D2A76518  28.833  26.110   4.814 -0.1546  0.1436 -0.1133
 6311POPC   C3A76519  28.945  26.035   5.259 -0.1092 -0.1332 -0.0906
 6311POPC   C4A76520  29.213  25.960   5.609 -0.2582  0.0927  0.1982
 6311POPC   C1B76521  28.815  25.400   4.721  0.0511  0.1008 -0.1561
 6311POPC   C2B76522  28.683  25.612   5.118 -0.0668  0.1283 -0.1570
 6311POPC   C3B76523  28.377  25.723   5.447  0.2664 -0.6638 -0.2149
 6311POPC   C4B76524  28.086  25.843   5.795 -0.0296  0.5391  0.3452
 6312POPC   NC376525  16.132  18.127   4.124 -0.1243  0.3413  0.0216
 6312POPC   PO476526  15.932  18.333   3.821 -0.1759  0.1094  0.1542
 6312POPC   GL176527  15.825  18.494   4.176  0.0848  0.2116  0.0659
 6312POPC   GL276528  15.614  18.581   4.394  0.0010 -0.2421  0.3302
 6312POPC   C1A76529  16.041  18.420   4.577 -0.1332  0.1180  0.2870
 6312POPC   D2A76530  16.180  18.452   5.034 -0.2063 -0.0395 -0.1052
 6312POPC   C3A76531  16.069  18.534   5.458 -0.0237  0.0992 -0.1407
 6312POPC   C4A76532  16.311  18.749   5.833 -0.1403 -0.0833 -0.2807
 6312POPC   C1B76533  15.370  18.721   4.768  0.2076  0.1618 -0.1045
 6312POPC   C2B76534  15.346  18.667   5.238 -0.0812 -0.3032 -0.2407
 6312POPC   C3B76535  15.579  18.498   5.601 -0.2568 -0.0655  0.1483
 6312POPC   C4B76536  15.790  18.620   5.933 -0.3888 -0.2144 -0.1121
 6313POPC   NC376537  11.100  18.389   3.691 -0.0764 -0.1313  0.0585
 6313POPC   PO476538  11.322  18.356   3.354 -0.0405 -0.2461 -0.1213
 6313POPC   GL176539  11.506  18.643   3.631  0.1770 -0.0376 -0.1509
 6313POPC   GL276540  11.453  18.880   3.455 -0.1435  0.1619 -0.0373
 6313POPC   C1A76541  11.737  18.640   3.965 -0.0892 -0.3956  0.0076
 6313POPC   D2A76542  12.015  18.587   4.343 -0.2026 -0.0506  0.0740
 6313POPC   C3A76543  12.237  18.645   4.739  0.0076  0.0286 -0.0268
 6313POPC   C4A76544  12.568  18.771   5.083 -0.1060  0.0628 -0.1471
 6313POPC   C1B76545  11.879  18.962   3.548 -0.1992  0.0532 -0.0559
 6313POPC   C2B76546  12.285  18.870   3.409  0.2352  0.1005  0.1056
 6313POPC   C3B76547  12.718  18.961   3.212  0.0898 -0.3613 -0.0600
 6313POPC   C4B76548  13.084  18.882   3.021  0.0654  0.3639 -0.0293
 6314POPC   NC376549   1.390   7.516   3.956 -0.1865  0.0786  0.2539
 6314POPC   PO476550   1.087   7.381   3.679  0.1137 -0.2269  0.0211
 6314POPC   GL176551   0.759   7.471   3.877  0.3633  0.3513 -0.0322
 6314POPC   GL276552   0.812   7.732   3.935  0.0658  0.1629  0.0746
 6314POPC   C1A76553   0.620   7.434   4.311 -0.1619 -0.1516  0.0648
 6314POPC   D2A76554   0.539   7.684   4.727 -0.4139 -0.2178 -0.2708
 6314POPC   C3A76555   0.704   8.126   4.841  0.1496  0.4741 -0.2923
 6314POPC   C4A76556   0.904   8.496   4.872  0.0995 -0.0027 -0.0554
 6314POPC   C1B76557   0.902   8.186   4.020 -0.2844 -0.0571  0.2071
 6314POPC   C2B76558   0.918   8.694   3.910  0.0172 -0.0423  0.2539
 6314POPC   C3B76559   0.715   9.131   3.933 -0.1729 -0.0463 -0.1031
 6314POPC   C4B76560   0.382   9.251   4.230 -0.0284 -0.0434  0.1262
 6315POPC   NC376561  10.761   9.913   3.438 -0.0076 -0.2025 -0.1169
 6315POPC   PO476562  10.725   9.674   3.740 -0.0635 -0.3028 -0.0485
 6315POPC   GL176563  10.922   9.571   4.045 -0.0248  0.3678  0.1729
 6315POPC   GL276564  10.676   9.601   4.214 -0.2568 -0.0312 -0.2068
 6315POPC   C1A76565  11.050   9.334   4.454  0.0832 -0.0188  0.2811
 6315POPC   D2A76566  11.013   9.266   4.889 -0.2618  0.0862  0.0891
 6315POPC   C3A76567  11.002   9.472   5.375  0.0601 -0.1496 -0.1520
 6315POPC   C4A76568  10.867   9.679   5.798  0.0139  0.1610  0.0496
 6315POPC   C1B76569  10.585   9.448   4.637 -0.0216 -0.1775  0.2451
 6315POPC   C2B76570  10.555   9.314   5.086  0.0145 -0.0345 -0.3781
 6315POPC   C3B76571  10.558   9.311   5.562 -0.0118 -0.1189 -0.0032
 6315POPC   C4B76572  10.460   9.448   5.952  0.0157  0.0414 -0.1964
 6316POPC   NC376573   7.812  19.298   3.776 -0.1313 -0.0289 -0.0159
 6316POPC   PO476574   7.582  19.549   3.536  0.0324  0.2479  0.2520
 6316POPC   GL176575   7.317  19.362   3.751  0.1387  0.1477 -0.2307
 6316POPC   GL276576   7.206  19.566   3.913  0.0193 -0.1912  0.1552
 6316POPC   C1A76577   7.421  18.986   4.072 -0.1292 -0.1017  0.1640
 6316POPC   D2A76578   7.310  18.572   4.219 -0.0249  0.0740  0.0079
 6316POPC   C3A76579   7.238  18.544   4.669  0.2369  0.1927 -0.0725
 6316POPC   C4A76580   7.253  18.665   5.142 -0.2241  0.0505 -0.2635
 6316POPC   C1B76581   7.370  19.370   4.357 -0.1109 -0.1641 -0.0924
 6316POPC   C2B76582   7.413  19.338   4.794 -0.2898 -0.1727 -0.2100
 6316POPC   C3B76583   7.081  19.253   5.045 -0.4051 -0.2203  0.2001
 6316POPC   C4B76584   6.854  19.041   5.418 -0.0604 -0.1934  0.1881
 6317POPC   NC376585   2.986   9.929   3.612 -0.1290 -0.1156 -0.0059
 6317POPC   PO476586   2.759  10.285   3.717 -0.2965  0.3163  0.2263
 6317POPC   GL176587   2.642  10.076   3.990  0.1055 -0.1229 -0.3356
 6317POPC   GL276588   2.613   9.762   3.907  0.0249  0.0701  0.1717
 6317POPC   C1A76589   2.469  10.281   4.361 -0.1025  0.1286  0.0547
 6317POPC   D2A76590   2.542  10.349   4.864  0.3564  0.0188  0.3156
 6317POPC   C3A76591   2.367  10.417   5.279 -0.0045 -0.2282  0.1191
 6317POPC   C4A76592   2.248  10.438   5.752 -0.3440 -0.3586  0.0575
 6317POPC   C1B76593   2.435   9.807   4.279  0.2194 -0.1411 -0.0436
 6317POPC   C2B76594   2.274   9.895   4.687 -0.2131  0.1206 -0.0491
 6317POPC   C3B76595   2.267   9.913   5.153 -0.2246  0.0881  0.2208
 6317POPC   C4B76596   2.122   9.987   5.574 -0.0072 -0.2814  0.1336
 6318POPC   NC376597  12.235  27.056   3.456 -0.0335 -0.0995 -0.1422
 6318POPC   PO476598  11.958  27.203   3.744  0.1474 -0.2608 -0.0845
 6318POPC   GL176599  11.736  27.434   4.065  0.0970 -0.1173  0.2681
 6318POPC   GL276600  11.505  27.298   4.232 -0.1862 -0.0198 -0.1741
 6318POPC   C1A76601  11.743  27.688   4.483 -0.3633  0.1077  0.1075
 6318POPC   D2A76602  11.493  27.832   4.827  0.0873 -0.1732 -0.1233
 6318POPC   C3A76603  11.528  27.768   5.300  0.3583  0.1858  0.2279
 6318POPC   C4A76604  11.655  27.651   5.752 -0.0472  0.0094  0.1180
 6318POPC   C1B76605  11.535  27.166   4.668 -0.0274 -0.2364  0.0322
 6318POPC   C2B76606  11.667  26.904   5.041 -0.1059 -0.2565 -0.2930
 6318POPC   C3B76607  11.992  26.907   5.364  0.3684 -0.1734 -0.3736
 6318POPC   C4B76608  12.015  26.787   5.807 -0.1220 -0.0551  0.4540
 6319POPC   NC376609  18.560  21.514   3.562 -0.1077 -0.2379  0.2833
 6319POPC   PO476610  18.292  21.265   3.699  0.0130  0.0199 -0.0437
 6319POPC   GL176611  18.149  21.079   4.041 -0.1580  0.2532  0.0439
 6319POPC   GL276612  18.198  21.353   4.307 -0.1245  0.3550 -0.0565
 6319POPC   C1A76613  17.759  21.198   4.280 -0.2764  0.0648 -0.0859
 6319POPC   D2A76614  17.444  21.182   4.653  0.0229 -0.2141 -0.1076
 6319POPC   C3A76615  17.477  21.060   5.074  0.2013  0.0907  0.0442
 6319POPC   C4A76616  17.325  21.176   5.474 -0.0021  0.0905  0.2296
 6319POPC   C1B76617  18.214  21.296   4.763 -0.0701 -0.0077 -0.2099
 6319POPC   C2B76618  18.064  21.288   5.223  0.2518 -0.3153  0.0441
 6319POPC   C3B76619  18.000  21.504   5.622 -0.0696  0.0945 -0.0948
 6319POPC   C4B76620  17.787  22.005   5.621  0.0844  0.4172  0.3004
 6320POPC   NC376621  21.809  30.996   2.978  0.1156 -0.2556 -0.0926
 6320POPC   PO476622  21.592  31.145   3.259  0.1646  0.0337 -0.0064
 6320POPC   GL176623  21.673  31.146   3.636  0.1871  0.2038  0.1204
 6320POPC   GL276624  21.508  31.353   3.739 -0.2756  0.1727 -0.0053
 6320POPC   C1A76625  21.773  30.921   4.024 -0.1483 -0.1521 -0.1033
 6320POPC   D2A76626  21.696  31.072   4.448  0.0677  0.2792  0.0471
 6320POPC   C3A76627  21.842  30.998   4.872  0.3343 -0.3512  0.2186
 6320POPC   C4A76628  22.018  30.968   5.336  0.0344 -0.3602 -0.0626
 6320POPC   C1B76629  21.707  31.485   4.151 -0.5153 -0.2295  0.1032
 6320POPC   C2B76630  22.010  31.506   4.529 -0.1665 -0.0714 -0.1640
 6320POPC   C3B76631  22.267  31.823   4.723  0.3133  0.0290  0.0761
 6320POPC   C4B76632  22.690  31.853   4.591  0.0375  0.2474  0.0521
 6321POPC   NC376633  22.924   8.054   3.347 -0.1208 -0.0027 -0.1856
 6321POPC   PO476634  22.907   8.418   3.583 -0.1653 -0.0747 -0.1107
 6321POPC   GL176635  22.690   8.525   3.903 -0.1872 -0.3445 -0.0931
 6321POPC   GL276636  22.507   8.376   3.929 -0.2795  0.0877  0.1567
 6321POPC   C1A76637  22.886   8.727   4.277  0.0326  0.3021  0.6037
 6321POPC   D2A76638  23.033   8.988   4.546 -0.3519 -0.0280 -0.1698
 6321POPC   C3A76639  23.165   8.954   4.995 -0.1146 -0.0093  0.0861
 6321POPC   C4A76640  23.024   9.129   5.393 -0.1485 -0.1344  0.1298
 6321POPC   C1B76641  22.464   8.424   4.380  0.0975 -0.0504  0.0815
 6321POPC   C2B76642  22.483   8.202   4.754 -0.0935 -0.0301  0.1208
 6321POPC   C3B76643  22.261   7.958   5.021 -0.1140  0.3034  0.0021
 6321POPC   C4B76644  22.074   7.610   5.343  0.3175  0.1759  0.3253
 6322POPC   NC376645  11.359  25.718   3.762 -0.1215 -0.1477 -0.1784
 6322POPC   PO476646  11.450  26.021   3.623 -0.3115 -0.1019 -0.0261
 6322POPC   GL176647  11.428  26.165   3.900  0.2448  0.2461 -0.1983
 6322POPC   GL276648  11.059  26.029   3.997 -0.1238 -0.0852 -0.2771
 6322POPC   C1A76649  11.311  26.297   4.353  0.0292  0.1696  0.1652
 6322POPC   D2A76650  11.344  26.494   4.764  0.3085  0.1257 -0.0435
 6322POPC   C3A76651  11.689  26.435   5.054 -0.0454  0.0418  0.0818
 6322POPC   C4A76652  11.972  26.373   5.433 -0.0668 -0.2617  0.1970
 6322POPC   C1B76653  11.334  25.796   4.260 -0.0522  0.1837  0.0089
 6322POPC   C2B76654  11.502  26.003   4.688  0.0878  0.1080  0.2453
 6322POPC   C3B76655  11.552  25.976   5.203  0.4225 -0.1135  0.0224
 6322POPC   C4B76656  11.665  26.070   5.635  0.1089 -0.0872 -0.1918
 6323POPC   NC376657  13.727  21.160   2.993  0.2312 -0.0315  0.0435
 6323POPC   PO476658  13.655  21.226   3.399  0.0606  0.0165 -0.1016
 6323POPC   GL176659  13.742  21.102   3.762 -0.3212 -0.1218  0.1194
 6323POPC   GL276660  13.888  21.320   3.905 -0.1117 -0.2137 -0.0813
 6323POPC   C1A76661  13.532  20.842   4.092  0.0692 -0.2338 -0.2041
 6323POPC   D2A76662  13.442  21.117   4.402 -0.1087 -0.1795 -0.1069
 6323POPC   C3A76663  13.595  21.047   4.889  0.1324  0.1542  0.1740
 6323POPC   C4A76664  13.397  21.071   5.288 -0.0008 -0.2371  0.0111
 6323POPC   C1B76665  13.864  21.374   4.357 -0.2709 -0.1716 -0.1681
 6323POPC   C2B76666  13.895  21.368   4.800  0.2621 -0.2634  0.1926
 6323POPC   C3B76667  14.098  20.996   5.084 -0.0490 -0.0695  0.1095
 6323POPC   C4B76668  13.999  20.769   5.451 -0.2490 -0.1379  0.1611
 6324POPC   NC376669  27.206  23.833   3.580 -0.3314 -0.0225  0.4556
 6324POPC   PO476670  26.882  23.697   3.754  0.1015 -0.1900 -0.0619
 6324POPC   GL176671  26.726  23.466   4.041 -0.0879 -0.0332  0.3669
 6324POPC   GL276672  26.730  23.255   4.226  0.0100  0.1780 -0.0857
 6324POPC   C1A76673  26.452  23.724   4.309  0.1809 -0.0098 -0.1902
 6324POPC   D2A76674  26.282  24.124   4.521 -0.3520 -0.0360 -0.0410
 6324POPC   C3A76675  26.025  24.412   4.791  0.0216  0.3126 -0.1067
 6324POPC   C4A76676  25.801  24.454   5.156  0.0187 -0.0510  0.3042
 6324POPC   C1B76677  26.489  23.099   4.586  0.1644 -0.2334 -0.1357
 6324POPC   C2B76678  26.182  23.063   4.931 -0.0274 -0.1774  0.2358
 6324POPC   C3B76679  25.862  23.243   5.310  0.1834 -0.0652 -0.0155
 6324POPC   C4B76680  25.764  23.706   5.360 -0.0002  0.1342 -0.0586
 6325POPC   NC376681   3.425  14.310   4.190  0.0313  0.0405 -0.1255
 6325POPC   PO476682   3.064  14.223   4.221 -0.2724  0.0112  0.1654
 6325POPC   GL176683   3.205  14.212   4.655 -0.1269  0.0164 -0.1947
 6325POPC   GL276684   3.448  14.123   4.686  0.1242 -0.2313 -0.1423
 6325POPC   C1A76685   3.333  14.529   5.001  0.2565  0.0842 -0.6180
 6325POPC   D2A76686   3.620  14.544   5.377 -0.0830 -0.2149 -0.2440
 6325POPC   C3A76687   3.671  14.217   5.637  0.2769 -0.4351  0.2169
 6325POPC   C4A76688   3.701  13.922   5.948 -0.1661  0.2833  0.1944
 6325POPC   C1B76689   3.421  14.058   5.184 -0.0708 -0.0523 -0.1883
 6325POPC   C2B76690   3.191  14.038   5.622  0.1289 -0.2176  0.3004
 6325POPC   C3B76691   3.026  13.905   6.003  0.0504  0.0638  0.0846
 6325POPC   C4B76692   3.041  14.000   6.502  0.2337  0.2002 -0.0686
 6326POPC   NC376693  29.181  29.460   3.300 -0.2761  0.0210 -0.2947
 6326POPC   PO476694  29.398  29.732   3.293 -0.1235  0.1640  0.0673
 6326POPC   GL176695  29.354  29.653   3.672 -0.0477  0.1004 -0.4050
 6326POPC   GL276696  29.494  29.852   3.926 -0.0881 -0.2203  0.0786
 6326POPC   C1A76697  29.031  29.629   4.036 -0.4868  0.2338  0.0232
 6326POPC   D2A76698  28.903  29.676   4.496  0.1212 -0.0582 -0.0425
 6326POPC   C3A76699  28.629  29.963   4.689  0.0100  0.1112  0.1134
 6326POPC   C4A76700  28.496  30.071   5.104 -0.0036  0.1144  0.0811
 6326POPC   C1B76701  29.382  29.847   4.359  0.0011  0.0216 -0.0242
 6326POPC   C2B76702  29.368  29.807   4.811  0.0503 -0.0180  0.0166
 6326POPC   C3B76703  29.403  29.749   5.278 -0.4898  0.2966  0.0354
 6326POPC   C4B76704  29.195  29.921   5.680 -0.2515  0.1603 -0.1183
 6327POPC   NC376705   4.252  14.913   3.695 -0.1610 -0.1147  0.0611
 6327POPC   PO476706   4.423  15.078   3.964 -0.1252 -0.1255  0.0820
 6327POPC   GL176707   4.496  14.809   4.302 -0.1444 -0.0713  0.0900
 6327POPC   GL276708   4.353  14.568   4.379  0.1073 -0.0169 -0.2623
 6327POPC   C1A76709   4.703  14.893   4.709  0.1033 -0.1171 -0.2934
 6327POPC   D2A76710   4.898  14.765   5.055  0.0351  0.1616 -0.0845
 6327POPC   C3A76711   4.912  14.559   5.439 -0.0907 -0.0246 -0.3774
 6327POPC   C4A76712   5.115  14.599   5.801  0.1933 -0.0221  0.1116
 6327POPC   C1B76713   4.386  14.095   4.539  0.1522  0.0406 -0.0884
 6327POPC   C2B76714   4.525  13.800   4.814 -0.0166  0.1074  0.2244
 6327POPC   C3B76715   4.748  13.586   5.209  0.1926 -0.2013  0.1905
 6327POPC   C4B76716   4.754  13.660   5.666 -0.0924 -0.2904 -0.0244
 6328POPC   NC376717  20.748  22.852   3.859  0.2424  0.2293 -0.0070
 6328POPC   PO476718  20.890  22.529   3.767 -0.3496  0.0013 -0.0172
 6328POPC   GL176719  21.254  22.565   3.959 -0.1853  0.1268  0.0073
 6328POPC   GL276720  21.396  22.336   3.905  0.1006  0.1581 -0.2649
 6328POPC   C1A76721  21.497  22.547   4.354 -0.2872 -0.0333  0.4128
 6328POPC   D2A76722  21.491  22.224   4.658  0.0835  0.3523  0.2429
 6328POPC   C3A76723  21.522  22.210   5.150 -0.1108 -0.0866  0.1449
 6328POPC   C4A76724  21.518  22.080   5.585  0.1690 -0.0892  0.3078
 6328POPC   C1B76725  21.261  22.081   4.263  0.0889  0.0705 -0.1900
 6328POPC   C2B76726  21.167  21.686   4.562 -0.0405 -0.0838 -0.0881
 6328POPC   C3B76727  21.294  21.684   4.991 -0.1041  0.1070  0.1675
 6328POPC   C4B76728  21.457  21.528   5.404 -0.1691  0.3080  0.1847
 6329POPC   NC376729  30.490   7.392   3.127 -0.0353  0.2907 -0.2147
 6329POPC   PO476730  30.394   7.735   3.270 -0.0671  0.1189  0.0312
 6329POPC   GL176731  30.399   7.827   3.681 -0.1183 -0.0512 -0.1029
 6329POPC   GL276732  30.612   7.716   3.735  0.0737  0.1215  0.0581
 6329POPC   C1A76733  30.191   8.237   3.833 -0.0011  0.2071 -0.2350
 6329POPC   D2A76734  29.977   8.455   4.127  0.0330 -0.0353  0.0510
 6329POPC   C3A76735  30.036   8.495   4.586  0.2743  0.1624  0.0211
 6329POPC   C4A76736  30.166   8.558   4.961  0.0518  0.0520 -0.1277
 6329POPC   C1B76737  30.518   7.932   4.167 -0.0299 -0.1532  0.0988
 6329POPC   C2B76738  30.404   8.038   4.629 -0.1610  0.1109  0.1143
 6329POPC   C3B76739  29.963   8.020   4.801  0.1001  0.1359 -0.1825
 6329POPC   C4B76740  29.858   8.253   5.169  0.2181  0.0275 -0.0734
 6330POPC   NC376741  26.580  30.713   3.399  0.1289 -0.1492 -0.2362
 6330POPC   PO476742  26.596  31.071   3.279  0.0118 -0.1000  0.1760
 6330POPC   GL176743  26.826  31.302   3.582  0.2441 -0.3907 -0.0321
 6330POPC   GL276744  26.580  31.165   3.755  0.1110 -0.2968 -0.2254
 6330POPC   C1A76745  27.044  31.189   4.010 -0.0561 -0.2764  0.3094
 6330POPC   D2A76746  27.089  31.143   4.437 -0.0219  0.4901  0.1183
 6330POPC   C3A76747  27.428  30.815   4.666  0.1037 -0.2254 -0.0346
 6330POPC   C4A76748  27.349  30.450   4.958 -0.0781  0.2157  0.2172
 6330POPC   C1B76749  26.577  31.066   4.208 -0.1126  0.0724  0.1102
 6330POPC   C2B76750  26.608  31.099   4.642 -0.0529 -0.4169  0.0007
 6330POPC   C3B76751  26.429  31.070   5.068 -0.0550 -0.2062 -0.1129
 6330POPC   C4B76752  26.489  31.207   5.489 -0.2158 -0.0432  0.3055
 6331POPC   NC376753  26.626  17.183   3.559  0.2909  0.2106  0.1883
 6331POPC   PO476754  26.618  17.486   3.347  0.1620  0.1098  0.1113
 6331POPC   GL176755  26.767  17.637   3.608 -0.1484  0.0577 -0.5017
 6331POPC   GL276756  26.592  17.642   3.850 -0.0119  0.1236 -0.0249
 6331POPC   C1A76757  26.788  18.085   3.806  0.0488  0.1557 -0.0394
 6331POPC   D2A76758  26.787  18.525   3.990 -0.0998 -0.3511  0.0552
 6331POPC   C3A76759  26.348  18.607   4.119 -0.0678 -0.0100  0.1410
 6331POPC   C4A76760  26.241  18.827   4.455 -0.2742 -0.1439  0.2691
 6331POPC   C1B76761  26.844  17.764   4.193 -0.1197  0.0613  0.1180
 6331POPC   C2B76762  26.822  17.784   4.660  0.0338  0.1213  0.0708
 6331POPC   C3B76763  26.654  18.126   4.956  0.0062  0.1858 -0.2193
 6331POPC   C4B76764  26.739  18.366   5.317  0.0280 -0.0619 -0.0726
 6332POPC   NC376765  27.406  20.067   3.774 -0.1333  0.0061  0.2357
 6332POPC   PO476766  27.054  20.096   3.919 -0.0937 -0.1866 -0.2686
 6332POPC   GL176767  26.960  20.180   4.278  0.2364 -0.0322  0.1813
 6332POPC   GL276768  27.067  20.311   4.478 -0.3636 -0.2008  0.0295
 6332POPC   C1A76769  27.054  19.851   4.585 -0.0343 -0.0729  0.1177
 6332POPC   D2A76770  27.103  19.733   5.012 -0.2348  0.1761 -0.4084
 6332POPC   C3A76771  26.995  19.796   5.470 -0.1407  0.1439  0.3016
 6332POPC   C4A76772  26.992  19.753   5.893  0.0751  0.1659 -0.5926
 6332POPC   C1B76773  27.027  20.273   4.949 -0.0753  0.2299  0.1583
 6332POPC   C2B76774  27.156  20.470   5.355 -0.0966  0.0866 -0.1845
 6332POPC   C3B76775  27.044  20.818   5.607 -0.2292 -0.1506 -0.0107
 6332POPC   C4B76776  26.905  21.110   5.943  0.1523 -0.2348  0.0332
 6333POPC   NC376777   1.994   4.309   3.617 -0.0926  0.2044  0.0535
 6333POPC   PO476778   2.071   3.949   3.779  0.2526 -0.3434 -0.1352
 6333POPC   GL176779   1.947   3.790   4.234  0.1322  0.0475  0.1607
 6333POPC   GL276780   1.670   3.746   4.382 -0.2634 -0.0629  0.1851
 6333POPC   C1A76781   2.109   3.906   4.650 -0.1763 -0.2188  0.1388
 6333POPC   D2A76782   2.096   3.991   5.067  0.4853 -0.0821  0.0029
 6333POPC   C3A76783   1.866   4.225   5.438 -0.0107  0.0707  0.2978
 6333POPC   C4A76784   1.623   4.371   5.796 -0.0375 -0.0653  0.1414
 6333POPC   C1B76785   1.676   3.768   4.816  0.1048 -0.0825 -0.3714
 6333POPC   C2B76786   1.602   3.829   5.267  0.3094 -0.3018  0.1395
 6333POPC   C3B76787   1.591   3.827   5.693  0.2483 -0.0354 -0.4054
 6333POPC   C4B76788   1.750   3.978   6.097  0.0545 -0.0104  0.0624
 6334POPC   NC376789  21.701  13.746   3.247  0.1602  0.1626  0.0614
 6334POPC   PO476790  21.319  13.641   3.294  0.2668  0.0499  0.0199
 6334POPC   GL176791  21.178  13.936   3.532 -0.1466  0.0808 -0.1567
 6334POPC   GL276792  20.901  13.883   3.427  0.1128  0.0456  0.2330
 6334POPC   C1A76793  20.951  14.300   3.730 -0.0980  0.0232  0.2386
 6334POPC   D2A76794  20.876  14.749   3.886 -0.6326  0.2844  0.1084
 6334POPC   C3A76795  21.160  14.996   3.653  0.0409  0.1431  0.0125
 6334POPC   C4A76796  21.315  15.445   3.551  0.0241  0.0826 -0.2034
 6334POPC   C1B76797  20.750  13.774   3.871 -0.0298 -0.2300 -0.2331
 6334POPC   C2B76798  20.474  13.888   4.172  0.3248 -0.0297  0.1685
 6334POPC   C3B76799  20.323  13.771   4.637  0.2224  0.2076  0.3657
 6334POPC   C4B76800  20.197  13.550   5.050 -0.2807 -0.3147 -0.0994
 6335POPC   NC376801   7.207  29.403   3.350 -0.0376  0.1527  0.1170
 6335POPC   PO476802   7.181  29.229   3.704  0.2740 -0.2454  0.2784
 6335POPC   GL176803   7.256  29.599   3.959 -0.0121  0.0557 -0.1164
 6335POPC   GL276804   6.987  29.441   4.119 -0.2477 -0.0704  0.3336
 6335POPC   C1A76805   7.191  29.894   4.314 -0.2915  0.0028 -0.3444
 6335POPC   D2A76806   6.946  30.191   4.548 -0.0522 -0.1179 -0.1706
 6335POPC   C3A76807   6.532  30.124   4.799  0.0677 -0.2065  0.0147
 6335POPC   C4A76808   6.048  30.079   4.854 -0.0309  0.0136 -0.0302
 6335POPC   C1B76809   6.896  29.622   4.587  0.2253  0.1612 -0.1542
 6335POPC   C2B76810   6.966  29.796   4.988  0.2058 -0.4510 -0.3949
 6335POPC   C3B76811   7.020  29.603   5.377 -0.0225 -0.1621 -0.0984
 6335POPC   C4B76812   6.668  29.595   5.677 -0.0201 -0.1033  0.2423
 6336POPC   NC376813   2.057  31.154   3.536 -0.1797  0.0182  0.2062
 6336POPC   PO476814   2.160  30.855   3.299  0.2295  0.1891 -0.0482
 6336POPC   GL176815   2.054  30.675   3.681 -0.2239  0.4071  0.0583
 6336POPC   GL276816   2.285  30.495   3.680 -0.4750  0.1412 -0.0547
 6336POPC   C1A76817   2.005  30.957   4.037  0.0621 -0.0523 -0.0352
 6336POPC   D2A76818   1.767  30.934   4.441  0.0417  0.0246 -0.2742
 6336POPC   C3A76819   1.458  31.211   4.675  0.0462  0.1072  0.0211
 6336POPC   C4A76820   1.530  31.399   5.083  0.0499 -0.8027  0.1859
 6336POPC   C1B76821   2.153  30.317   4.160  0.1039  0.0313  0.0284
 6336POPC   C2B76822   2.149  30.418   4.571  0.2693 -0.0640 -0.1194
 6336POPC   C3B76823   1.984  30.697   4.857  0.2232 -0.0435  0.1675
 6336POPC   C4B76824   1.580  30.810   4.983  0.1946  0.0452  0.1777
 6337POPC   NC376825  30.857  24.013   3.312 -0.3126  0.0440  0.2429
 6337POPC   PO476826  30.597  24.328   3.262 -0.1279  0.0981 -0.2401
 6337POPC   GL176827  30.837  24.527   3.478 -0.2886  0.3259  0.0781
 6337POPC   GL276828  31.080  24.514   3.404 -0.0536  0.2513  0.0801
 6337POPC   C1A76829  31.078  24.963   3.447 -0.2799  0.1560  0.0115
 6337POPC   D2A76830  31.418  25.214   3.540 -0.0740  0.1217 -0.3487
 6337POPC   C3A76831  31.621  25.203   3.998  0.1381 -0.1005  0.2237
 6337POPC   C4A76832  31.760  25.224   4.376 -0.0121 -0.0304 -0.1631
 6337POPC   C1B76833  31.066  24.425   3.924 -0.0458 -0.2928 -0.0650
 6337POPC   C2B76834  30.983  24.574   4.363  0.0066  0.2296  0.2265
 6337POPC   C3B76835  30.971  24.790   4.749  0.0314  0.1192 -0.2681
 6337POPC   C4B76836  31.175  25.024   5.079 -0.0002 -0.1116  0.0720
 6338POPC   NC376837  12.519  14.521   3.135 -0.1053  0.0980 -0.1862
 6338POPC   PO476838  12.238  14.663   3.381 -0.2484 -0.0721  0.1187
 6338POPC   GL176839  12.040  14.740   3.709  0.1967  0.0793 -0.1706
 6338POPC   GL276840  11.970  14.943   3.959  0.2401 -0.2377 -0.0067
 6338POPC   C1A76841  12.039  14.495   4.109 -0.0885 -0.0644  0.0360
 6338POPC   D2A76842  11.949  14.157   4.412  0.1483 -0.2116  0.0744
 6338POPC   C3A76843  12.037  13.748   4.349 -0.1903 -0.1816  0.2010
 6338POPC   C4A76844  12.317  13.387   4.228 -0.1452  0.1112 -0.0922
 6338POPC   C1B76845  12.043  15.140   4.381  0.0598 -0.2668 -0.1728
 6338POPC   C2B76846  11.948  15.126   4.845 -0.1814 -0.2848  0.1752
 6338POPC   C3B76847  11.549  15.190   5.072 -0.2735 -0.0657 -0.0262
 6338POPC   C4B76848  11.202  15.438   5.039  0.2139  0.0309  0.0093
 6339POPC   NC376849  13.715   5.520   3.736 -0.2929 -0.0338 -0.2942
 6339POPC   PO476850  13.524   5.265   3.534  0.1504 -0.0259  0.0666
 6339POPC   GL176851  13.399   5.171   3.943  0.1362  0.0140 -0.3491
 6339POPC   GL276852  13.564   4.935   4.055 -0.0852  0.1046  0.0447
 6339POPC   C1A76853  13.175   5.318   4.354  0.0443  0.3130  0.0721
 6339POPC   D2A76854  13.123   5.568   4.688  0.1775 -0.1599  0.1222
 6339POPC   C3A76855  13.250   5.533   5.134  0.0972  0.0627 -0.1914
 6339POPC   C4A76856  13.152   5.395   5.536  0.0698  0.2778 -0.0378
 6339POPC   C1B76857  13.501   4.971   4.549  0.1129 -0.0704  0.0533
 6339POPC   C2B76858  13.719   4.930   4.934  0.4050 -0.1853 -0.0383
 6339POPC   C3B76859  13.763   4.708   5.351  0.0452  0.0891  0.1263
 6339POPC   C4B76860  14.153   4.698   5.598 -0.2757 -0.1595  0.1273
 6340POPC   NC376861  16.229  26.043   3.127 -0.1567 -0.1342  0.3358
 6340POPC   PO476862  16.094  26.043   3.507 -0.0432 -0.1326  0.0773
 6340POPC   GL176863  16.323  25.903   3.866 -0.0393 -0.2034  0.0214
 6340POPC   GL276864  16.263  25.545   3.807 -0.1751 -0.0985 -0.2448
 6340POPC   C1A76865  16.596  25.808   4.254  0.1995 -0.3550 -0.0769
 6340POPC   D2A76866  16.833  26.043   4.616 -0.0978  0.1061  0.1169
 6340POPC   C3A76867  16.655  26.312   4.988  0.2181 -0.1619 -0.0437
 6340POPC   C4A76868  16.707  26.492   5.420  0.1963  0.0162 -0.1429
 6340POPC   C1B76869  16.100  25.622   4.197 -0.1434 -0.1013 -0.0823
 6340POPC   C2B76870  16.175  25.876   4.585  0.2464  0.1174  0.0567
 6340POPC   C3B76871  16.375  25.821   5.022 -0.0076  0.2861 -0.1631
 6340POPC   C4B76872  16.160  25.692   5.406 -0.1277 -0.0112 -0.0821
 6341POPC   NC376873  14.147  27.873   3.922  0.0231 -0.0322  0.1210
 6341POPC   PO476874  14.253  27.541   3.992 -0.0397 -0.0883  0.2214
 6341POPC   GL176875  14.201  27.468   4.355 -0.0826 -0.0585  0.0356
 6341POPC   GL276876  14.004  27.632   4.409  0.0727 -0.1668 -0.2958
 6341POPC   C1A76877  13.943  27.215   4.681 -0.0779 -0.0796 -0.0737
 6341POPC   D2A76878  13.790  27.169   5.127  0.1811  0.1097  0.2819
 6341POPC   C3A76879  13.912  27.302   5.569 -0.0383  0.3944 -0.1230
 6341POPC   C4A76880  13.850  27.710   5.751  0.1596 -0.1479  0.1326
 6341POPC   C1B76881  13.991  27.749   4.820  0.2821  0.1504 -0.1694
 6341POPC   C2B76882  13.845  28.121   5.063 -0.2590 -0.1636  0.0223
 6341POPC   C3B76883  13.597  28.496   5.297 -0.0653 -0.0895  0.2877
 6341POPC   C4B76884  13.512  28.871   5.572  0.0063 -0.0651 -0.0476
 6342POPC   NC376885  12.931   7.821   3.900 -0.0746 -0.0975  0.2477
 6342POPC   PO476886  13.281   7.972   3.854  0.0651 -0.0662  0.1770
 6342POPC   GL176887  13.373   8.069   4.213  0.1557 -0.1078  0.1163
 6342POPC   GL276888  13.592   8.255   4.198 -0.0285 -0.1434 -0.0744
 6342POPC   C1A76889  13.285   8.064   4.679  0.1367 -0.3463  0.2141
 6342POPC   D2A76890  13.045   8.102   5.123  0.3015 -0.0759  0.2207
 6342POPC   C3A76891  12.646   8.158   5.380 -0.0604  0.1683 -0.2385
 6342POPC   C4A76892  12.301   8.441   5.468  0.1228  0.0122  0.0108
 6342POPC   C1B76893  13.757   8.337   4.630  0.1451  0.2218  0.0451
 6342POPC   C2B76894  13.794   8.533   5.046 -0.2785 -0.0082 -0.0533
 6342POPC   C3B76895  13.874   8.655   5.492  0.3459  0.1263  0.0624
 6342POPC   C4B76896  14.064   8.732   5.928 -0.3086 -0.0440  0.4703
 6343POPC   NC376897  26.993   1.668   3.822  0.0348  0.0492  0.3607
 6343POPC   PO476898  26.584   1.717   3.746  0.0627  0.0364 -0.1989
 6343POPC   GL176899  26.661   1.482   4.101 -0.2614 -0.0454  0.2067
 6343POPC   GL276900  26.586   1.220   4.014  0.1189  0.2330 -0.1174
 6343POPC   C1A76901  26.626   1.375   4.505 -0.0912 -0.1570 -0.0480
 6343POPC   D2A76902  26.660   1.475   4.905 -0.0034 -0.0938 -0.2987
 6343POPC   C3A76903  26.458   1.221   5.252 -0.0219 -0.1031  0.2920
 6343POPC   C4A76904  26.195   0.837   5.331 -0.1749  0.1000  0.2497
 6343POPC   C1B76905  26.664   0.950   4.390  0.0094 -0.0225 -0.0727
 6343POPC   C2B76906  26.903   1.031   4.828  0.3061 -0.0271  0.1964
 6343POPC   C3B76907  26.949   1.261   5.225 -0.1382  0.1259 -0.1722
 6343POPC   C4B76908  26.832   1.683   5.346  0.1844  0.1912 -0.0739
 6344POPC   NC376909  23.144  15.857   4.109 -0.0684 -0.0034 -0.1514
 6344POPC   PO476910  22.846  15.603   4.099  0.1465 -0.0377 -0.0142
 6344POPC   GL176911  22.732  15.829   4.365 -0.1430 -0.2904  0.3145
 6344POPC   GL276912  22.741  15.668   4.625 -0.2357  0.2651 -0.0957
 6344POPC   C1A76913  22.502  16.131   4.644  0.0287  0.2674 -0.2646
 6344POPC   D2A76914  22.347  16.300   5.045 -0.0062  0.0902  0.0774
 6344POPC   C3A76915  22.396  16.133   5.432  0.1165  0.1288 -0.1135
 6344POPC   C4A76916  22.351  16.222   5.868  0.3199  0.2479  0.0854
 6344POPC   C1B76917  22.364  15.717   4.919  0.2338 -0.1403 -0.0338
 6344POPC   C2B76918  22.075  15.577   5.290 -0.1812 -0.0379 -0.2032
 6344POPC   C3B76919  21.744  15.557   5.636 -0.0325  0.0236 -0.0149
 6344POPC   C4B76920  21.322  15.345   5.740  0.0769 -0.2245 -0.0452
 6345POPC   NC376921  19.473  11.097   4.414 -0.0269 -0.1471  0.1223
 6345POPC   PO476922  19.632  11.138   4.115 -0.1669  0.0235 -0.1698
 6345POPC   GL176923  19.794  11.474   4.317 -0.1975 -0.0306  0.0967
 6345POPC   GL276924  19.638  11.781   4.218  0.0802 -0.3082 -0.1601
 6345POPC   C1A76925  19.798  11.487   4.760 -0.4602 -0.0376  0.1178
 6345POPC   D2A76926  19.764  11.581   5.229 -0.1791  0.0312 -0.0653
 6345POPC   C3A76927  19.729  11.311   5.610 -0.3267  0.1779  0.0251
 6345POPC   C4A76928  19.728  10.939   5.856 -0.3629  0.2730  0.3422
 6345POPC   C1B76929  19.344  11.621   4.538 -0.2210 -0.1359 -0.4651
 6345POPC   C2B76930  19.248  11.360   4.905  0.2130 -0.2172 -0.1073
 6345POPC   C3B76931  19.305  11.177   5.318 -0.0839  0.2383 -0.1638
 6345POPC   C4B76932  19.206  10.871   5.626 -0.0531  0.1958 -0.0393
 6346POPC   NC376933   5.543  13.405   3.068  0.1137  0.3203 -0.1291
 6346POPC   PO476934   5.810  13.530   3.293  0.0767  0.2338  0.0615
 6346POPC   GL176935   5.792  13.343   3.594  0.2414  0.1380 -0.0626
 6346POPC   GL276936   6.000  13.147   3.574 -0.3018  0.2573  0.0566
 6346POPC   C1A76937   5.860  13.298   4.053 -0.0674  0.0823 -0.1362
 6346POPC   D2A76938   5.848  13.011   4.433 -0.3011 -0.0719 -0.3162
 6346POPC   C3A76939   6.111  12.899   4.796 -0.1735  0.4676 -0.2771
 6346POPC   C4A76940   6.219  12.934   5.257  0.2737  0.1395  0.0104
 6346POPC   C1B76941   5.748  12.851   3.897  0.3047 -0.0583 -0.0750
 6346POPC   C2B76942   5.835  12.562   4.201  0.0019  0.1249 -0.1228
 6346POPC   C3B76943   5.856  12.461   4.620  0.1476 -0.1389  0.3168
 6346POPC   C4B76944   5.920  12.068   4.858  0.1379  0.1850 -0.3364
 6347POPC   NC376945  11.091   6.549   3.901  0.3907  0.2722  0.2828
 6347POPC   PO476946  11.173   6.176   3.743  0.2111  0.1449 -0.1454
 6347POPC   GL176947  11.267   6.165   4.084  0.1971  0.1306 -0.6036
 6347POPC   GL276948  11.492   6.077   4.197  0.3955  0.2319  0.1277
 6347POPC   C1A76949  11.224   6.415   4.461  0.0702  0.1005  0.2789
 6347POPC   D2A76950  10.977   6.357   4.877 -0.0031 -0.0028 -0.0855
 6347POPC   C3A76951  11.257   6.643   5.068 -0.1088 -0.1752  0.3653
 6347POPC   C4A76952  11.250   6.830   5.478  0.2657 -0.3764  0.0126
 6347POPC   C1B76953  11.732   5.958   4.613 -0.1896  0.3096  0.0471
 6347POPC   C2B76954  12.152   5.820   4.899  0.2874  0.2922 -0.1319
 6347POPC   C3B76955  12.377   5.808   5.288 -0.0660 -0.0073  0.0037
 6347POPC   C4B76956  12.831   5.849   5.536 -0.2181  0.2062 -0.0102
 6348POPC   NC376957  25.472  27.851   3.793 -0.1147 -0.0243 -0.3801
 6348POPC   PO476958  25.185  27.622   3.913  0.3326 -0.2064 -0.2465
 6348POPC   GL176959  25.077  27.404   4.244  0.1332  0.0162  0.0516
 6348POPC   GL276960  25.348  27.511   4.369  0.1694 -0.0105 -0.0581
 6348POPC   C1A76961  24.940  27.543   4.673 -0.2054 -0.0145 -0.1641
 6348POPC   D2A76962  24.776  27.610   5.072  0.1631 -0.0656  0.1193
 6348POPC   C3A76963  24.714  27.726   5.525  0.1126 -0.3459 -0.0756
 6348POPC   C4A76964  24.461  28.023   5.743  0.0287  0.1614 -0.1172
 6348POPC   C1B76965  25.226  27.122   4.641 -0.1328  0.0065 -0.0509
 6348POPC   C2B76966  25.498  26.789   4.764  0.0847  0.0400  0.0427
 6348POPC   C3B76967  25.515  26.586   5.150 -0.0234  0.1092  0.0021
 6348POPC   C4B76968  25.736  26.502   5.521  0.0788 -0.2649 -0.0386
 6349POPC   NC376969  30.067   5.502   3.336  0.1024  0.1288 -0.0736
 6349POPC   PO476970  29.749   5.758   3.284 -0.0494 -0.0377 -0.0002
 6349POPC   GL176971  29.628   5.600   3.612 -0.1178 -0.0774 -0.2954
 6349POPC   GL276972  29.607   5.939   3.727  0.0258  0.2897  0.0399
 6349POPC   C1A76973  29.839   5.595   4.052 -0.1389  0.0940 -0.2391
 6349POPC   D2A76974  30.127   5.553   4.386 -0.1070  0.1773  0.1482
 6349POPC   C3A76975  30.161   5.301   4.786  0.1309  0.0706 -0.0185
 6349POPC   C4A76976  29.915   5.104   5.108  0.2250 -0.0518  0.0398
 6349POPC   C1B76977  29.481   5.924   4.193  0.2684  0.1575 -0.3875
 6349POPC   C2B76978  29.414   5.741   4.636 -0.0436  0.1535 -0.0681
 6349POPC   C3B76979  29.224   5.736   5.049 -0.1071  0.0805 -0.2100
 6349POPC   C4B76980  29.435   5.767   5.407 -0.2552 -0.1581  0.1093
 6350POPC   NC376981  11.594  15.139   3.604 -0.1749  0.1908  0.4248
 6350POPC   PO476982  11.325  15.436   3.596  0.0823 -0.0270  0.0230
 6350POPC   GL176983  11.342  15.438   3.905  0.3942 -0.1397 -0.3597
 6350POPC   GL276984  11.455  15.178   4.095  0.0747 -0.0048 -0.0088
 6350POPC   C1A76985  11.307  15.805   4.182  0.0922 -0.1814 -0.1866
 6350POPC   D2A76986  11.228  15.883   4.601  0.0618 -0.1563 -0.2140
 6350POPC   C3A76987  11.565  15.812   4.941  0.1642  0.0492  0.0316
 6350POPC   C4A76988  11.522  15.692   5.385 -0.1129 -0.0749  0.0186
 6350POPC   C1B76989  11.603  14.882   4.360 -0.1827 -0.3203  0.3727
 6350POPC   C2B76990  11.863  14.655   4.604 -0.0773  0.2472 -0.0884
 6350POPC   C3B76991  12.068  14.351   4.950  0.1320 -0.1325 -0.1428
 6350POPC   C4B76992  12.472  14.200   5.166 -0.2127  0.1504 -0.1073
 6351POPC   NC376993  17.449  26.335   3.345 -0.3933  0.1625  0.0541
 6351POPC   PO476994  17.278  26.684   3.490  0.0091 -0.3343  0.0997
 6351POPC   GL176995  17.139  26.642   3.826  0.0361 -0.0592 -0.0818
 6351POPC   GL276996  16.826  26.632   3.867  0.1593  0.2768 -0.0121
 6351POPC   C1A76997  17.387  26.752   4.222  0.3483  0.2936 -0.1057
 6351POPC   D2A76998  17.465  26.967   4.635  0.0678 -0.2729 -0.1666
 6351POPC   C3A76999  17.660  26.744   5.021 -0.2551 -0.1510 -0.2758
 6351POPC   C4A77000  17.738  26.420   5.367  0.0147 -0.1253  0.0283
 6351POPC   C1B77001  16.903  26.560   4.307  0.0930  0.0736 -0.0155
 6351POPC   C2B77002  16.969  26.607   4.715  0.1564  0.0502 -0.0559
 6351POPC   C3B77003  17.112  26.765   5.166 -0.0132  0.0884  0.1136
 6351POPC   C4B77004  17.124  27.139   5.468 -0.1401 -0.3075  0.2759
 6352POPC   NC377005  11.212   1.083   3.723  0.1294  0.1301 -0.2176
 6352POPC   PO477006  11.139   0.944   4.064 -0.3031 -0.2678  0.1689
 6352POPC   GL177007  11.015   0.984   4.360 -0.2570 -0.0913 -0.1060
 6352POPC   GL277008  11.261   1.013   4.539  0.4198 -0.3339  0.0313
 6352POPC   C1A77009  10.687   0.943   4.686 -0.2420 -0.1670  0.1905
 6352POPC   D2A77010  10.378   1.247   4.873 -0.0556 -0.0432 -0.0857
 6352POPC   C3A77011  10.287   1.190   5.368  0.0437  0.0756 -0.0667
 6352POPC   C4A77012  10.343   1.214   5.820  0.0795  0.1012  0.0454
 6352POPC   C1B77013  11.103   1.004   4.991 -0.2864 -0.3167 -0.0912
 6352POPC   C2B77014  11.120   1.013   5.477 -0.2377 -0.2224  0.1683
 6352POPC   C3B77015  11.225   1.304   5.819  0.0851  0.0725 -0.1029
 6352POPC   C4B77016  11.653   1.189   6.124  0.2097 -0.1026 -0.1900
 6353POPC   NC377017  30.317  12.266   3.866  0.0869  0.1762  0.0316
 6353POPC   PO477018  30.019  12.355   4.071 -0.0139  0.3513 -0.1237
 6353POPC   GL177019  29.900  12.403   4.401 -0.0259  0.1647 -0.1386
 6353POPC   GL277020  29.630  12.343   4.419 -0.2432 -0.2633  0.0076
 6353POPC   C1A77021  29.910  12.535   4.827 -0.0519  0.1995 -0.1030
 6353POPC   D2A77022  30.175  12.866   4.976 -0.1353  0.2111  0.0467
 6353POPC   C3A77023  29.983  13.195   5.260  0.0197  0.1388  0.1963
 6353POPC   C4A77024  29.898  13.573   5.568 -0.1632  0.2306 -0.0032
 6353POPC   C1B77025  29.698  12.044   4.746 -0.0090 -0.1374 -0.0468
 6353POPC   C2B77026  29.794  11.761   5.062  0.0974 -0.0184  0.1189
 6353POPC   C3B77027  29.957  11.482   5.351  0.0516  0.0163  0.1383
 6353POPC   C4B77028  29.928  11.358   5.788 -0.3455 -0.0749  0.0922
 6354POPC   NC377029  28.084  13.182   3.561  0.0843 -0.1775  0.4391
 6354POPC   PO477030  27.882  12.888   3.381  0.3595  0.2924 -0.0759
 6354POPC   GL177031  27.707  12.590   3.563  0.2172 -0.0481 -0.0174
 6354POPC   GL277032  27.709  12.715   3.801 -0.0346  0.0416 -0.1009
 6354POPC   C1A77033  27.882  12.174   3.813  0.0820  0.0815 -0.0406
 6354POPC   D2A77034  27.913  11.989   4.213  0.0926  0.1662  0.1124
 6354POPC   C3A77035  27.675  12.092   4.561 -0.3467 -0.0617  0.0150
 6354POPC   C4A77036  27.839  12.148   4.976  0.0900 -0.0325 -0.0623
 6354POPC   C1B77037  27.496  12.399   4.087  0.0097  0.0818  0.0287
 6354POPC   C2B77038  27.390  11.989   4.208  0.0733 -0.3754 -0.1544
 6354POPC   C3B77039  27.483  11.621   4.530  0.0787 -0.2235  0.0013
 6354POPC   C4B77040  27.631  11.211   4.660 -0.1986  0.1374  0.4019
 6355POPC   NC377041  29.697  28.072   3.445 -0.2229  0.2475 -0.0400
 6355POPC   PO477042  29.354  27.921   3.578  0.1324  0.2232  0.1792
 6355POPC   GL177043  29.110  28.082   3.865 -0.1311  0.1646 -0.3873
 6355POPC   GL277044  28.985  28.314   3.871 -0.3300 -0.4343  0.0446
 6355POPC   C1A77045  28.837  27.925   4.264 -0.1452 -0.1777  0.3776
 6355POPC   D2A77046  28.626  27.657   4.574  0.0295 -0.1962 -0.1489
 6355POPC   C3A77047  28.444  27.886   4.950  0.1500 -0.2268  0.0147
 6355POPC   C4A77048  28.279  28.179   5.286 -0.2114  0.1502 -0.1787
 6355POPC   C1B77049  28.651  28.381   4.129  0.2081 -0.1013 -0.0007
 6355POPC   C2B77050  28.219  28.521   4.339 -0.0791  0.2005  0.0644
 6355POPC   C3B77051  27.765  28.552   4.300 -0.0093  0.1338 -0.1660
 6355POPC   C4B77052  27.375  28.786   4.318  0.0587 -0.0579 -0.0706
 6356POPC   NC377053  23.650  28.412   3.570  0.0446  0.0745  0.2016
 6356POPC   PO477054  23.815  28.725   3.730  0.0062 -0.2259 -0.2586
 6356POPC   GL177055  23.994  28.623   4.081  0.2453 -0.0610  0.0521
 6356POPC   GL277056  24.087  28.850   4.170 -0.1776 -0.1674 -0.0937
 6356POPC   C1A77057  23.763  28.548   4.446 -0.1567  0.1907 -0.1316
 6356POPC   D2A77058  23.686  28.372   4.894  0.3595  0.1554 -0.0036
 6356POPC   C3A77059  23.463  28.600   5.284  0.1019 -0.2360 -0.1249
 6356POPC   C4A77060  23.567  28.806   5.727  0.2305 -0.1027  0.3935
 6356POPC   C1B77061  24.176  28.853   4.637  0.2278 -0.0274  0.1768
 6356POPC   C2B77062  24.424  29.052   4.975  0.2876 -0.1653  0.2779
 6356POPC   C3B77063  24.605  29.314   5.295 -0.2051  0.1710 -0.0947
 6356POPC   C4B77064  24.518  29.559   5.629  0.2061  0.0188 -0.1529
 6357POPC   NC377065   9.520  23.304   3.675  0.2666 -0.1649  0.0726
 6357POPC   PO477066   9.285  23.644   3.686  0.0476  0.1577  0.2195
 6357POPC   GL177067   9.230  23.710   4.095  0.0019  0.3285 -0.1122
 6357POPC   GL277068   9.377  23.536   4.320 -0.2390 -0.0827  0.0515
 6357POPC   C1A77069   9.094  24.117   4.280  0.3661 -0.1615  0.0905
 6357POPC   D2A77070   8.871  24.446   4.553  0.1180  0.0770  0.0470
 6357POPC   C3A77071   9.174  24.572   4.855 -0.5015  0.0497 -0.4495
 6357POPC   C4A77072   9.582  24.619   5.073 -0.0446 -0.0193  0.1192
 6357POPC   C1B77073   9.370  23.825   4.625 -0.0397 -0.1489  0.1355
 6357POPC   C2B77074   9.155  24.112   4.934  0.0057  0.1412  0.1881
 6357POPC   C3B77075   8.790  24.319   5.047  0.0122  0.4954  0.0187
 6357POPC   C4B77076   8.367  24.283   4.852  0.2073  0.0276  0.0478
 6358POPC   NC377077  27.832  31.094   3.209  0.2074 -0.2641 -0.0340
 6358POPC   PO477078  28.220  31.053   3.309  0.2195  0.1358 -0.0496
 6358POPC   GL177079  28.229  30.794   3.555 -0.0826 -0.1159 -0.3002
 6358POPC   GL277080  28.009  30.809   3.767 -0.0487  0.1030 -0.6107
 6358POPC   C1A77081  28.285  30.346   3.718 -0.0120  0.1715 -0.1634
 6358POPC   D2A77082  28.119  29.875   3.781  0.1825 -0.3203  0.1702
 6358POPC   C3A77083  27.737  29.910   4.063 -0.3019  0.2121 -0.0780
 6358POPC   C4A77084  27.394  29.873   4.314  0.0653  0.3294  0.1717
 6358POPC   C1B77085  28.407  30.831   3.985  0.0753 -0.0059  0.0118
 6358POPC   C2B77086  28.582  30.895   4.468  0.0514  0.1989 -0.0872
 6358POPC   C3B77087  28.494  30.836   4.897 -0.1143  0.1060 -0.3336
 6358POPC   C4B77088  28.279  30.579   5.255 -0.3560 -0.1769  0.2812
 6359POPC   NC377089   2.503   0.052   3.795  0.0332 -0.1730 -0.0387
 6359POPC   PO477090   2.860   0.024   3.899  0.0670  0.2780  0.1039
 6359POPC   GL177091   2.825  -0.195   4.193  0.1142  0.0669  0.0659
 6359POPC   GL277092   2.502  -0.001   4.294 -0.1501  0.0783  0.2978
 6359POPC   C1A77093   2.823  -0.179   4.664  0.1538 -0.0740 -0.1635
 6359POPC   D2A77094   2.865   0.039   5.082  0.0270 -0.3561  0.1350
 6359POPC   C3A77095   2.955   0.392   5.298 -0.0517  0.3898  0.0294
 6359POPC   C4A77096   2.962   0.835   5.460  0.3004  0.0620  0.0934
 6359POPC   C1B77097   2.437  -0.405   4.405 -0.0098  0.0210 -0.1217
 6359POPC   C2B77098   2.291  -0.554   4.775  0.0753 -0.2683 -0.2828
 6359POPC   C3B77099   1.975  -0.574   5.075  0.0725 -0.0971 -0.0858
 6359POPC   C4B77100   1.961  -0.972   5.354 -0.1364 -0.0983  0.2125
 6360POPC   NC377101  22.038   1.749   3.724 -0.2555 -0.4045 -0.0162
 6360POPC   PO477102  22.424   1.876   3.571 -0.0522  0.0223  0.3730
 6360POPC   GL177103  22.395   1.978   3.968 -0.0569  0.1513  0.2130
 6360POPC   GL277104  22.704   1.838   4.022 -0.4301 -0.0312  0.1309
 6360POPC   C1A77105  22.231   1.919   4.416  0.0365 -0.1268  0.1386
 6360POPC   D2A77106  22.013   2.035   4.804  0.1526  0.0702 -0.1242
 6360POPC   C3A77107  22.102   1.843   5.205 -0.0567 -0.0575 -0.0799
 6360POPC   C4A77108  22.094   1.550   5.564 -0.1090 -0.0410 -0.1119
 6360POPC   C1B77109  22.719   1.771   4.517 -0.2052 -0.1051 -0.0066
 6360POPC   C2B77110  22.601   1.798   4.971  0.3555 -0.2110 -0.1577
 6360POPC   C3B77111  22.532   1.853   5.449  0.4341  0.1997 -0.0337
 6360POPC   C4B77112  22.330   1.881   5.858 -0.3042  0.0344 -0.0828
 6361POPC   NC377113  11.694  11.490   3.326 -0.0890  0.1258 -0.0754
 6361POPC   PO477114  11.896  11.250   3.561 -0.2168  0.2034  0.1605
 6361POPC   GL177115  11.737  11.221   3.872  0.2673  0.0317  0.0746
 6361POPC   GL277116  11.796  10.970   4.051 -0.1229  0.1786 -0.0560
 6361POPC   C1A77117  11.763  11.527   4.246  0.1025 -0.3298 -0.2622
 6361POPC   D2A77118  12.017  11.909   4.188  0.1428  0.1934 -0.0482
 6361POPC   C3A77119  12.071  12.059   4.614  0.4072 -0.3333 -0.1589
 6361POPC   C4A77120  12.181  11.966   5.051  0.0722 -0.2499  0.1893
 6361POPC   C1B77121  12.084  11.061   4.398  0.1057  0.2323  0.1131
 6361POPC   C2B77122  12.334  11.112   4.820  0.0580  0.2109 -0.2434
 6361POPC   C3B77123  12.230  10.952   5.236 -0.0542  0.1457  0.0486
 6361POPC   C4B77124  12.266  11.014   5.652  0.0826 -0.3890  0.1137
 6362POPC   NC377125   0.523  20.690   3.819 -0.2117  0.1704 -0.2433
 6362POPC   PO477126   0.337  20.995   3.652  0.1262 -0.1251 -0.5825
 6362POPC   GL177127   0.212  20.941   4.048  0.0268  0.3015 -0.3750
 6362POPC   GL277128   0.000  21.170   4.081 -0.0208  0.0101 -0.2204
 6362POPC   C1A77129   0.395  20.855   4.509  0.1125  0.1476 -0.0146
 6362POPC   D2A77130   0.805  20.849   4.785  0.1080  0.0779 -0.0498
 6362POPC   C3A77131   0.692  20.998   5.191  0.0310  0.0200  0.3382
 6362POPC   C4A77132   0.464  21.364   5.293 -0.0314  0.0701  0.0841
 6362POPC   C1B77133  -0.313  21.316   4.366  0.1433  0.0377  0.2134
 6362POPC   C2B77134  -0.366  21.276   4.811 -0.3687  0.3599 -0.1099
 6362POPC   C3B77135  -0.504  21.206   5.281 -0.2209 -0.0254  0.0039
 6362POPC   C4B77136  -0.656  21.378   5.707 -0.0318 -0.0566  0.3758
 6363POPC   NC377137  15.328  26.832   3.422 -0.4542  0.4111  0.0497
 6363POPC   PO477138  15.682  26.891   3.519  0.2127  0.1439 -0.1340
 6363POPC   GL177139  15.629  26.835   3.862  0.1340 -0.2355 -0.5017
 6363POPC   GL277140  15.394  26.653   3.965  0.0852 -0.0236  0.0477
 6363POPC   C1A77141  15.653  27.126   4.250  0.1512 -0.0691  0.1652
 6363POPC   D2A77142  15.433  27.389   4.515 -0.1097 -0.0276 -0.0670
 6363POPC   C3A77143  15.649  27.452   4.938 -0.0854  0.2334 -0.0558
 6363POPC   C4A77144  15.934  27.804   5.062 -0.0146  0.2076  0.2603
 6363POPC   C1B77145  15.411  26.764   4.424 -0.0010 -0.0166 -0.1202
 6363POPC   C2B77146  15.648  26.989   4.749 -0.2882 -0.2989  0.1229
 6363POPC   C3B77147  15.693  26.967   5.220 -0.2908 -0.0413  0.0543
 6363POPC   C4B77148  15.436  26.965   5.621 -0.0537 -0.0253 -0.1863
 6364POPC   NC377149  24.844  10.406   4.097 -0.2095 -0.2726 -0.4317
 6364POPC   PO477150  24.628  10.625   3.862 -0.0641  0.0593 -0.1037
 6364POPC   GL177151  24.523  10.718   4.194 -0.0046  0.0101 -0.2961
 6364POPC   GL277152  24.392  10.563   4.310 -0.0542  0.1466  0.0342
 6364POPC   C1A77153  24.867  10.870   4.546 -0.1166 -0.3128 -0.0799
 6364POPC   D2A77154  25.023  10.776   4.947 -0.2574  0.0509 -0.0140
 6364POPC   C3A77155  25.291  11.023   5.127  0.0002  0.1275  0.1910
 6364POPC   C4A77156  25.541  11.098   5.433 -0.0068  0.1065  0.0182
 6364POPC   C1B77157  24.107  10.468   4.704 -0.0318 -0.1352  0.1540
 6364POPC   C2B77158  24.030  10.683   5.061 -0.3316  0.0420  0.1692
 6364POPC   C3B77159  23.933  11.067   5.288  0.4013  0.0726  0.0784
 6364POPC   C4B77160  23.921  11.511   5.263 -0.0439 -0.1827 -0.1795
 6365POPC   NC377161   1.211  31.492   3.489 -0.1290  0.2164 -0.0070
 6365POPC   PO477162   1.577  31.419   3.416  0.1852 -0.0022 -0.1916
 6365POPC   GL177163   1.646  31.218   3.756 -0.0897  0.2003  0.2430
 6365POPC   GL277164   1.622  31.460   3.931  0.1123  0.2771 -0.3315
 6365POPC   C1A77165   1.361  31.139   4.186  0.1118  0.0756  0.3074
 6365POPC   D2A77166   0.981  31.254   4.451  0.2201 -0.1264  0.0781
 6365POPC   C3A77167   1.006  31.122   4.913  0.1493  0.2241 -0.0478
 6365POPC   C4A77168   1.153  30.884   5.253 -0.6529  0.2012  0.0638
 6365POPC   C1B77169   1.491  31.587   4.347  0.1578 -0.3324 -0.2621
 6365POPC   C2B77170   1.199  31.761   4.693 -0.2111  0.0679 -0.1914
 6365POPC   C3B77171   1.110  31.708   5.108  0.0444  0.5193  0.3818
 6365POPC   C4B77172   0.899  31.729   5.532 -0.1028  0.4002 -0.2621
 6366POPC   NC377173  31.724  21.679   4.215  0.2066  0.2069 -0.4923
 6366POPC   PO477174  31.728  22.003   4.030 -0.0774 -0.0373  0.0079
 6366POPC   GL177175  31.649  22.143   4.370 -0.1433 -0.2353 -0.1021
 6366POPC   GL277176  31.921  22.150   4.540 -0.0580 -0.3281  0.0637
 6366POPC   C1A77177  31.436  22.438   4.638 -0.1039  0.2650  0.1543
 6366POPC   D2A77178  31.300  22.623   5.008  0.0567  0.3318 -0.2219
 6366POPC   C3A77179  30.990  22.495   5.364 -0.1940  0.2083  0.2223
 6366POPC   C4A77180  30.674  22.237   5.562 -0.0581 -0.2116  0.1231
 6366POPC   C1B77181  31.899  22.406   4.935  0.0215  0.0193 -0.1457
 6366POPC   C2B77182  31.700  22.420   5.301 -0.1981 -0.0023  0.2856
 6366POPC   C3B77183  31.379  22.328   5.645 -0.0629  0.4291 -0.0696
 6366POPC   C4B77184  31.039  22.361   5.908  0.0394  0.4660 -0.1693
 6367POPC   NC377185  10.699  13.628   4.042 -0.1554 -0.0868  0.0687
 6367POPC   PO477186  10.687  13.979   3.823  0.1826 -0.0433 -0.0580
 6367POPC   GL177187  10.829  14.062   4.239  0.2110  0.4067 -0.0037
 6367POPC   GL277188  10.584  14.053   4.356 -0.0723  0.0760 -0.0634
 6367POPC   C1A77189  11.106  14.103   4.624 -0.0527 -0.3364 -0.0053
 6367POPC   D2A77190  11.333  13.896   5.008 -0.0368 -0.0220 -0.1175
 6367POPC   C3A77191  11.179  13.557   5.310  0.3238 -0.1922 -0.0752
 6367POPC   C4A77192  11.128  13.389   5.703 -0.0669  0.0324 -0.3238
 6367POPC   C1B77193  10.615  14.057   4.841 -0.2414 -0.3903 -0.1711
 6367POPC   C2B77194  10.411  14.017   5.242 -0.3326 -0.4163  0.0136
 6367POPC   C3B77195  10.223  13.637   5.416  0.2140  0.0737 -0.0060
 6367POPC   C4B77196   9.972  13.522   5.710 -0.3491  0.3489  0.2341
 6368POPC   NC377197  28.953  15.644   3.450 -0.1916  0.5527 -0.0225
 6368POPC   PO477198  29.193  15.365   3.542  0.0380  0.0498 -0.2378
 6368POPC   GL177199  29.382  15.428   3.862 -0.2472  0.1355  0.2165
 6368POPC   GL277200  29.581  15.237   3.835 -0.0003  0.0413 -0.0496
 6368POPC   C1A77201  29.361  15.866   3.986 -0.2205  0.0654 -0.3025
 6368POPC   D2A77202  29.454  16.230   4.273 -0.0789  0.0930 -0.0307
 6368POPC   C3A77203  29.186  16.237   4.622 -0.1047  0.0504 -0.0381
 6368POPC   C4A77204  29.119  16.576   4.940 -0.3026  0.1683  0.3064
 6368POPC   C1B77205  29.670  15.287   4.316  0.1376  0.2265  0.1830
 6368POPC   C2B77206  29.479  15.346   4.720 -0.2221  0.0548  0.0726
 6368POPC   C3B77207  29.503  15.441   5.169  0.0688  0.2631 -0.1296
 6368POPC   C4B77208  29.284  15.693   5.434  0.0703 -0.1249 -0.1267
 6369POPC   NC377209  21.111   3.796   3.293  0.0286  0.1528  0.1343
 6369POPC   PO477210  20.976   3.455   3.432 -0.0072  0.0257  0.2442
 6369POPC   GL177211  20.937   3.416   3.844 -0.2087 -0.2820 -0.2701
 6369POPC   GL277212  20.703   3.457   3.904 -0.1044 -0.0535 -0.0838
 6369POPC   C1A77213  21.022   3.613   4.240 -0.0865  0.2224  0.1685
 6369POPC   D2A77214  21.202   3.740   4.622  0.0209  0.0688  0.2231
 6369POPC   C3A77215  21.290   3.563   4.970  0.0728 -0.1650 -0.1495
 6369POPC   C4A77216  21.452   3.805   5.349  0.1016  0.0688 -0.4609
 6369POPC   C1B77217  20.876   3.169   4.257  0.0196  0.0086 -0.3701
 6369POPC   C2B77218  21.040   3.232   4.687  0.1386  0.2934 -0.3420
 6369POPC   C3B77219  21.125   3.104   5.079 -0.0457  0.1130 -0.1097
 6369POPC   C4B77220  21.336   3.317   5.467  0.0584  0.0711  0.1200
 6370POPC   NC377221  25.211   9.369   3.932 -0.1660 -0.0002  0.2077
 6370POPC   PO477222  24.877   9.260   3.776  0.4937 -0.1782  0.0834
 6370POPC   GL177223  24.749   9.215   4.175  0.1471 -0.0456  0.2735
 6370POPC   GL277224  24.970   9.007   4.203 -0.1288  0.1202 -0.5412
 6370POPC   C1A77225  24.452   8.975   4.375  0.1670  0.3044 -0.1441
 6370POPC   D2A77226  24.124   8.927   4.732  0.2766 -0.0069 -0.0056
 6370POPC   C3A77227  24.212   8.987   5.202 -0.1132  0.1641  0.3566
 6370POPC   C4A77228  24.010   9.073   5.583 -0.0911  0.3277 -0.0932
 6370POPC   C1B77229  24.879   9.216   4.632  0.2558 -0.1961  0.0432
 6370POPC   C2B77230  25.037   9.408   5.028 -0.2184  0.0802 -0.1976
 6370POPC   C3B77231  24.964   9.820   5.200  0.2131  0.3262 -0.0918
 6370POPC   C4B77232  24.810  10.153   5.391  0.3438 -0.1385  0.1993
 6371POPC   NC377233  24.395  13.020   3.624 -0.0183 -0.0128  0.3517
 6371POPC   PO477234  24.685  13.132   3.797 -0.0129  0.0258 -0.0455
 6371POPC   GL177235  24.441  13.079   4.160 -0.2325 -0.0461 -0.0671
 6371POPC   GL277236  24.624  13.247   4.259 -0.1081  0.0531  0.0770
 6371POPC   C1A77237  24.246  12.745   4.405  0.0614  0.2594  0.0979
 6371POPC   D2A77238  24.254  12.308   4.647 -0.0244 -0.1847  0.1005
 6371POPC   C3A77239  24.649  12.227   4.921  0.0605  0.2001  0.0400
 6371POPC   C4A77240  24.806  12.032   5.283 -0.1144 -0.0942 -0.2188
 6371POPC   C1B77241  24.657  13.187   4.743  0.1498 -0.0716  0.1076
 6371POPC   C2B77242  24.722  12.932   5.075 -0.0851  0.0278  0.0400
 6371POPC   C3B77243  24.965  12.577   5.233  0.4981  0.2173 -0.1364
 6371POPC   C4B77244  25.049  12.396   5.678 -0.3990 -0.2146  0.2171
 6372POPC   NC377245  25.885   3.578   4.305  0.2571  0.0964 -0.0087
 6372POPC   PO477246  26.185   3.793   4.310  0.0618  0.3786  0.0890
 6372POPC   GL177247  26.360   3.792   4.582  0.3622  0.1706  0.1179
 6372POPC   GL277248  26.014   3.714   4.760 -0.1401 -0.2124  0.0590
 6372POPC   C1A77249  26.650   3.986   4.928 -0.0504 -0.0336 -0.1905
 6372POPC   D2A77250  26.697   4.226   5.282 -0.2973  0.1380 -0.1808
 6372POPC   C3A77251  26.937   4.259   5.667  0.0986 -0.0352 -0.1084
 6372POPC   C4A77252  27.183   4.413   6.033 -0.0874 -0.3227  0.0188
 6372POPC   C1B77253  26.054   3.717   5.199  0.1538  0.1042 -0.0787
 6372POPC   C2B77254  26.173   3.690   5.647  0.0394 -0.3193  0.2208
 6372POPC   C3B77255  26.581   3.717   5.957  0.2109  0.1284 -0.0287
 6372POPC   C4B77256  26.901   3.921   6.195 -0.0477  0.1854 -0.3914
 6373POPC   NC377257  13.752  19.573   3.064  0.0452  0.1666 -0.0688
 6373POPC   PO477258  14.089  19.735   3.184  0.0625  0.2332  0.4270
 6373POPC   GL177259  13.960  19.695   3.573  0.3695  0.0175  0.0232
 6373POPC   GL277260  13.648  19.682   3.608 -0.0775  0.1055  0.1422
 6373POPC   C1A77261  13.883  19.214   3.659  0.0964 -0.0055  0.2130
 6373POPC   D2A77262  13.662  18.960   3.905  0.0488 -0.2756 -0.5922
 6373POPC   C3A77263  13.468  18.946   4.327 -0.3503 -0.2034 -0.1081
 6373POPC   C4A77264  13.089  18.706   4.540  0.2963  0.2269 -0.0156
 6373POPC   C1B77265  13.610  19.447   4.032  0.1545 -0.0175  0.0445
 6373POPC   C2B77266  13.277  19.405   4.393 -0.0956 -0.3730 -0.0504
 6373POPC   C3B77267  13.185  19.301   4.831 -0.2433 -0.0013 -0.1007
 6373POPC   C4B77268  12.815  19.203   5.062  0.2066 -0.2261  0.0695
 6374POPC   NC377269   9.002  17.937   3.824 -0.0323 -0.0354  0.0926
 6374POPC   PO477270   9.313  18.161   3.694 -0.3273  0.3727  0.1544
 6374POPC   GL177271   9.390  18.131   4.045  0.2456  0.4763 -0.3746
 6374POPC   GL277272   9.152  18.273   4.216 -0.1426 -0.2135  0.1232
 6374POPC   C1A77273   9.456  17.784   4.359 -0.0091  0.2726  0.0381
 6374POPC   D2A77274   9.504  17.876   4.849  0.1843  0.1189  0.0911
 6374POPC   C3A77275   9.317  18.086   5.177  0.0105 -0.2028 -0.2145
 6374POPC   C4A77276   9.407  18.193   5.626  0.0459  0.0169 -0.1420
 6374POPC   C1B77277   9.557  18.289   4.552  0.4688 -0.1436 -0.3886
 6374POPC   C2B77278   9.809  18.247   4.999  0.0346 -0.4336  0.2213
 6374POPC   C3B77279   9.857  18.283   5.472 -0.2719 -0.1715 -0.0174
 6374POPC   C4B77280  10.234  18.175   5.790  0.3136  0.0876 -0.1327
 6375POPC   NC377281  11.817   7.915   3.425  0.0370  0.0151 -0.0117
 6375POPC   PO477282  11.763   7.526   3.499  0.0431  0.0947  0.2506
 6375POPC   GL177283  11.936   7.218   3.687  0.1499 -0.3208 -0.0870
 6375POPC   GL277284  11.858   7.168   3.951  0.2877  0.3778  0.1045
 6375POPC   C1A77285  12.293   7.064   3.998  0.0091  0.0447 -0.1662
 6375POPC   D2A77286  12.608   6.925   4.280  0.2257 -0.0264 -0.1167
 6375POPC   C3A77287  12.620   6.745   4.697  0.0301  0.1217 -0.0599
 6375POPC   C4A77288  12.840   6.701   5.121 -0.3133  0.1230  0.2181
 6375POPC   C1B77289  12.048   7.130   4.442  0.1699 -0.2187  0.2059
 6375POPC   C2B77290  12.457   7.214   4.705  0.0686  0.0177 -0.1369
 6375POPC   C3B77291  12.727   7.299   5.033  0.0131  0.3765  0.0828
 6375POPC   C4B77292  12.914   7.234   5.442 -0.1862 -0.1015  0.3695
 6376POPC   NC377293  24.898  13.646   3.658 -0.1401  0.1874  0.2396
 6376POPC   PO477294  24.798  13.672   4.088 -0.1577 -0.1069 -0.1517
 6376POPC   GL177295  24.825  13.638   4.489 -0.1128 -0.1865  0.0117
 6376POPC   GL277296  25.020  13.431   4.481 -0.2050  0.2084 -0.4064
 6376POPC   C1A77297  24.839  13.665   4.930 -0.2679 -0.2544 -0.0228
 6376POPC   D2A77298  24.975  13.633   5.365 -0.2052  0.1156  0.2164
 6376POPC   C3A77299  24.571  13.673   5.654 -0.1198 -0.1658 -0.0782
 6376POPC   C4A77300  24.251  13.871   5.940 -0.2940  0.0012 -0.0116
 6376POPC   C1B77301  25.101  13.273   4.929 -0.1948 -0.0757 -0.0713
 6376POPC   C2B77302  25.103  13.109   5.398  0.0325 -0.0049  0.3067
 6376POPC   C3B77303  25.366  12.846   5.650 -0.0934 -0.1441 -0.4064
 6376POPC   C4B77304  25.732  12.728   5.971  0.0426  0.3929 -0.2635
 6377POPC   NC377305   5.353   4.041   3.860 -0.1274 -0.2437 -0.0028
 6377POPC   PO477306   5.295   4.333   3.593  0.3214 -0.3945 -0.0354
 6377POPC   GL177307   5.715   4.434   3.668 -0.3598 -0.0633 -0.1557
 6377POPC   GL277308   5.936   4.281   3.579  0.2866  0.1512  0.0746
 6377POPC   C1A77309   5.862   4.630   4.095 -0.3600 -0.2084  0.0618
 6377POPC   D2A77310   6.259   4.768   4.295  0.0457  0.1704  0.1186
 6377POPC   C3A77311   6.472   4.571   4.640  0.1469 -0.2906 -0.3822
 6377POPC   C4A77312   6.837   4.184   4.650  0.0090 -0.1277  0.3028
 6377POPC   C1B77313   6.089   4.205   3.961  0.1381  0.0048  0.1456
 6377POPC   C2B77314   6.076   3.947   4.335 -0.0888 -0.0158 -0.2354
 6377POPC   C3B77315   6.374   4.077   4.740  0.1746  0.3772 -0.0809
 6377POPC   C4B77316   6.444   4.402   5.080  0.1978  0.4138  0.3727
 6378POPC   NC377317  19.423  16.299   2.943 -0.1400 -0.2600  0.1594
 6378POPC   PO477318  19.666  16.329   3.223 -0.1777 -0.2663 -0.2344
 6378POPC   GL177319  19.704  16.745   3.138  0.1126 -0.1500  0.2532
 6378POPC   GL277320  19.745  16.697   2.817  0.3671 -0.2837 -0.3545
 6378POPC   C1A77321  19.988  17.051   3.115  0.1896 -0.0210 -0.4781
 6378POPC   D2A77322  20.223  17.129   3.487 -0.1356 -0.0460  0.0968
 6378POPC   C3A77323  20.686  17.166   3.504  0.4757 -0.0535  0.1412
 6378POPC   C4A77324  21.044  17.411   3.624 -0.0450 -0.2701 -0.2342
 6378POPC   C1B77325  20.190  16.716   2.733 -0.0606 -0.0820  0.1160
 6378POPC   C2B77326  20.537  16.799   2.516  0.0497  0.0126  0.2099
 6378POPC   C3B77327  20.755  16.589   2.167 -0.4069  0.0742 -0.0145
 6378POPC   C4B77328  20.932  16.187   2.065  0.0414 -0.3825 -0.2140
 6379POPC   NC377329  17.477   0.503   3.380 -0.0631  0.0765  0.1398
 6379POPC   PO477330  17.152   0.368   3.562 -0.0518  0.0934 -0.0569
 6379POPC   GL177331  17.293   0.096   3.908  0.0731  0.3361 -0.1328
 6379POPC   GL277332  17.490  -0.136   3.885  0.0210  0.0185 -0.0461
 6379POPC   C1A77333  17.382   0.065   4.338  0.0757  0.1402 -0.3196
 6379POPC   D2A77334  17.615   0.172   4.738  0.3573 -0.0957  0.4107
 6379POPC   C3A77335  17.487   0.343   5.131  0.2893  0.2006 -0.0176
 6379POPC   C4A77336  17.135   0.243   5.450  0.0524 -0.0321 -0.0136
 6379POPC   C1B77337  17.102  -0.324   4.098 -0.0025 -0.0064 -0.0384
 6379POPC   C2B77338  16.981  -0.139   4.542 -0.1772  0.3200  0.2000
 6379POPC   C3B77339  16.632  -0.198   4.768 -0.1716 -0.2869  0.1630
 6379POPC   C4B77340  16.213  -0.191   4.609 -0.2443 -0.0478  0.3065
 6380POPC   NC377341   7.286  14.282   4.155  0.0516  0.0054  0.0448
 6380POPC   PO477342   7.552  14.481   3.921  0.1279  0.1651  0.2966
 6380POPC   GL177343   7.690  14.101   4.163 -0.0529 -0.1707 -0.3289
 6380POPC   GL277344   7.969  14.107   4.205 -0.2911 -0.1381 -0.1996
 6380POPC   C1A77345   7.766  14.040   4.657 -0.0240 -0.3136 -0.0789
 6380POPC   D2A77346   7.680  14.221   5.106 -0.1780  0.0828  0.0065
 6380POPC   C3A77347   7.454  14.072   5.463  0.1308 -0.2530  0.2148
 6380POPC   C4A77348   7.085  13.934   5.662 -0.0309  0.1862  0.4833
 6380POPC   C1B77349   8.217  14.102   4.526 -0.2381 -0.0224 -0.0822
 6380POPC   C2B77350   8.106  13.901   4.949 -0.0073  0.2813  0.0068
 6380POPC   C3B77351   7.987  13.882   5.413 -0.0594  0.0431  0.0053
 6380POPC   C4B77352   7.899  14.311   5.606  0.1189  0.2765 -0.1621
 6381POPC   NC377353  14.063  30.010   3.682 -0.0908 -0.0679  0.0680
 6381POPC   PO477354  14.080  29.646   3.572  0.0572 -0.2105 -0.0787
 6381POPC   GL177355  14.211  29.552   3.878 -0.2523 -0.5049  0.0555
 6381POPC   GL277356  14.359  29.720   4.014 -0.1787  0.2587  0.3372
 6381POPC   C1A77357  14.117  29.356   4.296  0.2668 -0.3172 -0.1983
 6381POPC   D2A77358  13.908  29.180   4.679  0.1576  0.1443 -0.2655
 6381POPC   C3A77359  13.801  28.763   4.747 -0.0346 -0.3176 -0.0028
 6381POPC   C4A77360  13.451  28.466   4.817 -0.5306  0.1736 -0.0464
 6381POPC   C1B77361  14.499  29.611   4.436 -0.1202 -0.1367  0.0594
 6381POPC   C2B77362  14.601  29.359   4.825 -0.0934  0.1322 -0.0203
 6381POPC   C3B77363  14.399  29.325   5.228 -0.2394  0.1779 -0.2333
 6381POPC   C4B77364  14.247  29.194   5.556  0.0653  0.2306 -0.0166
 6382POPC   NC377365  12.049   1.104   3.693 -0.1039 -0.1025  0.1729
 6382POPC   PO477366  11.663   0.996   3.615  0.3634  0.3192  0.0910
 6382POPC   GL177367  11.693   0.880   3.984 -0.1309  0.0374  0.6249
 6382POPC   GL277368  11.771   0.637   3.970 -0.0152  0.1744  0.0485
 6382POPC   C1A77369  12.097   1.032   4.175 -0.0273 -0.1262 -0.2021
 6382POPC   D2A77370  12.256   1.047   4.596  0.1276  0.1134 -0.1703
 6382POPC   C3A77371  12.126   0.813   4.982  0.1327 -0.1132  0.1389
 6382POPC   C4A77372  12.123   1.038   5.427  0.1242  0.3097 -0.1032
 6382POPC   C1B77373  11.654   0.719   4.405  0.0834  0.1208 -0.0899
 6382POPC   C2B77374  11.408   0.597   4.790 -0.2368 -0.0172  0.1187
 6382POPC   C3B77375  11.264   0.429   5.231 -0.0514 -0.1404 -0.3380
 6382POPC   C4B77376  11.369   0.605   5.728  0.0378 -0.2026 -0.1034
 6383POPC   NC377377   4.080  24.424   3.892 -0.0853 -0.2576  0.1779
 6383POPC   PO477378   4.339  24.211   4.002 -0.0991  0.3136 -0.3699
 6383POPC   GL177379   4.162  24.043   4.323 -0.4007 -0.0829  0.0537
 6383POPC   GL277380   4.058  24.318   4.411 -0.0457 -0.0252 -0.1127
 6383POPC   C1A77381   4.254  24.079   4.787  0.1551 -0.1101 -0.0489
 6383POPC   D2A77382   4.598  23.915   5.065 -0.0609  0.3084 -0.3177
 6383POPC   C3A77383   5.009  24.070   4.978 -0.0100  0.0334  0.0321
 6383POPC   C4A77384   5.414  23.927   4.907  0.0789 -0.0703  0.1571
 6383POPC   C1B77385   3.780  24.021   4.619 -0.1591 -0.1473  0.1582
 6383POPC   C2B77386   3.439  23.907   4.987 -0.1077 -0.1025  0.1150
 6383POPC   C3B77387   3.204  23.641   5.325 -0.2471  0.0945 -0.5346
 6383POPC   C4B77388   2.885  23.576   5.586  0.1382  0.0917 -0.2488
 6384POPC   NC377389  24.948   5.219   3.659 -0.1194  0.0163 -0.1140
 6384POPC   PO477390  24.627   5.364   3.765  0.4055  0.2918  0.2626
 6384POPC   GL177391  24.872   5.474   4.060 -0.0333  0.0481 -0.0098
 6384POPC   GL277392  25.169   5.514   4.115 -0.2507 -0.0238 -0.0729
 6384POPC   C1A77393  24.805   5.380   4.504  0.0602  0.0921 -0.2246
 6384POPC   D2A77394  24.718   5.334   4.924 -0.2793 -0.0230  0.1494
 6384POPC   C3A77395  24.321   5.393   5.201  0.0833  0.0189  0.0193
 6384POPC   C4A77396  23.902   5.227   5.280  0.3030 -0.1622  0.0742
 6384POPC   C1B77397  25.262   5.414   4.567  0.0616 -0.2086 -0.0505
 6384POPC   C2B77398  25.178   5.368   5.013 -0.0624  0.0749 -0.2112
 6384POPC   C3B77399  25.219   5.541   5.419 -0.6265  0.2032 -0.3017
 6384POPC   C4B77400  25.161   5.622   5.917 -0.1977  0.0173 -0.1246
 6385POPC   NC377401   4.790  31.059   3.811  0.0087 -0.0662 -0.1059
 6385POPC   PO477402   4.775  30.831   3.488 -0.1039  0.0389  0.0448
 6385POPC   GL177403   4.814  30.445   3.687  0.0344  0.1477 -0.0957
 6385POPC   GL277404   5.030  30.609   3.856  0.0023  0.0796  0.2108
 6385POPC   C1A77405   4.722  30.308   4.161  0.0093 -0.2908  0.0715
 6385POPC   D2A77406   4.847  29.954   4.437  0.2800  0.1627  0.1706
 6385POPC   C3A77407   4.910  29.959   4.922 -0.1089 -0.1873  0.0403
 6385POPC   C4A77408   5.209  30.064   5.227 -0.0299  0.4356 -0.2211
 6385POPC   C1B77409   4.881  30.721   4.239  0.2782  0.1704 -0.1319
 6385POPC   C2B77410   4.991  30.518   4.668 -0.1384  0.0920  0.0676
 6385POPC   C3B77411   5.010  30.473   5.094 -0.2362  0.0514  0.0315
 6385POPC   C4B77412   5.256  30.464   5.466 -0.0593  0.3565  0.1111
 6386POPC   NC377413   0.921  12.871   3.799  0.0522  0.1017 -0.1689
 6386POPC   PO477414   0.885  12.496   3.722 -0.2792 -0.0570  0.0327
 6386POPC   GL177415   0.788  12.594   4.179 -0.0295 -0.2632  0.0280
 6386POPC   GL277416   1.074  12.706   4.307  0.0970  0.5045 -0.0925
 6386POPC   C1A77417   0.633  12.821   4.565  0.0345  0.2409 -0.1154
 6386POPC   D2A77418   0.677  12.984   4.996 -0.2720 -0.0748  0.0190
 6386POPC   C3A77419   0.478  12.758   5.365  0.2129 -0.1366 -0.1368
 6386POPC   C4A77420   0.531  12.893   5.881  0.0674 -0.3293  0.2031
 6386POPC   C1B77421   1.078  12.789   4.784  0.0515 -0.0244 -0.0391
 6386POPC   C2B77422   1.128  12.715   5.282  0.0217 -0.0116  0.0613
 6386POPC   C3B77423   1.046  12.795   5.746  0.1469  0.0849 -0.1864
 6386POPC   C4B77424   1.297  12.613   6.121 -0.3177  0.0194  0.2190
 6387POPC   NC377425  19.023  17.549   3.790  0.0933  0.2358  0.0634
 6387POPC   PO477426  18.670  17.742   3.716  0.3717  0.2749 -0.0820
 6387POPC   GL177427  18.773  17.899   4.164  0.1081  0.4002  0.4636
 6387POPC   GL277428  19.013  17.728   4.308 -0.1899 -0.2205 -0.2479
 6387POPC   C1A77429  18.680  18.148   4.550 -0.0426  0.0403  0.2054
 6387POPC   D2A77430  18.342  18.256   4.820 -0.0647  0.0621  0.0468
 6387POPC   C3A77431  18.304  18.636   5.123 -0.0824  0.0065  0.1993
 6387POPC   C4A77432  17.925  18.833   5.320 -0.1651 -0.0300  0.1806
 6387POPC   C1B77433  19.428  17.894   4.497 -0.0870  0.0248  0.0718
 6387POPC   C2B77434  19.644  18.166   4.848 -0.0433 -0.3516  0.1422
 6387POPC   C3B77435  19.748  18.112   5.301  0.0963  0.0526 -0.0749
 6387POPC   C4B77436  20.119  17.950   5.515  0.0688 -0.1677  0.0843
 6388POPC   NC377437  23.069  19.985   3.940  0.0117 -0.0230  0.0263
 6388POPC   PO477438  22.803  19.661   3.787  0.1100  0.0383  0.0469
 6388POPC   GL177439  22.527  19.649   4.013  0.3537  0.4529  0.2915
 6388POPC   GL277440  22.274  19.788   3.964 -0.0152  0.1819 -0.1296
 6388POPC   C1A77441  22.370  19.626   4.428 -0.1354  0.0206  0.2176
 6388POPC   D2A77442  22.448  19.344   4.800 -0.1796  0.0909  0.0904
 6388POPC   C3A77443  22.755  19.222   5.019  0.0087 -0.0916 -0.3180
 6388POPC   C4A77444  23.051  18.875   5.011  0.2625 -0.0687  0.0463
 6388POPC   C1B77445  21.938  19.948   4.174  0.0850  0.1027 -0.0696
 6388POPC   C2B77446  21.648  19.932   4.570  0.0185  0.0492  0.1389
 6388POPC   C3B77447  21.428  19.626   4.846 -0.0360  0.0717 -0.1770
 6388POPC   C4B77448  21.541  19.222   5.073 -0.1385 -0.0249  0.0684
 6389POPC   NC377449  20.639  23.344   3.335  0.1948  0.2679  0.3424
 6389POPC   PO477450  20.661  23.308   3.724 -0.1896  0.0495 -0.0609
 6389POPC   GL177451  20.727  23.399   4.071  0.0195 -0.3058  0.1650
 6389POPC   GL277452  20.554  23.577   4.179 -0.1760  0.1339  0.1334
 6389POPC   C1A77453  20.736  23.257   4.468 -0.2431  0.0528 -0.0531
 6389POPC   D2A77454  20.927  23.169   4.921 -0.1521 -0.1959  0.0629
 6389POPC   C3A77455  20.734  23.192   5.352 -0.2036 -0.0187  0.0183
 6389POPC   C4A77456  20.750  23.226   5.828 -0.0617  0.0891  0.1680
 6389POPC   C1B77457  20.455  23.636   4.636 -0.0027 -0.0205 -0.2783
 6389POPC   C2B77458  20.405  23.518   5.113  0.2396  0.2206 -0.3158
 6389POPC   C3B77459  20.193  23.405   5.507  0.1232 -0.1261  0.0481
 6389POPC   C4B77460  20.132  23.399   5.916  0.1447  0.3277 -0.2336
 6390POPC   NC377461   8.656   8.482   3.571  0.0160 -0.2107 -0.1320
 6390POPC   PO477462   8.537   8.754   3.856 -0.0113  0.2381  0.0666
 6390POPC   GL177463   8.753   8.631   4.126 -0.0106  0.0804  0.0350
 6390POPC   GL277464   8.879   8.856   4.267  0.0126 -0.0207  0.0284
 6390POPC   C1A77465   8.592   8.310   4.405  0.0723  0.0142  0.0644
 6390POPC   D2A77466   8.404   8.105   4.795 -0.0462  0.2362  0.0625
 6390POPC   C3A77467   8.635   7.803   5.036  0.0539 -0.1607 -0.3320
 6390POPC   C4A77468   8.944   7.823   5.434 -0.1843 -0.0109 -0.1522
 6390POPC   C1B77469   8.927   8.963   4.693  0.1341 -0.0183 -0.0329
 6390POPC   C2B77470   8.772   8.888   5.153 -0.2128 -0.3109  0.0942
 6390POPC   C3B77471   8.736   8.642   5.506 -0.0802  0.0260 -0.0849
 6390POPC   C4B77472   8.853   8.615   5.966  0.2095 -0.0322 -0.4019
 6391POPC   NC377473   1.795  21.820   3.136 -0.1071  0.0054  0.1784
 6391POPC   PO477474   1.728  22.202   3.280 -0.1362 -0.0487  0.0305
 6391POPC   GL177475   1.816  22.329   3.610 -0.0238  0.0417 -0.2412
 6391POPC   GL277476   1.880  22.568   3.584  0.2357  0.4190 -0.1073
 6391POPC   C1A77477   1.631  22.378   4.044 -0.1741 -0.1546 -0.0020
 6391POPC   D2A77478   1.498  22.203   4.459  0.0248 -0.2567  0.3539
 6391POPC   C3A77479   1.646  21.865   4.611 -0.2075  0.0680 -0.0763
 6391POPC   C4A77480   1.813  21.466   4.743 -0.0004  0.2439 -0.0453
 6391POPC   C1B77481   2.035  22.704   4.004  0.1776  0.0857  0.2244
 6391POPC   C2B77482   1.950  22.692   4.458 -0.0212 -0.3721  0.1216
 6391POPC   C3B77483   1.897  22.859   4.915  0.0466  0.1020  0.0111
 6391POPC   C4B77484   1.910  22.901   5.387 -0.1150 -0.0413  0.1766
 6392POPC   NC377485  24.301  26.555   3.098  0.0293 -0.1002 -0.1548
 6392POPC   PO477486  24.419  26.192   3.214 -0.0836  0.1606  0.0385
 6392POPC   GL177487  24.838  25.989   3.247  0.4892  0.2871 -0.0648
 6392POPC   GL277488  24.974  26.198   3.392  0.0626  0.3356  0.3680
 6392POPC   C1A77489  25.002  25.676   3.556  0.1823 -0.2224 -0.2711
 6392POPC   D2A77490  25.185  25.370   3.836 -0.0234  0.3864 -0.0782
 6392POPC   C3A77491  25.621  25.443   4.034 -0.0765 -0.3491 -0.0360
 6392POPC   C4A77492  26.098  25.391   4.097 -0.3099  0.2584  0.4547
 6392POPC   C1B77493  25.066  26.196   3.832 -0.1396 -0.2456 -0.0288
 6392POPC   C2B77494  25.303  25.970   4.111  0.2271 -0.1500 -0.0466
 6392POPC   C3B77495  25.653  25.836   4.395  0.1064 -0.1798  0.1077
 6392POPC   C4B77496  26.082  25.676   4.459  0.1765 -0.3601 -0.0391
 6393POPC   NC377497  30.535  31.046   3.876 -0.1802  0.2542  0.0353
 6393POPC   PO477498  30.243  31.152   4.075 -0.0576  0.0188  0.1180
 6393POPC   GL177499  30.316  31.074   4.450 -0.2103  0.3514  0.3328
 6393POPC   GL277500  30.397  31.146   4.692 -0.0916 -0.0727 -0.0736
 6393POPC   C1A77501  30.119  30.733   4.721  0.0221  0.0525 -0.0287
 6393POPC   D2A77502  29.843  30.583   5.094  0.3048 -0.0815 -0.0912
 6393POPC   C3A77503  30.188  30.388   5.372  0.0438  0.1232  0.2501
 6393POPC   C4A77504  30.279  29.914   5.484 -0.0482 -0.2228  0.0243
 6393POPC   C1B77505  30.576  31.079   5.127  0.1001  0.0092 -0.3109
 6393POPC   C2B77506  30.330  31.046   5.509  0.0201  0.1456 -0.1496
 6393POPC   C3B77507  30.104  30.797   5.763  0.1115 -0.1380 -0.2969
 6393POPC   C4B77508  29.817  30.516   5.701  0.4306  0.0720 -0.1540
 6394POPC   NC377509  24.356  21.511   3.879 -0.0435 -0.0074 -0.2539
 6394POPC   PO477510  24.755  21.497   3.877 -0.0581 -0.0920  0.0426
 6394POPC   GL177511  24.727  21.664   4.263 -0.0855 -0.0747  0.1539
 6394POPC   GL277512  24.505  21.537   4.433  0.0815  0.0540 -0.2928
 6394POPC   C1A77513  24.935  21.708   4.674 -0.0119 -0.3328  0.2808
 6394POPC   D2A77514  25.303  21.889   4.940 -0.2502  0.0943 -0.0363
 6394POPC   C3A77515  25.387  21.944   5.365 -0.0427  0.1169  0.1926
 6394POPC   C4A77516  25.018  21.872   5.667 -0.1793 -0.3890  0.0438
 6394POPC   C1B77517  24.497  21.870   4.683 -0.0055  0.0248  0.0675
 6394POPC   C2B77518  24.523  21.927   5.116  0.1423 -0.3677  0.2387
 6394POPC   C3B77519  24.566  21.994   5.576  0.3342 -0.3131 -0.1332
 6394POPC   C4B77520  24.269  22.002   5.881  0.1487 -0.1787  0.0128
 6395POPC   NC377521   9.035  26.610   3.607 -0.0213  0.2056  0.2361
 6395POPC   PO477522   8.899  26.298   3.439  0.0267 -0.4834  0.4241
 6395POPC   GL177523   9.025  26.155   3.831  0.0188  0.2724  0.2006
 6395POPC   GL277524   9.270  26.261   3.866 -0.0946 -0.0343 -0.0684
 6395POPC   C1A77525   8.663  26.124   4.121 -0.0494  0.0466  0.2712
 6395POPC   D2A77526   8.312  26.251   4.336  0.0141 -0.2346 -0.1902
 6395POPC   C3A77527   8.371  26.275   4.790 -0.2497  0.1531  0.0291
 6395POPC   C4A77528   8.575  26.482   5.136  0.2246 -0.2285  0.2363
 6395POPC   C1B77529   9.591  26.193   4.218 -0.0459 -0.0426 -0.0782
 6395POPC   C2B77530   9.801  26.086   4.590  0.1027 -0.4161 -0.3933
 6395POPC   C3B77531   9.915  26.045   5.005 -0.0210 -0.1767 -0.2114
 6395POPC   C4B77532   9.932  25.858   5.464  0.1313 -0.0964  0.1181
 6396POPC   NC377533   2.255   2.768   3.092  0.0455  0.2929  0.3841
 6396POPC   PO477534   2.125   2.753   3.451 -0.0750  0.1706 -0.1685
 6396POPC   GL177535   2.251   2.615   3.748  0.3548  0.0155  0.1134
 6396POPC   GL277536   2.443   2.786   3.946  0.1175  0.2798 -0.2104
 6396POPC   C1A77537   2.051   2.505   4.186 -0.4124  0.2912  0.1183
 6396POPC   D2A77538   2.119   2.304   4.624 -0.0372 -0.0495  0.2116
 6396POPC   C3A77539   2.231   2.097   4.992 -0.0861  0.2323  0.2403
 6396POPC   C4A77540   2.471   2.135   5.387 -0.1307 -0.0171 -0.1039
 6396POPC   C1B77541   2.602   2.768   4.408 -0.0596 -0.5019 -0.3051
 6396POPC   C2B77542   2.529   2.631   4.845 -0.2649  0.1645  0.0891
 6396POPC   C3B77543   2.369   2.625   5.276  0.0935 -0.0808 -0.1001
 6396POPC   C4B77544   2.213   2.622   5.677  0.1833 -0.3198 -0.0580
 6397POPC   NC377545  10.350  20.602   3.823  0.0508  0.2001 -0.1198
 6397POPC   PO477546  10.532  20.258   3.878  0.2816  0.2185 -0.3765
 6397POPC   GL177547  10.709  19.946   4.104 -0.0273 -0.1003 -0.0622
 6397POPC   GL277548  11.044  19.969   4.142 -0.1378 -0.0122 -0.0101
 6397POPC   C1A77549  10.713  19.818   4.533 -0.3989 -0.0289 -0.2038
 6397POPC   D2A77550  10.533  19.642   4.923 -0.0033  0.2809  0.1078
 6397POPC   C3A77551  10.595  19.390   5.330  0.2676 -0.1542  0.3135
 6397POPC   C4A77552  10.797  19.212   5.752 -0.1146 -0.0106 -0.2884
 6397POPC   C1B77553  10.931  19.563   4.186 -0.0719 -0.1139 -0.1971
 6397POPC   C2B77554  11.271  19.288   4.343  0.2809 -0.1102  0.0685
 6397POPC   C3B77555  11.490  19.185   4.736 -0.4625 -0.1380 -0.0732
 6397POPC   C4B77556  11.507  19.356   5.158  0.0569  0.0316  0.0491
 6398POPC   NC377557   8.914  19.342   3.757 -0.0968  0.0494 -0.0334
 6398POPC   PO477558   8.680  19.597   3.543  0.1985  0.2350 -0.2749
 6398POPC   GL177559   8.466  19.447   3.851  0.6038 -0.1193 -0.0105
 6398POPC   GL277560   8.192  19.519   3.986 -0.1463  0.1154  0.1032
 6398POPC   C1A77561   8.345  19.048   4.087  0.0667  0.0158  0.1067
 6398POPC   D2A77562   8.540  18.789   4.350 -0.4652 -0.0452  0.0227
 6398POPC   C3A77563   8.375  18.862   4.771  0.4407  0.3242 -0.0547
 6398POPC   C4A77564   8.196  18.975   5.211  0.1082 -0.0212 -0.1040
 6398POPC   C1B77565   7.936  19.340   4.301 -0.0531 -0.0066 -0.2475
 6398POPC   C2B77566   7.926  19.219   4.741 -0.0669  0.0132  0.2133
 6398POPC   C3B77567   7.683  19.049   5.119  0.1078 -0.0056  0.0676
 6398POPC   C4B77568   7.448  18.962   5.494  0.0754  0.0218 -0.2716
 6399POPC   NC377569  31.645   8.283   3.727 -0.3363 -0.1162 -0.0354
 6399POPC   PO477570  31.633   8.032   3.427 -0.0909 -0.0855  0.0314
 6399POPC   GL177571  31.703   7.830   3.799 -0.0657  0.3427 -0.1533
 6399POPC   GL277572  31.506   7.578   3.771 -0.0276  0.1483  0.0073
 6399POPC   C1A77573  31.727   7.834   4.259  0.0260  0.2943  0.2026
 6399POPC   D2A77574  31.797   7.892   4.707  0.0092  0.2370 -0.1829
 6399POPC   C3A77575  31.827   7.469   4.912 -0.3371  0.1479 -0.0407
 6399POPC   C4A77576  32.068   7.365   5.295  0.2645  0.0183 -0.0501
 6399POPC   C1B77577  31.408   7.369   4.161  0.1239 -0.2958  0.2552
 6399POPC   C2B77578  31.393   7.336   4.652  0.0166 -0.1348  0.0546
 6399POPC   C3B77579  31.303   7.261   5.075  0.1075 -0.1198 -0.2716
 6399POPC   C4B77580  31.232   7.104   5.524  0.3119  0.2921  0.0043
 6400POPC   NC377581   2.031   9.669   3.385  0.4198 -0.2845  0.1909
 6400POPC   PO477582   1.652   9.813   3.377  0.0617 -0.2238 -0.0169
 6400POPC   GL177583   1.547   9.609   3.746  0.2832  0.1873  0.1983
 6400POPC   GL277584   1.728   9.377   3.767 -0.0491 -0.1284 -0.1347
 6400POPC   C1A77585   1.450   9.615   4.237 -0.0065 -0.2691  0.0054
 6400POPC   D2A77586   1.559   9.452   4.646  0.1880  0.1451 -0.1081
 6400POPC   C3A77587   1.137   9.481   4.752 -0.2016  0.1292 -0.1435
 6400POPC   C4A77588   0.710   9.354   4.753  0.0630 -0.2022  0.4187
 6400POPC   C1B77589   1.647   9.092   4.105 -0.3781  0.1001 -0.1712
 6400POPC   C2B77590   1.473   8.953   4.566 -0.1810 -0.2106  0.1082
 6400POPC   C3B77591   1.433   8.717   4.981 -0.0368 -0.4082 -0.2387
 6400POPC   C4B77592   1.581   8.350   5.207  0.1907  0.0490 -0.1059
 6401POPC   NC377593  20.356  21.830   3.832  0.1156  0.2622 -0.2066
 6401POPC   PO477594  20.031  22.019   3.796  0.0198  0.2751  0.0413
 6401POPC   GL177595  20.056  22.058   4.149 -0.3288  0.1681 -0.0525
 6401POPC   GL277596  20.266  21.857   4.305 -0.0799  0.0102 -0.0607
 6401POPC   C1A77597  20.352  22.328   4.439  0.0006 -0.3265  0.2379
 6401POPC   D2A77598  20.582  22.533   4.820 -0.1023 -0.3184 -0.1006
 6401POPC   C3A77599  20.691  22.628   5.206 -0.0990  0.0855  0.2889
 6401POPC   C4A77600  20.799  22.731   5.616 -0.0100 -0.0965  0.0611
 6401POPC   C1B77601  20.393  21.980   4.757 -0.0108  0.1048 -0.0196
 6401POPC   C2B77602  20.485  21.931   5.185  0.1390 -0.2927  0.3947
 6401POPC   C3B77603  20.437  21.683   5.559 -0.1415  0.0649 -0.0637
 6401POPC   C4B77604  20.371  21.949   5.923 -0.1221  0.0181 -0.1107
 6402POPC   NC377605   4.190  17.579   3.698  0.1592  0.0459  0.0576
 6402POPC   PO477606   4.448  17.268   3.709 -0.3490  0.0558 -0.0561
 6402POPC   GL177607   4.358  17.160   4.013  0.0442  0.4498  0.0494
 6402POPC   GL277608   4.524  17.032   4.182 -0.0905  0.0465 -0.2826
 6402POPC   C1A77609   4.033  17.137   4.383 -0.0495  0.1727 -0.1861
 6402POPC   D2A77610   3.758  16.896   4.623  0.2330  0.0395  0.3954
 6402POPC   C3A77611   3.666  17.097   5.055 -0.2458  0.2520 -0.1093
 6402POPC   C4A77612   3.522  17.507   5.276 -0.5880 -0.0954  0.1872
 6402POPC   C1B77613   4.474  17.272   4.556  0.0823 -0.0003 -0.3705
 6402POPC   C2B77614   4.147  17.262   4.878 -0.0574  0.0562  0.0846
 6402POPC   C3B77615   4.039  17.254   5.327 -0.0918 -0.0357 -0.0054
 6402POPC   C4B77616   4.287  17.422   5.774  0.1180 -0.0468  0.0220
 6403POPC   NC377617  15.666   7.457   3.755  0.4232  0.3382 -0.3538
 6403POPC   PO477618  15.438   7.583   4.084  0.2737 -0.3950  0.0323
 6403POPC   GL177619  15.167   7.716   4.397 -0.3206  0.1732 -0.1845
 6403POPC   GL277620  14.979   7.775   4.201  0.2566 -0.2670  0.2647
 6403POPC   C1A77621  15.165   7.826   4.848 -0.0483  0.3728  0.2187
 6403POPC   D2A77622  15.261   8.001   5.192  0.1080 -0.0315  0.4695
 6403POPC   C3A77623  15.330   7.932   5.650  0.1893  0.0248  0.2123
 6403POPC   C4A77624  15.246   8.184   6.013 -0.3590 -0.2467 -0.1399
 6403POPC   C1B77625  14.647   7.816   4.493 -0.1085 -0.0271 -0.0397
 6403POPC   C2B77626  14.656   7.637   4.906 -0.1975  0.1455 -0.1135
 6403POPC   C3B77627  14.424   7.773   5.243  0.2694  0.2821 -0.1720
 6403POPC   C4B77628  14.368   7.828   5.732  0.1586 -0.0943  0.0145
 6404POPC   NC377629   6.270  13.338   3.184 -0.0465  0.0563  0.0325
 6404POPC   PO477630   6.562  13.549   3.335 -0.1911 -0.2073 -0.0774
 6404POPC   GL177631   6.539  13.348   3.651 -0.2508  0.0789 -0.1463
 6404POPC   GL277632   6.310  13.563   3.799 -0.1454 -0.0251 -0.1043
 6404POPC   C1A77633   6.362  13.113   3.977  0.0791  0.2776 -0.2794
 6404POPC   D2A77634   6.265  12.795   4.235  0.3716  0.0979 -0.0747
 6404POPC   C3A77635   6.395  12.470   4.515 -0.1376  0.0300 -0.0498
 6404POPC   C4A77636   6.410  12.111   4.770 -0.3113  0.2333 -0.1333
 6404POPC   C1B77637   6.581  13.553   4.158 -0.0457 -0.1010 -0.1427
 6404POPC   C2B77638   6.766  13.434   4.612  0.1758  0.0776 -0.0659
 6404POPC   C3B77639   6.750  13.248   5.059 -0.0424 -0.0716  0.1813
 6404POPC   C4B77640   6.778  12.835   5.336 -0.0204  0.2157 -0.1175
 6405POPC   NC377641  22.923   7.160   3.692  0.0109 -0.0570  0.1417
 6405POPC   PO477642  22.715   7.530   3.577 -0.1600  0.1578  0.0145
 6405POPC   GL177643  22.357   7.495   3.915  0.1146 -0.0347  0.3395
 6405POPC   GL277644  22.485   7.631   4.071 -0.0189 -0.1598  0.0405
 6405POPC   C1A77645  22.240   7.162   4.236  0.0093 -0.1410 -0.0021
 6405POPC   D2A77646  22.120   7.054   4.707 -0.1907  0.0830  0.0327
 6405POPC   C3A77647  22.369   7.107   5.131 -0.0726 -0.0547 -0.2831
 6405POPC   C4A77648  22.586   7.011   5.524  0.0931 -0.4975  0.2108
 6405POPC   C1B77649  22.706   7.903   4.364  0.3469 -0.2926 -0.0542
 6405POPC   C2B77650  22.921   8.280   4.518 -0.0240  0.2757  0.1762
 6405POPC   C3B77651  22.748   8.637   4.732  0.2422  0.0912 -0.1865
 6405POPC   C4B77652  22.721   8.737   5.214  0.0392 -0.0157  0.0110
 6406POPC   NC377653  29.237  10.017   3.616  0.3824  0.1053  0.0120
 6406POPC   PO477654  29.320   9.634   3.491  0.3094  0.3632 -0.3125
 6406POPC   GL177655  29.436   9.517   3.873 -0.2876  0.2737  0.0523
 6406POPC   GL277656  29.295   9.636   4.044 -0.1207  0.3027 -0.1057
 6406POPC   C1A77657  29.753   9.513   4.212  0.0832 -0.1070 -0.0311
 6406POPC   D2A77658  30.162   9.480   4.473 -0.0307 -0.0116 -0.0922
 6406POPC   C3A77659  30.083   9.554   4.898  0.3940  0.1145 -0.1214
 6406POPC   C4A77660  30.320   9.504   5.298 -0.1265  0.1242  0.1037
 6406POPC   C1B77661  29.005   9.699   4.420  0.0519 -0.1539  0.0039
 6406POPC   C2B77662  28.924   9.861   4.860 -0.0077  0.1482  0.2238
 6406POPC   C3B77663  28.907  10.183   5.198  0.0412  0.0588 -0.1352
 6406POPC   C4B77664  29.017  10.325   5.623 -0.1592  0.0158  0.0112
 6407POPC   NC377665  25.637  13.169   3.337  0.0322 -0.2473 -0.0464
 6407POPC   PO477666  26.024  13.178   3.252  0.0283  0.0023 -0.0480
 6407POPC   GL177667  26.136  13.143   3.686  0.2133  0.2018  0.0624
 6407POPC   GL277668  25.943  13.348   3.762 -0.1643 -0.0082 -0.1941
 6407POPC   C1A77669  26.332  12.933   4.087 -0.1035 -0.0838  0.0629
 6407POPC   D2A77670  26.259  12.949   4.545 -0.1877 -0.2152 -0.0514
 6407POPC   C3A77671  26.490  13.209   4.874  0.0721  0.0058 -0.2816
 6407POPC   C4A77672  26.541  13.382   5.327  0.0467 -0.1841  0.3504
 6407POPC   C1B77673  26.000  13.265   4.250 -0.1688 -0.1163  0.1002
 6407POPC   C2B77674  26.049  13.435   4.685  0.1127  0.4354 -0.1154
 6407POPC   C3B77675  26.072  13.524   5.167 -0.1204 -0.0619 -0.1697
 6407POPC   C4B77676  26.260  13.750   5.559  0.0373  0.1758 -0.1195
 6408POPC   NC377677  21.395  22.991   3.751 -0.0140 -0.1704 -0.1130
 6408POPC   PO477678  21.190  23.302   3.905  0.0108  0.2003  0.1146
 6408POPC   GL177679  21.351  23.221   4.298 -0.1220  0.0489  0.0690
 6408POPC   GL277680  21.190  22.928   4.400 -0.1292  0.0572 -0.2846
 6408POPC   C1A77681  21.663  22.977   4.564 -0.2638 -0.1675  0.0248
 6408POPC   D2A77682  21.721  22.648   4.888 -0.0266 -0.0238 -0.0529
 6408POPC   C3A77683  21.634  22.669   5.360  0.0099 -0.0412  0.0275
 6408POPC   C4A77684  21.900  22.641   5.743 -0.1943 -0.1043 -0.1301
 6408POPC   C1B77685  21.206  22.692   4.739  0.1219  0.2679 -0.0146
 6408POPC   C2B77686  21.178  22.514   5.128  0.1173  0.0229  0.0306
 6408POPC   C3B77687  21.056  22.324   5.516 -0.1479 -0.1332  0.0638
 6408POPC   C4B77688  20.739  22.039   5.647  0.0530 -0.1032 -0.1869
 6409POPC   NC377689  28.519  28.968   3.574 -0.0560  0.0783 -0.1739
 6409POPC   PO477690  28.798  29.166   3.386  0.2483 -0.0631  0.2940
 6409POPC   GL177691  28.964  29.269   3.719  0.0143 -0.0564 -0.1845
 6409POPC   GL277692  29.265  29.208   3.836  0.1758  0.0447  0.2882
 6409POPC   C1A77693  29.004  29.126   4.183  0.3176 -0.1854 -0.1641
 6409POPC   D2A77694  28.971  29.127   4.658  0.2302  0.1039  0.1864
 6409POPC   C3A77695  29.066  29.463   5.011  0.3690  0.3244 -0.1520
 6409POPC   C4A77696  28.986  29.922   5.134  0.0975 -0.1942 -0.0419
 6409POPC   C1B77697  29.509  29.311   4.233  0.1646  0.2103  0.0002
 6409POPC   C2B77698  29.430  29.368   4.662  0.0153 -0.1457 -0.1337
 6409POPC   C3B77699  29.659  29.324   5.048 -0.3650  0.0661  0.0351
 6409POPC   C4B77700  29.745  29.130   5.438 -0.1664  0.0425  0.0377
 6410POPC   NC377701   0.927  30.612   3.553 -0.2409 -0.1604  0.2144
 6410POPC   PO477702   0.660  30.772   3.798 -0.2496 -0.1389  0.3006
 6410POPC   GL177703   0.518  30.833   4.154  0.3238  0.0862  0.2178
 6410POPC   GL277704   0.309  30.631   4.324  0.0310  0.0614 -0.0868
 6410POPC   C1A77705   0.699  30.808   4.576  0.1418  0.1029  0.2123
 6410POPC   D2A77706   0.526  31.119   4.847  0.1756 -0.0291 -0.3368
 6410POPC   C3A77707   0.728  31.285   5.228  0.0319  0.0436  0.1766
 6410POPC   C4A77708   1.127  31.294   5.498  0.1262  0.0900 -0.2318
 6410POPC   C1B77709   0.240  30.717   4.736 -0.0421 -0.3341 -0.0178
 6410POPC   C2B77710   0.154  30.837   5.191 -0.5480 -0.3589 -0.0289
 6410POPC   C3B77711   0.041  30.642   5.659  0.0690  0.1095 -0.1831
 6410POPC   C4B77712  -0.294  30.387   5.926 -0.1226 -0.1202 -0.2491
 6411POPC   NC377713   9.722  15.975   3.781  0.0781 -0.0099  0.0162
 6411POPC   PO477714   9.644  16.350   3.841 -0.3583  0.2075  0.1795
 6411POPC   GL177715   9.846  16.348   4.204 -0.2543 -0.1595 -0.0891
 6411POPC   GL277716  10.059  16.194   4.233 -0.0280 -0.0245 -0.0826
 6411POPC   C1A77717   9.574  16.354   4.605  0.1254  0.2084  0.0910
 6411POPC   D2A77718   9.608  16.328   5.081 -0.2263 -0.2725  0.1392
 6411POPC   C3A77719   9.667  16.434   5.548 -0.3006 -0.1339 -0.3782
 6411POPC   C4A77720   9.913  16.162   5.813  0.1589  0.0101 -0.1880
 6411POPC   C1B77721  10.107  16.205   4.679 -0.0518 -0.1820 -0.1815
 6411POPC   C2B77722  10.323  15.854   4.919  0.0655  0.0719  0.0780
 6411POPC   C3B77723  10.418  15.900   5.358  0.2758  0.2344  0.0959
 6411POPC   C4B77724  10.530  15.861   5.810  0.1685  0.2870  0.2765
 6412POPC   NC377725   1.371  19.704   3.779  0.1948 -0.0728  0.4659
 6412POPC   PO477726   1.441  19.980   3.464 -0.0552  0.1095  0.1425
 6412POPC   GL177727   1.705  20.045   3.921 -0.3950 -0.0518 -0.2208
 6412POPC   GL277728   1.468  20.195   4.031 -0.2437  0.3151  0.0943
 6412POPC   C1A77729   2.009  20.330   4.100 -0.3128 -0.0371  0.1670
 6412POPC   D2A77730   2.168  20.542   4.522 -0.0788  0.1463 -0.1225
 6412POPC   C3A77731   2.181  20.240   4.836 -0.1063 -0.1662 -0.3229
 6412POPC   C4A77732   2.286  20.115   5.264 -0.2342 -0.2115  0.0009
 6412POPC   C1B77733   1.657  20.056   4.407 -0.3650 -0.1916  0.0104
 6412POPC   C2B77734   1.711  20.311   4.804 -0.0115 -0.0555 -0.0339
 6412POPC   C3B77735   1.790  20.130   5.198 -0.3916  0.1182  0.2574
 6412POPC   C4B77736   1.980  19.949   5.608  0.0762 -0.0380 -0.2128
 6413POPC   NC377737  23.996   0.378   3.758  0.1450  0.0987 -0.1747
 6413POPC   PO477738  23.911   0.010   3.594 -0.0993  0.1058  0.1218
 6413POPC   GL177739  23.522   0.074   3.748  0.1537  0.0643 -0.0527
 6413POPC   GL277740  23.487   0.275   3.958 -0.1041  0.0234 -0.0588
 6413POPC   C1A77741  23.398  -0.208   4.173  0.2195 -0.3097  0.1480
 6413POPC   D2A77742  23.248  -0.539   4.484 -0.2259  0.2983 -0.0153
 6413POPC   C3A77743  23.592  -0.662   4.857  0.0645 -0.0015  0.1380
 6413POPC   C4A77744  23.651  -0.838   5.328  0.0129 -0.0701 -0.0674
 6413POPC   C1B77745  23.393   0.256   4.368  0.1922 -0.0390 -0.1262
 6413POPC   C2B77746  23.160   0.193   4.702 -0.0664  0.1376  0.0678
 6413POPC   C3B77747  23.134   0.185   5.168  0.1461  0.0685  0.3230
 6413POPC   C4B77748  22.781   0.321   5.445 -0.0463  0.2782  0.1047
 6414POPC   NC377749  15.737  25.630   3.803 -0.1750  0.1134 -0.1881
 6414POPC   PO477750  15.619  25.869   3.523 -0.0066 -0.1279  0.2869
 6414POPC   GL177751  15.746  26.078   3.838  0.0733  0.2576  0.1075
 6414POPC   GL277752  15.622  26.064   4.138  0.0280  0.4111 -0.5230
 6414POPC   C1A77753  16.093  26.168   4.186  0.1593  0.1456  0.1770
 6414POPC   D2A77754  16.485  26.288   4.442 -0.0326 -0.0999  0.2445
 6414POPC   C3A77755  16.451  26.715   4.554 -0.0796  0.2614  0.1521
 6414POPC   C4A77756  16.554  26.913   4.951 -0.0190  0.0434 -0.5061
 6414POPC   C1B77757  15.672  25.903   4.544  0.0235  0.4898  0.0572
 6414POPC   C2B77758  15.740  25.929   4.982  0.1727 -0.0238  0.0409
 6414POPC   C3B77759  15.709  25.985   5.443 -0.2503 -0.2998  0.2479
 6414POPC   C4B77760  15.677  26.114   5.927  0.2914 -0.0962 -0.3225
 6415POPC   NC377761  28.167  20.584   3.702 -0.0654 -0.1382 -0.0119
 6415POPC   PO477762  28.032  20.880   3.917  0.0240 -0.1300  0.2571
 6415POPC   GL177763  28.142  20.947   4.326 -0.1567  0.4819 -0.0873
 6415POPC   GL277764  27.894  21.113   4.369 -0.0074 -0.0837 -0.1746
 6415POPC   C1A77765  28.380  20.840   4.698  0.4298 -0.0614  0.0310
 6415POPC   D2A77766  28.481  20.618   5.042  0.1863 -0.0305 -0.1028
 6415POPC   C3A77767  28.644  20.402   5.389 -0.1180  0.0215 -0.2443
 6415POPC   C4A77768  28.402  20.289   5.824  0.0147  0.2309  0.2404
 6415POPC   C1B77769  27.935  21.044   4.848 -0.1888  0.0343  0.1203
 6415POPC   C2B77770  27.956  20.945   5.302 -0.0587 -0.2022  0.0414
 6415POPC   C3B77771  27.984  21.159   5.684 -0.0045  0.1735 -0.1066
 6415POPC   C4B77772  28.132  21.458   6.088 -0.0281 -0.0101  0.3960
 6416POPC   NC377773  13.666  14.573   3.648  0.3553  0.0466  0.0308
 6416POPC   PO477774  13.934  14.369   3.472 -0.4311  0.1171 -0.0949
 6416POPC   GL177775  14.207  14.105   3.671  0.1158  0.5681 -0.1656
 6416POPC   GL277776  14.143  14.284   3.952  0.3413  0.0879  0.0807
 6416POPC   C1A77777  14.389  13.888   4.037  0.1600  0.3361 -0.3688
 6416POPC   D2A77778  14.375  13.693   4.492  0.0184 -0.0281 -0.3024
 6416POPC   C3A77779  14.083  13.525   4.849 -0.3127 -0.1110  0.2725
 6416POPC   C4A77780  13.899  13.551   5.237 -0.0642 -0.0698  0.3289
 6416POPC   C1B77781  14.200  14.221   4.374 -0.1310  0.1220  0.1267
 6416POPC   C2B77782  14.009  14.095   4.778 -0.2496 -0.2284  0.1221
 6416POPC   C3B77783  13.955  14.175   5.237 -0.0591 -0.1220  0.1258
 6416POPC   C4B77784  13.935  14.441   5.610 -0.0551  0.0714  0.3260
 6417POPC   NC377785   3.213   8.684   3.315 -0.1280  0.2368 -0.1686
 6417POPC   PO477786   3.489   8.473   3.500  0.1100  0.0437  0.0231
 6417POPC   GL177787   3.245   8.439   3.981  0.0681  0.2145 -0.0549
 6417POPC   GL277788   3.029   8.633   3.898 -0.0115  0.3418 -0.0417
 6417POPC   C1A77789   3.244   8.597   4.430  0.0586 -0.0831 -0.4559
 6417POPC   D2A77790   2.905   8.499   4.776 -0.1570  0.1557  0.1321
 6417POPC   C3A77791   2.791   8.671   5.209 -0.0206  0.0469  0.1266
 6417POPC   C4A77792   2.447   8.813   5.467  0.1915  0.3605  0.0650
 6417POPC   C1B77793   2.828   8.434   4.221  0.4384  0.1782 -0.1346
 6417POPC   C2B77794   2.469   8.486   4.528 -0.1460  0.1538  0.0949
 6417POPC   C3B77795   2.118   8.305   4.622 -0.0744 -0.0686 -0.1951
 6417POPC   C4B77796   1.788   8.017   4.767  0.3429 -0.1093 -0.3803
 6418POPC   NC377797   2.388  13.722   4.095  0.0605 -0.0873 -0.1311
 6418POPC   PO477798   2.596  13.460   4.283 -0.0928 -0.1165  0.2408
 6418POPC   GL177799   2.432  13.342   4.666 -0.3486 -0.2301  0.0215
 6418POPC   GL277800   2.450  13.580   4.787  0.0457  0.2434  0.2435
 6418POPC   C1A77801   2.453  12.975   4.910  0.1104 -0.0158  0.0564
 6418POPC   D2A77802   2.735  12.854   5.239  0.0356 -0.0351  0.0309
 6418POPC   C3A77803   2.599  12.816   5.691 -0.0528  0.0975  0.1062
 6418POPC   C4A77804   2.521  12.769   6.203 -0.1882 -0.1383  0.1193
 6418POPC   C1B77805   2.597  13.431   5.207  0.1226 -0.0406 -0.3250
 6418POPC   C2B77806   2.762  13.276   5.627 -0.1201 -0.1468  0.0384
 6418POPC   C3B77807   2.895  13.222   6.045 -0.0029 -0.1322 -0.1589
 6418POPC   C4B77808   2.889  13.059   6.504  0.0789  0.1755 -0.0241
 6419POPC   NC377809   0.030  31.380   3.609  0.2115  0.0090  0.1340
 6419POPC   PO477810   0.396  31.187   3.619 -0.1055 -0.3203  0.3342
 6419POPC   GL177811   0.318  31.201   3.995 -0.3186 -0.0228 -0.0806
 6419POPC   GL277812   0.112  31.000   4.000 -0.3172 -0.0559 -0.0075
 6419POPC   C1A77813   0.507  31.320   4.429 -0.1445 -0.1744  0.0417
 6419POPC   D2A77814   0.661  31.613   4.751 -0.3103 -0.2622 -0.1193
 6419POPC   C3A77815   0.613  31.861   5.134 -0.1335  0.2134  0.2552
 6419POPC   C4A77816   0.655  32.261   5.334 -0.1850 -0.1310 -0.1626
 6419POPC   C1B77817  -0.046  31.001   4.482 -0.1411 -0.2520 -0.2256
 6419POPC   C2B77818  -0.005  31.223   4.898 -0.0867 -0.1437  0.2218
 6419POPC   C3B77819  -0.146  31.259   5.312 -0.0475  0.0946 -0.0841
 6419POPC   C4B77820  -0.417  31.242   5.673 -0.2313 -0.1739 -0.0463
 6420POPC   NC377821   4.676  24.038   4.499 -0.1054  0.0704  0.1576
 6420POPC   PO477822   4.580  23.722   4.253 -0.3668  0.1015  0.3099
 6420POPC   GL177823   4.416  23.520   4.573 -0.0540  0.0001  0.2464
 6420POPC   GL277824   4.150  23.607   4.505 -0.1322 -0.3092  0.0921
 6420POPC   C1A77825   4.469  23.478   4.977 -0.0950 -0.1611 -0.1824
 6420POPC   D2A77826   4.351  23.664   5.396 -0.3712  0.2804 -0.0491
 6420POPC   C3A77827   4.507  23.793   5.829  0.1324 -0.3233  0.1872
 6420POPC   C4A77828   4.603  24.240   5.752 -0.2488  0.0357 -0.2588
 6420POPC   C1B77829   3.963  23.702   4.897  0.2707 -0.1293 -0.1088
 6420POPC   C2B77830   3.816  23.682   5.383  0.0434 -0.2154 -0.2301
 6420POPC   C3B77831   3.990  23.592   5.784 -0.0312 -0.3341 -0.1068
 6420POPC   C4B77832   4.111  23.815   6.197  0.0608  0.0613 -0.2131
 6421POPC   NC377833   9.097  15.403   3.969  0.1621  0.1871  0.1607
 6421POPC   PO477834   9.288  15.726   3.907  0.0402  0.0783  0.1144
 6421POPC   GL177835   9.220  15.825   4.251 -0.0769 -0.1491  0.1011
 6421POPC   GL277836   9.423  16.084   4.216  0.0810  0.0247 -0.3822
 6421POPC   C1A77837   9.104  15.987   4.678  0.2499 -0.2938  0.1227
 6421POPC   D2A77838   9.215  15.961   5.124 -0.0771  0.3511  0.0432
 6421POPC   C3A77839   9.521  15.881   5.397  0.4871  0.2344 -0.1381
 6421POPC   C4A77840   9.555  15.664   5.788  0.2529  0.0265 -0.0833
 6421POPC   C1B77841   9.746  15.904   4.452 -0.0314  0.1863 -0.0137
 6421POPC   C2B77842   9.764  15.894   4.913 -0.0267  0.0547  0.1961
 6421POPC   C3B77843   9.982  16.082   5.289 -0.2598 -0.0586 -0.2599
 6421POPC   C4B77844  10.261  16.374   5.495 -0.3934 -0.2945 -0.1632
 6422POPC   NC377845  13.061   1.628   3.419  0.0698  0.0748  0.2078
 6422POPC   PO477846  12.696   1.586   3.517  0.1982 -0.1736 -0.2946
 6422POPC   GL177847  12.682   1.401   3.857 -0.0395 -0.1940 -0.1328
 6422POPC   GL277848  12.491   1.199   3.903 -0.2053 -0.0762  0.0734
 6422POPC   C1A77849  12.988   1.506   4.233  0.2064  0.0531 -0.1694
 6422POPC   D2A77850  12.900   1.551   4.667 -0.0048  0.0207 -0.2749
 6422POPC   C3A77851  12.894   1.399   5.050  0.0842 -0.2761  0.0202
 6422POPC   C4A77852  13.024   1.173   5.415  0.3264  0.2992  0.2052
 6422POPC   C1B77853  12.588   1.257   4.315 -0.1044  0.0374 -0.2001
 6422POPC   C2B77854  12.763   1.023   4.710 -0.0706 -0.3601  0.1387
 6422POPC   C3B77855  12.681   0.855   5.056 -0.0231  0.1419 -0.1490
 6422POPC   C4B77856  12.724   0.613   5.503  0.0688  0.2208  0.4267
 6423POPC   NC377857   4.791  28.476   3.807 -0.0128  0.3703 -0.2788
 6423POPC   PO477858   4.774  28.081   3.766 -0.0277  0.1964 -0.0743
 6423POPC   GL177859   4.908  28.024   4.198  0.0755 -0.5372  0.2312
 6423POPC   GL277860   5.016  27.886   4.306 -0.1519  0.0507  0.1231
 6423POPC   C1A77861   4.486  27.855   4.464  0.0382 -0.0396  0.0154
 6423POPC   D2A77862   4.431  27.613   4.870  0.2159 -0.0903  0.1697
 6423POPC   C3A77863   4.738  27.493   5.141 -0.2604 -0.2141 -0.2468
 6423POPC   C4A77864   5.024  27.604   5.485  0.0487  0.2344  0.2287
 6423POPC   C1B77865   4.863  27.926   4.769 -0.2688  0.2439 -0.2344
 6423POPC   C2B77866   4.796  28.037   5.244  0.5944  0.2001  0.1823
 6423POPC   C3B77867   4.747  28.189   5.593 -0.0940 -0.2376 -0.3782
 6423POPC   C4B77868   4.551  28.323   6.014 -0.0456 -0.0077 -0.0330
 6424POPC   NC377869  31.722   5.891   3.688  0.1351  0.0193  0.2637
 6424POPC   PO477870  31.702   6.243   3.546 -0.0811  0.0352 -0.2517
 6424POPC   GL177871  31.521   6.326   3.906 -0.0036  0.0088  0.2207
 6424POPC   GL277872  31.438   6.101   4.009 -0.0271 -0.1818  0.2135
 6424POPC   C1A77873  31.539   6.458   4.378  0.0765  0.0696  0.2849
 6424POPC   D2A77874  31.584   6.475   4.809  0.1686 -0.1475  0.0567
 6424POPC   C3A77875  31.690   6.266   5.146 -0.2015  0.1796  0.0377
 6424POPC   C4A77876  31.800   6.373   5.575  0.0945  0.1272  0.1193
 6424POPC   C1B77877  31.387   5.873   4.416 -0.1077  0.1201  0.2281
 6424POPC   C2B77878  31.445   5.831   4.882 -0.0871  0.1617  0.0831
 6424POPC   C3B77879  31.313   5.802   5.354  0.1707 -0.1953  0.0178
 6424POPC   C4B77880  31.145   5.670   5.726 -0.0103 -0.2572 -0.0126
 6425POPC   NC377881  28.321  21.635   3.684  0.1648 -0.6102  0.2246
 6425POPC   PO477882  28.027  21.741   3.884  0.1850 -0.1268  0.2275
 6425POPC   GL177883  28.022  21.692   4.250 -0.0676 -0.2236 -0.1421
 6425POPC   GL277884  27.864  21.628   4.498  0.0969 -0.3163 -0.0419
 6425POPC   C1A77885  28.285  21.844   4.640 -0.0549 -0.0344  0.1187
 6425POPC   D2A77886  28.308  21.893   5.090 -0.0220  0.0217  0.0840
 6425POPC   C3A77887  27.921  22.036   5.320  0.0926 -0.0370  0.0088
 6425POPC   C4A77888  27.629  22.096   5.687  0.0103  0.3168 -0.1523
 6425POPC   C1B77889  27.762  21.588   4.940  0.1255 -0.1495  0.0417
 6425POPC   C2B77890  28.013  21.511   5.304 -0.0585 -0.1964 -0.0501
 6425POPC   C3B77891  28.374  21.505   5.604  0.3574 -0.0606 -0.1395
 6425POPC   C4B77892  28.574  21.329   6.000  0.2538  0.0786 -0.2859
 6426POPC   NC377893  30.028  25.998   3.943  0.0914  0.1188 -0.0969
 6426POPC   PO477894  29.863  25.657   3.851  0.0089 -0.4814 -0.0478
 6426POPC   GL177895  29.746  25.657   4.242  0.2309  0.0968  0.2596
 6426POPC   GL277896  29.484  25.807   4.242  0.1364 -0.2414 -0.0457
 6426POPC   C1A77897  29.940  25.475   4.620 -0.3129  0.1200  0.0179
 6426POPC   D2A77898  29.840  25.437   5.113  0.0528 -0.1342 -0.0640
 6426POPC   C3A77899  30.013  25.098   5.335 -0.0515 -0.0643  0.0845
 6426POPC   C4A77900  30.154  24.731   5.259 -0.0830  0.3634 -0.0044
 6426POPC   C1B77901  29.414  25.685   4.699  0.1243 -0.2342 -0.0869
 6426POPC   C2B77902  29.249  25.679   5.127 -0.1788  0.1561 -0.0254
 6426POPC   C3B77903  29.064  25.341   5.503 -0.4500  0.0859  0.4326
 6426POPC   C4B77904  28.679  25.077   5.470 -0.3750  0.0334 -0.0828
 6427POPC   NC377905  24.703   2.717   3.256 -0.1513  0.0781 -0.2538
 6427POPC   PO477906  24.729   2.930   3.541  0.1028  0.0584 -0.1098
 6427POPC   GL177907  24.752   2.896   3.977  0.0867  0.1054 -0.2847
 6427POPC   GL277908  24.785   3.185   4.038  0.0457  0.0108 -0.0795
 6427POPC   C1A77909  24.483   2.719   4.259 -0.0064 -0.0825 -0.1646
 6427POPC   D2A77910  24.042   2.632   4.437 -0.1454  0.4154  0.4275
 6427POPC   C3A77911  24.054   2.611   4.947  0.0648  0.4163  0.1241
 6427POPC   C4A77912  24.242   2.503   5.380 -0.0520  0.2797 -0.0117
 6427POPC   C1B77913  24.806   3.095   4.503 -0.1765 -0.0751 -0.0913
 6427POPC   C2B77914  24.887   2.923   4.937  0.1223  0.3201 -0.4159
 6427POPC   C3B77915  24.852   3.018   5.371 -0.0025 -0.2855 -0.0695
 6427POPC   C4B77916  24.700   3.441   5.507 -0.3810  0.0420  0.0499
 6428POPC   NC377917   0.780  23.278   3.257 -0.1099 -0.1262 -0.1058
 6428POPC   PO477918   0.917  23.557   3.514  0.0060  0.0109  0.3404
 6428POPC   GL177919   0.921  23.382   3.808 -0.1737  0.2122 -0.1016
 6428POPC   GL277920   1.111  23.158   3.751 -0.1663 -0.2071 -0.1423
 6428POPC   C1A77921   1.011  23.586   4.199 -0.1386 -0.0585  0.1186
 6428POPC   D2A77922   0.851  23.636   4.606  0.0453 -0.0033 -0.0522
 6428POPC   C3A77923   0.962  24.057   4.806 -0.0735 -0.0711  0.0293
 6428POPC   C4A77924   1.104  24.180   5.204  0.0399  0.0217 -0.2399
 6428POPC   C1B77925   1.053  23.049   4.187 -0.0520 -0.0562  0.0651
 6428POPC   C2B77926   1.053  23.083   4.672  0.3672  0.0717  0.2231
 6428POPC   C3B77927   0.992  23.208   5.134 -0.0585 -0.2756  0.0344
 6428POPC   C4B77928   0.869  23.619   5.178 -0.0368  0.0677  0.2840
 6429POPC   NC377929   8.911   0.407   3.820 -0.2230  0.0355 -0.3598
 6429POPC   PO477930   8.913   0.061   4.057  0.2932 -0.1006 -0.0235
 6429POPC   GL177931   8.962  -0.200   4.376 -0.0232  0.0286 -0.2945
 6429POPC   GL277932   9.069   0.002   4.540  0.2511 -0.1196 -0.0756
 6429POPC   C1A77933   9.213  -0.514   4.633  0.2538  0.4227 -0.1709
 6429POPC   D2A77934   9.322  -0.866   4.943 -0.2392 -0.0653 -0.2357
 6429POPC   C3A77935   9.587  -0.724   5.298  0.2092  0.1931 -0.0549
 6429POPC   C4A77936   9.566  -0.504   5.731 -0.1630  0.1566  0.0883
 6429POPC   C1B77937   9.000  -0.113   5.018 -0.2203 -0.2727  0.1089
 6429POPC   C2B77938   8.691  -0.220   5.398 -0.1321 -0.1489 -0.1714
 6429POPC   C3B77939   8.248  -0.409   5.565 -0.1435  0.1188  0.1354
 6429POPC   C4B77940   8.076  -0.632   5.945 -0.1629  0.1904 -0.0954
 6430POPC   NC377941  31.703   9.151   3.169 -0.2039  0.2105 -0.1280
 6430POPC   PO477942  31.653   8.822   3.432  0.2767 -0.0117  0.1923
 6430POPC   GL177943  31.746   8.910   3.772  0.3768  0.2489 -0.2114
 6430POPC   GL277944  31.613   8.714   3.964  0.2755  0.2229 -0.1196
 6430POPC   C1A77945  32.121   8.745   3.964 -0.0814 -0.0903 -0.1221
 6430POPC   D2A77946  32.313   8.750   4.377  0.0086 -0.1325 -0.2668
 6430POPC   C3A77947  32.443   8.339   4.408  0.2346  0.1872  0.0669
 6430POPC   C4A77948  32.243   7.911   4.270  0.0642 -0.0513 -0.2069
 6430POPC   C1B77949  31.809   8.813   4.368  0.0399  0.1488 -0.4472
 6430POPC   C2B77950  32.005   9.102   4.742 -0.1321  0.0629  0.3062
 6430POPC   C3B77951  32.133   9.377   5.119 -0.1881 -0.0092 -0.1704
 6430POPC   C4B77952  31.891   9.727   5.301  0.0785  0.0925 -0.0298
 6431POPC   NC377953  12.897  16.314   3.684  0.0129 -0.2759 -0.3089
 6431POPC   PO477954  12.907  16.546   3.383 -0.1722 -0.0889 -0.1437
 6431POPC   GL177955  12.983  16.784   3.657  0.0195 -0.0661 -0.0961
 6431POPC   GL277956  13.268  16.843   3.627  0.1895 -0.0912  0.0831
 6431POPC   C1A77957  12.901  16.706   4.104  0.1331 -0.2083 -0.1972
 6431POPC   D2A77958  12.841  16.764   4.546 -0.1189  0.1263 -0.1611
 6431POPC   C3A77959  12.535  17.006   4.763 -0.1036  0.3821 -0.1812
 6431POPC   C4A77960  12.441  17.439   4.913 -0.1378 -0.1566  0.1756
 6431POPC   C1B77961  13.292  17.054   3.995 -0.0648 -0.4319  0.1570
 6431POPC   C2B77962  13.007  17.192   4.298  0.2542 -0.0069  0.1576
 6431POPC   C3B77963  12.753  17.544   4.425  0.0034 -0.0284  0.0744
 6431POPC   C4B77964  12.611  17.921   4.683  0.5203  0.2136 -0.1621
 6432POPC   NC377965  23.640  27.686   3.375  0.0078 -0.0444  0.2206
 6432POPC   PO477966  23.532  27.370   3.555  0.2153 -0.0291  0.2408
 6432POPC   GL177967  23.643  27.490   3.899  0.0390  0.4374 -0.0650
 6432POPC   GL277968  23.381  27.581   4.089  0.1983  0.3056  0.0465
 6432POPC   C1A77969  23.714  27.273   4.321 -0.1062 -0.0743 -0.1995
 6432POPC   D2A77970  23.989  27.159   4.675  0.0299 -0.0512  0.0340
 6432POPC   C3A77971  24.363  27.010   4.921  0.0113 -0.5045  0.5804
 6432POPC   C4A77972  24.542  27.175   5.305  0.0754  0.1174 -0.2707
 6432POPC   C1B77973  23.050  27.596   4.466 -0.0730 -0.3525 -0.0234
 6432POPC   C2B77974  22.911  27.694   4.855 -0.0125 -0.1153 -0.2738
 6432POPC   C3B77975  22.984  27.736   5.305  0.0027 -0.2242  0.3069
 6432POPC   C4B77976  23.265  27.844   5.630 -0.1155 -0.0671  0.0338
 6433POPC   NC377977   9.725  25.378   3.414  0.1632 -0.0040  0.1633
 6433POPC   PO477978   9.879  25.126   3.677 -0.0584 -0.3032  0.3181
 6433POPC   GL177979   9.692  25.270   3.942  0.3356 -0.3111 -0.1309
 6433POPC   GL277980   9.810  25.332   4.236 -0.0820 -0.0438  0.0513
 6433POPC   C1A77981   9.317  25.335   4.185 -0.0381  0.0443  0.1638
 6433POPC   D2A77982   9.012  25.552   4.540 -0.2326  0.2032  0.0888
 6433POPC   C3A77983   9.181  25.491   4.968 -0.4613 -0.2431  0.0716
 6433POPC   C4A77984   9.051  25.251   5.337  0.1501  0.1657 -0.0901
 6433POPC   C1B77985   9.579  25.269   4.660 -0.0996 -0.0665 -0.2384
 6433POPC   C2B77986   9.490  25.160   5.086  0.1417  0.1927 -0.0285
 6433POPC   C3B77987   9.457  24.895   5.465 -0.1746  0.0487  0.1864
 6433POPC   C4B77988   9.626  24.508   5.663 -0.0908 -0.1560  0.0690
 6434POPC   NC377989  15.996  23.967   3.628  0.1462 -0.1682 -0.3601
 6434POPC   PO477990  15.719  24.247   3.583  0.0135 -0.0878 -0.0798
 6434POPC   GL177991  15.914  24.293   3.958 -0.0676  0.0071 -0.0075
 6434POPC   GL277992  15.684  24.177   4.138  0.1877  0.1578 -0.2176
 6434POPC   C1A77993  16.229  24.020   4.221  0.1435  0.0731  0.1424
 6434POPC   D2A77994  16.476  23.694   4.379 -0.0232 -0.0784 -0.1146
 6434POPC   C3A77995  16.461  23.666   4.825 -0.4356  0.1357 -0.2119
 6434POPC   C4A77996  16.280  23.943   5.194  0.0321  0.1452  0.1669
 6434POPC   C1B77997  15.535  24.221   4.589 -0.2138  0.0571  0.0925
 6434POPC   C2B77998  15.532  24.493   4.964 -0.2205  0.3045  0.0137
 6434POPC   C3B77999  15.444  24.433   5.428  0.1764  0.1440 -0.1656
 6434POPC   C4B78000  15.461  24.019   5.685  0.0492 -0.1876 -0.2082
 6435POPC   NC378001   9.782   5.195   3.364 -0.0264 -0.2310 -0.1034
 6435POPC   PO478002  10.111   5.180   3.261  0.3424  0.1847  0.4547
 6435POPC   GL178003  10.153   5.124   3.696 -0.1875 -0.0222  0.0987
 6435POPC   GL278004  10.414   5.171   3.834 -0.2112  0.2093 -0.3126
 6435POPC   C1A78005   9.865   5.336   3.985 -0.1159  0.0296  0.0960
 6435POPC   D2A78006   9.465   5.530   4.089 -0.0637 -0.2135 -0.1717
 6435POPC   C3A78007   9.443   5.511   4.546  0.0530 -0.1270 -0.2312
 6435POPC   C4A78008   9.649   5.555   4.957  0.2900 -0.0196 -0.1752
 6435POPC   C1B78009  10.080   4.912   4.057  0.1171  0.0357 -0.2408
 6435POPC   C2B78010   9.943   4.810   4.503 -0.3287 -0.5069 -0.2846
 6435POPC   C3B78011  10.134   4.817   4.951 -0.1395  0.1971  0.3924
 6435POPC   C4B78012  10.118   4.857   5.403 -0.4336  0.0369  0.1569
 6436POPC   NC378013  18.822  22.230   3.981 -0.1672  0.0249 -0.1157
 6436POPC   PO478014  19.131  22.447   3.978  0.0100  0.0971 -0.1312
 6436POPC   GL178015  19.077  22.496   4.364 -0.0755 -0.1642 -0.2838
 6436POPC   GL278016  18.821  22.339   4.451 -0.3266  0.0743 -0.2352
 6436POPC   C1A78017  19.028  22.656   4.823 -0.0439 -0.0996  0.0989
 6436POPC   D2A78018  19.038  22.945   5.193  0.0274 -0.0881  0.0576
 6436POPC   C3A78019  18.925  22.751   5.596 -0.0923  0.1267 -0.1046
 6436POPC   C4A78020  18.561  22.776   5.853 -0.0962  0.0376  0.1684
 6436POPC   C1B78021  18.575  22.522   4.789 -0.1477  0.1466 -0.1131
 6436POPC   C2B78022  18.613  22.710   5.244 -0.2664 -0.0236  0.2749
 6436POPC   C3B78023  18.620  23.148   5.430 -0.1068  0.0091 -0.0462
 6436POPC   C4B78024  18.595  23.557   5.565 -0.2496  0.0181  0.0845
 6437POPC   NC378025  10.917  15.640   3.804  0.2548  0.0383  0.2644
 6437POPC   PO478026  10.586  15.453   3.664 -0.0570 -0.2015  0.1267
 6437POPC   GL178027  10.566  15.389   4.027 -0.0877  0.0318 -0.4889
 6437POPC   GL278028  10.759  15.176   4.139 -0.1920  0.0174 -0.3567
 6437POPC   C1A78029  10.381  15.383   4.468 -0.2718  0.2318 -0.1880
 6437POPC   D2A78030  10.409  15.382   4.946  0.0827 -0.1323 -0.0598
 6437POPC   C3A78031  10.777  15.225   5.069  0.0668 -0.0221  0.2521
 6437POPC   C4A78032  11.081  14.985   5.267  0.1579  0.3855 -0.2009
 6437POPC   C1B78033  11.112  14.890   4.271 -0.0001  0.0580  0.0775
 6437POPC   C2B78034  11.210  14.705   4.655 -0.1810 -0.1666 -0.0246
 6437POPC   C3B78035  11.418  14.722   5.022  0.2500  0.0065  0.2234
 6437POPC   C4B78036  11.845  14.712   5.251 -0.2627 -0.1294  0.0642
 6438POPC   NC378037  18.814   0.811   3.529  0.2011  0.2809  0.0387
 6438POPC   PO478038  19.168   0.979   3.576 -0.1153  0.2145  0.2268
 6438POPC   GL178039  19.088   0.682   3.886 -0.0704  0.1671  0.1088
 6438POPC   GL278040  19.288   0.567   3.906 -0.1306 -0.0116  0.0102
 6438POPC   C1A78041  18.975   0.653   4.365 -0.2537 -0.2600 -0.0254
 6438POPC   D2A78042  18.902   0.469   4.776  0.2758 -0.0281 -0.0576
 6438POPC   C3A78043  18.729   0.496   5.180 -0.0280 -0.0398 -0.1567
 6438POPC   C4A78044  18.849   0.256   5.554 -0.0588 -0.2664  0.1914
 6438POPC   C1B78045  19.377   0.450   4.350  0.3706  0.0609  0.0390
 6438POPC   C2B78046  19.587   0.593   4.715  0.2591 -0.3487  0.1806
 6438POPC   C3B78047  19.669   0.805   5.124 -0.0123  0.0279  0.3051
 6438POPC   C4B78048  19.552   1.103   5.482  0.0076  0.1409 -0.1041
 6439POPC   NC378049  27.056  29.338   3.326  0.0523 -0.1205 -0.2717
 6439POPC   PO478050  26.712  29.374   3.496 -0.0361  0.1329 -0.2851
 6439POPC   GL178051  26.745  29.468   3.861 -0.1939  0.2372  0.0678
 6439POPC   GL278052  26.414  29.393   3.986  0.2500  0.0825  0.0860
 6439POPC   C1A78053  27.037  29.461   4.261  0.0901 -0.1526  0.0521
 6439POPC   D2A78054  27.387  29.292   4.428 -0.1379 -0.2504  0.0475
 6439POPC   C3A78055  27.574  29.437   4.795 -0.0124 -0.2140 -0.2533
 6439POPC   C4A78056  27.624  29.698   5.218 -0.0928  0.0346 -0.2872
 6439POPC   C1B78057  26.584  29.557   4.352  0.1298 -0.0090 -0.1701
 6439POPC   C2B78058  26.871  29.820   4.584 -0.2259 -0.0652 -0.2819
 6439POPC   C3B78059  27.092  29.960   4.938  0.1585  0.0289 -0.2137
 6439POPC   C4B78060  27.220  30.159   5.381  0.1970 -0.0556 -0.2349
 6440POPC   NC378061  22.673   2.340   3.824  0.1126  0.0602  0.0555
 6440POPC   PO478062  22.649   2.600   3.504 -0.1265 -0.1913  0.1082
 6440POPC   GL178063  22.269   2.565   3.703  0.1813  0.1441  0.1567
 6440POPC   GL278064  22.158   2.331   3.761 -0.1084  0.1894 -0.1014
 6440POPC   C1A78065  22.061   2.594   4.127  0.1242 -0.4046 -0.0360
 6440POPC   D2A78066  21.933   2.421   4.535 -0.0529  0.0560 -0.0455
 6440POPC   C3A78067  22.030   2.547   4.959  0.2988  0.1370  0.2583
 6440POPC   C4A78068  22.070   2.586   5.504  0.0022 -0.0562 -0.3717
 6440POPC   C1B78069  21.915   2.150   4.095  0.0587 -0.3478 -0.3919
 6440POPC   C2B78070  21.667   1.911   4.407 -0.0344 -0.0424  0.0227
 6440POPC   C3B78071  21.693   1.663   4.839 -0.1187 -0.3324  0.1837
 6440POPC   C4B78072  21.873   1.341   5.101 -0.3479  0.1303 -0.0891
 6441POPC   NC378073  23.768  11.334   3.325 -0.0474  0.2929 -0.0523
 6441POPC   PO478074  24.101  11.336   3.526 -0.0260 -0.1683 -0.0001
 6441POPC   GL178075  24.206  11.287   3.894  0.0821  0.1341 -0.2513
 6441POPC   GL278076  24.312  11.047   3.985  0.3002  0.1916  0.2083
 6441POPC   C1A78077  24.314  11.484   4.265  0.1384 -0.1315  0.1958
 6441POPC   D2A78078  24.321  11.631   4.701  0.1181  0.1368 -0.0728
 6441POPC   C3A78079  24.461  11.635   5.151 -0.0182  0.1337 -0.3812
 6441POPC   C4A78080  24.338  11.462   5.530 -0.1811 -0.1042 -0.0418
 6441POPC   C1B78081  24.281  11.036   4.454  0.1367 -0.3910 -0.1490
 6441POPC   C2B78082  24.480  10.776   4.788 -0.0366  0.2152 -0.4974
 6441POPC   C3B78083  24.646  10.652   5.216 -0.1102 -0.2636 -0.0632
 6441POPC   C4B78084  24.416  10.899   5.566 -0.0082  0.1581 -0.0261
 6442POPC   NC378085   6.457  24.034   4.083 -0.2904 -0.0109  0.3359
 6442POPC   PO478086   6.276  23.765   3.919  0.3320 -0.3323 -0.0716
 6442POPC   GL178087   6.215  23.437   4.345 -0.2016  0.1959 -0.2292
 6442POPC   GL278088   6.346  23.543   4.577 -0.2901  0.1471 -0.0410
 6442POPC   C1A78089   5.946  23.222   4.667  0.0673 -0.0955 -0.2084
 6442POPC   D2A78090   5.891  23.276   5.117  0.0725 -0.0958  0.4116
 6442POPC   C3A78091   5.947  23.107   5.565 -0.1843 -0.1944  0.0706
 6442POPC   C4A78092   6.033  22.695   5.817 -0.2675 -0.1204  0.0974
 6442POPC   C1B78093   6.381  23.511   4.998  0.2616 -0.1138 -0.1085
 6442POPC   C2B78094   6.197  23.519   5.416 -0.0157 -0.0924  0.0999
 6442POPC   C3B78095   5.840  23.557   5.675  0.1174  0.1909 -0.1050
 6442POPC   C4B78096   5.580  23.869   5.891  0.1652 -0.2850 -0.2538
 6443POPC   NC378097  18.219  12.160   3.433 -0.2027  0.1190 -0.1109
 6443POPC   PO478098  18.297  12.525   3.571  0.2081 -0.1140  0.1389
 6443POPC   GL178099  18.279  12.589   3.919  0.1983  0.0633 -0.0562
 6443POPC   GL278100  18.510  12.773   3.997 -0.1800  0.1558 -0.0111
 6443POPC   C1A78101  18.292  12.426   4.311 -0.3973  0.0054  0.2985
 6443POPC   D2A78102  18.233  12.340   4.758 -0.0123  0.2254 -0.0411
 6443POPC   C3A78103  17.934  12.003   4.934  0.2572  0.2685  0.0864
 6443POPC   C4A78104  17.465  11.876   4.905 -0.1676  0.2924 -0.1992
 6443POPC   C1B78105  18.622  12.733   4.502 -0.0947  0.4080  0.0375
 6443POPC   C2B78106  18.637  12.731   4.968  0.0200  0.3688 -0.2685
 6443POPC   C3B78107  18.797  12.764   5.409 -0.0867 -0.4533 -0.2400
 6443POPC   C4B78108  18.758  12.879   5.870  0.5247 -0.0980 -0.0163
 6444POPC   NC378109  29.393  21.825   3.801 -0.0150  0.0741 -0.1466
 6444POPC   PO478110  29.773  21.735   3.726  0.3866 -0.4144 -0.1072
 6444POPC   GL178111  29.739  21.700   4.184  0.2039 -0.1602  0.6119
 6444POPC   GL278112  29.938  21.502   4.238 -0.1305 -0.0487  0.0112
 6444POPC   C1A78113  29.531  21.902   4.578  0.1262 -0.0151 -0.1706
 6444POPC   D2A78114  29.491  22.233   4.872 -0.0975 -0.1754 -0.0233
 6444POPC   C3A78115  29.739  22.080   5.218  0.1083 -0.1093 -0.1572
 6444POPC   C4A78116  29.696  21.859   5.559 -0.3177 -0.0528  0.0149
 6444POPC   C1B78117  29.711  21.306   4.624  0.0941 -0.3037  0.0956
 6444POPC   C2B78118  29.511  21.273   5.050  0.3376  0.1247  0.3319
 6444POPC   C3B78119  29.278  21.058   5.372 -0.1902  0.0921  0.3667
 6444POPC   C4B78120  29.127  21.073   5.820  0.2375  0.2788  0.0438
 6445POPC   NC378121  23.816  15.550   4.045  0.2105  0.0786  0.1500
 6445POPC   PO478122  23.629  15.808   4.252  0.1826 -0.0150 -0.0593
 6445POPC   GL178123  23.333  15.538   4.433 -0.3345 -0.0354 -0.2514
 6445POPC   GL278124  23.287  15.653   4.632  0.0440  0.1055 -0.1615
 6445POPC   C1A78125  23.682  15.320   4.694  0.2305  0.2174 -0.0072
 6445POPC   D2A78126  23.725  15.159   5.153 -0.0367 -0.0653  0.0795
 6445POPC   C3A78127  23.823  14.725   5.266 -0.3905  0.0216  0.1381
 6445POPC   C4A78128  23.733  14.298   5.473 -0.0516 -0.2821  0.1674
 6445POPC   C1B78129  23.461  15.574   5.042  0.1150  0.2546  0.0186
 6445POPC   C2B78130  23.629  15.653   5.487  0.0082 -0.0692  0.1594
 6445POPC   C3B78131  23.623  15.505   5.900  0.1406 -0.0015 -0.0453
 6445POPC   C4B78132  23.397  15.189   6.113  0.1900 -0.1535 -0.0014
 6446POPC   NC378133  28.158  16.726   2.954 -0.0754 -0.0976 -0.1187
 6446POPC   PO478134  28.256  16.590   3.308  0.1462 -0.3036  0.3308
 6446POPC   GL178135  28.359  16.613   3.676 -0.0261  0.1212  0.0207
 6446POPC   GL278136  28.603  16.780   3.646  0.1063  0.0960  0.1766
 6446POPC   C1A78137  28.189  16.558   4.130  0.0604  0.0377  0.0389
 6446POPC   D2A78138  27.953  16.622   4.514  0.0667  0.1466 -0.0238
 6446POPC   C3A78139  27.917  16.550   4.948 -0.1094 -0.0989  0.2168
 6446POPC   C4A78140  27.738  16.546   5.338  0.0002 -0.1468  0.0908
 6446POPC   C1B78141  28.682  16.485   4.012 -0.1949 -0.1124  0.1315
 6446POPC   C2B78142  28.491  16.291   4.390 -0.0704  0.2014 -0.2139
 6446POPC   C3B78143  28.612  16.393   4.759  0.1082  0.0900 -0.0890
 6446POPC   C4B78144  28.704  16.684   5.116 -0.0326  0.1400 -0.1230
 6447POPC   NC378145  16.470  14.082   3.475  0.1467  0.0139 -0.1774
 6447POPC   PO478146  16.390  14.387   3.662 -0.1175  0.0290 -0.1075
 6447POPC   GL178147  16.467  14.356   4.041 -0.0504  0.2305 -0.0287
 6447POPC   GL278148  16.582  14.566   4.164 -0.0905  0.1800  0.3656
 6447POPC   C1A78149  16.718  14.106   4.327 -0.0534  0.0023 -0.0425
 6447POPC   D2A78150  16.877  13.918   4.711  0.1916 -0.0703  0.0496
 6447POPC   C3A78151  16.954  13.651   5.071  0.0394  0.0410  0.2489
 6447POPC   C4A78152  16.966  13.281   5.349 -0.4606 -0.0845 -0.1539
 6447POPC   C1B78153  16.443  14.467   4.615  0.1102 -0.0905  0.5194
 6447POPC   C2B78154  16.628  14.307   4.978  0.0552 -0.2191 -0.0336
 6447POPC   C3B78155  17.001  14.340   5.312  0.0676 -0.0669 -0.3040
 6447POPC   C4B78156  17.113  14.628   5.703 -0.0625  0.0658 -0.1907
 6448POPC   NC378157  22.691  15.140   3.870  0.0805 -0.5229  0.0452
 6448POPC   PO478158  22.361  15.102   3.726  0.0166 -0.1701  0.1166
 6448POPC   GL178159  22.006  15.259   3.770 -0.1482 -0.1661  0.0734
 6448POPC   GL278160  21.995  15.130   4.048 -0.0917  0.4191 -0.0479
 6448POPC   C1A78161  21.708  15.116   3.475  0.1085 -0.1029 -0.2623
 6448POPC   D2A78162  21.433  15.092   3.096 -0.0358  0.0188 -0.0935
 6448POPC   C3A78163  21.007  15.161   3.219 -0.2916 -0.1392 -0.3279
 6448POPC   C4A78164  20.671  14.946   3.259 -0.0910  0.1585 -0.0369
 6448POPC   C1B78165  21.655  15.126   4.393  0.0593  0.0030 -0.1308
 6448POPC   C2B78166  21.287  14.878   4.579 -0.3561 -0.0180  0.2372
 6448POPC   C3B78167  21.114  14.529   4.771 -0.1590 -0.0971  0.2492
 6448POPC   C4B78168  20.746  14.566   5.012 -0.2500  0.1999  0.1450
 6449POPC   NC378169  20.018   4.436   3.410  0.0101  0.3228 -0.1264
 6449POPC   PO478170  20.148   4.184   3.708 -0.1456  0.0493 -0.0189
 6449POPC   GL178171  20.187   4.227   4.116 -0.1362 -0.2268 -0.3637
 6449POPC   GL278172  20.364   4.419   4.210  0.0339  0.2889  0.1955
 6449POPC   C1A78173  19.812   4.418   4.310 -0.3812  0.1694  0.1960
 6449POPC   D2A78174  19.758   4.672   4.698  0.3326 -0.0424  0.0395
 6449POPC   C3A78175  19.709   4.440   5.059 -0.1102 -0.1754 -0.0220
 6449POPC   C4A78176  19.562   4.092   5.250  0.2248 -0.2838 -0.3777
 6449POPC   C1B78177  20.322   4.225   4.637 -0.1235  0.0707  0.3076
 6449POPC   C2B78178  20.394   3.926   5.022  0.1719 -0.3639 -0.0097
 6449POPC   C3B78179  20.042   3.779   5.331  0.2155 -0.1145  0.4051
 6449POPC   C4B78180  19.804   3.892   5.749  0.1940 -0.0505 -0.2230
 6450POPC   NC378181  20.413   9.414   4.280  0.0460  0.0309 -0.0274
 6450POPC   PO478182  20.278   9.549   3.920  0.2424  0.1846  0.0512
 6450POPC   GL178183  19.955   9.676   4.167 -0.5043  0.6603 -0.2105
 6450POPC   GL278184  19.900   9.386   4.183  0.0999 -0.1205 -0.2682
 6450POPC   C1A78185  20.028   9.736   4.578  0.1259  0.0341  0.0839
 6450POPC   D2A78186  20.011  10.066   4.924 -0.2515 -0.1396 -0.0801
 6450POPC   C3A78187  20.223  10.241   5.304 -0.2981  0.0483 -0.1183
 6450POPC   C4A78188  20.066  10.323   5.734  0.2546 -0.1861  0.1783
 6450POPC   C1B78189  19.707   9.236   4.513 -0.0469  0.0547  0.0460
 6450POPC   C2B78190  19.417   9.157   4.903 -0.0167  0.2297  0.1579
 6450POPC   C3B78191  19.169   8.980   5.243  0.2410 -0.3607 -0.2314
 6450POPC   C4B78192  19.131   8.692   5.572  0.1248  0.0980 -0.3493
 6451POPC   NC378193   6.925   7.487   3.991  0.1039  0.0012  0.1145
 6451POPC   PO478194   6.571   7.359   3.989 -0.0621  0.1673  0.1500
 6451POPC   GL178195   6.640   7.251   4.367  0.2697  0.1252 -0.3103
 6451POPC   GL278196   6.852   7.336   4.554  0.2213  0.0108  0.1405
 6451POPC   C1A78197   6.499   7.124   4.846 -0.1088 -0.0609  0.1102
 6451POPC   D2A78198   6.477   7.217   5.344  0.0186 -0.1413 -0.0957
 6451POPC   C3A78199   6.289   7.369   5.749 -0.3966 -0.0028 -0.0374
 6451POPC   C4A78200   6.085   7.479   6.111 -0.0517  0.0887 -0.2320
 6451POPC   C1B78201   6.793   7.495   5.035  0.2688 -0.1109 -0.2311
 6451POPC   C2B78202   6.755   7.711   5.406  0.0864 -0.0469 -0.0547
 6451POPC   C3B78203   6.594   8.129   5.627  0.0919 -0.1846  0.0579
 6451POPC   C4B78204   6.665   8.568   5.826 -0.3146  0.0751 -0.0598
 6452POPC   NC378205  18.767  14.351   3.053  0.0144 -0.1074  0.1749
 6452POPC   PO478206  19.053  14.625   3.102  0.1782 -0.4753 -0.1495
 6452POPC   GL178207  19.253  14.267   3.142  0.2209 -0.2859 -0.1601
 6452POPC   GL278208  19.196  14.150   3.401 -0.0634  0.3063 -0.1409
 6452POPC   C1A78209  19.624  13.996   3.200  0.1838 -0.4200  0.5378
 6452POPC   D2A78210  20.007  14.089   3.406  0.0101  0.0832  0.0207
 6452POPC   C3A78211  20.026  14.449   3.695  0.4759 -0.0104  0.0187
 6452POPC   C4A78212  20.013  14.653   4.123 -0.1425  0.1937  0.0887
 6452POPC   C1B78213  19.598  14.206   3.648  0.0928  0.2162  0.0100
 6452POPC   C2B78214  19.760  14.201   4.060 -0.0074 -0.1669  0.0607
 6452POPC   C3B78215  20.105  14.194   4.365  0.0530  0.0047 -0.2792
 6452POPC   C4B78216  20.505  14.288   4.614  0.1423  0.0302  0.4230
 6453POPC   NC378217  24.623   8.687   3.922  0.0028  0.0814  0.2779
 6453POPC   PO478218  24.814   8.383   4.072 -0.1581 -0.1610  0.1381
 6453POPC   GL178219  24.769   8.330   4.506 -0.0511  0.1436 -0.2872
 6453POPC   GL278220  24.797   8.629   4.566  0.1511 -0.1940  0.2147
 6453POPC   C1A78221  24.992   8.328   4.908 -0.2500 -0.1735 -0.1920
 6453POPC   D2A78222  25.438   8.314   5.172 -0.1899  0.1308  0.0163
 6453POPC   C3A78223  25.584   8.344   5.674  0.2699  0.0429 -0.2483
 6453POPC   C4A78224  25.751   8.497   6.081  0.1044 -0.1779 -0.1618
 6453POPC   C1B78225  24.657   8.751   4.940 -0.1193 -0.0261  0.1412
 6453POPC   C2B78226  24.748   8.864   5.394 -0.2344  0.2288  0.2280
 6453POPC   C3B78227  24.458   8.978   5.757 -0.0522 -0.1463 -0.1298
 6453POPC   C4B78228  24.226   9.131   6.134  0.1532  0.0872  0.2084
 6454POPC   NC378229  14.793  29.872   3.154  0.4506  0.0364 -0.0905
 6454POPC   PO478230  14.825  29.486   3.326 -0.1362 -0.2603  0.1722
 6454POPC   GL178231  15.012  29.584   3.660  0.4853 -0.1071  0.0052
 6454POPC   GL278232  15.317  29.551   3.589  0.1941 -0.3045  0.0977
 6454POPC   C1A78233  14.888  29.822   3.993 -0.2390 -0.1541 -0.4191
 6454POPC   D2A78234  15.081  29.962   4.449  0.0754 -0.0590 -0.2734
 6454POPC   C3A78235  14.814  29.898   4.736  0.1359 -0.2211 -0.0638
 6454POPC   C4A78236  14.475  29.784   5.078 -0.0628  0.0725  0.0001
 6454POPC   C1B78237  15.326  29.555   4.098 -0.1026  0.2814  0.1498
 6454POPC   C2B78238  15.482  29.565   4.538  0.4649 -0.1011  0.0681
 6454POPC   C3B78239  15.529  29.749   4.953 -0.2689  0.1966 -0.1015
 6454POPC   C4B78240  15.870  29.573   5.263 -0.2508  0.3327  0.0438
 6455POPC   NC378241  10.405  27.541   3.364  0.1779  0.0122 -0.2222
 6455POPC   PO478242  10.557  27.209   3.389  0.2293 -0.3093 -0.0020
 6455POPC   GL178243  10.288  27.170   3.675  0.2174 -0.1696  0.0362
 6455POPC   GL278244   9.973  27.198   3.780 -0.0530 -0.3252 -0.0380
 6455POPC   C1A78245  10.371  26.908   4.031 -0.2118  0.1148  0.1828
 6455POPC   D2A78246  10.097  26.584   4.286 -0.5290 -0.3111  0.0841
 6455POPC   C3A78247  10.077  26.531   4.772  0.0209 -0.0421  0.1012
 6455POPC   C4A78248   9.941  26.604   5.236 -0.0979  0.4212  0.1865
 6455POPC   C1B78249  10.062  27.148   4.257 -0.1305 -0.2546 -0.0568
 6455POPC   C2B78250  10.194  27.414   4.590  0.0328  0.2925 -0.3249
 6455POPC   C3B78251  10.233  27.552   5.021  0.0074  0.2782 -0.0212
 6455POPC   C4B78252  10.377  27.446   5.476  0.1689  0.2708  0.0867
 6456POPC   NC378253   0.971   5.911   3.465  0.1036 -0.0209  0.3392
 6456POPC   PO478254   0.774   5.599   3.554  0.0537  0.1589  0.2935
 6456POPC   GL178255   0.812   5.772   3.925  0.1164  0.2419 -0.0600
 6456POPC   GL278256   0.619   5.991   3.919  0.0668 -0.0909 -0.2404
 6456POPC   C1A78257   0.882   6.099   4.291 -0.2068 -0.3440  0.0885
 6456POPC   D2A78258   0.703   6.344   4.611  0.0825  0.1091  0.3763
 6456POPC   C3A78259   0.816   6.517   5.007  0.0515  0.1578  0.2394
 6456POPC   C4A78260   0.792   6.483   5.463 -0.2712 -0.4259 -0.3738
 6456POPC   C1B78261   0.586   5.736   4.333  0.1643  0.1859  0.1498
 6456POPC   C2B78262   0.665   5.734   4.794 -0.0559 -0.1664 -0.1229
 6456POPC   C3B78263   0.585   6.094   5.042 -0.0909  0.0248  0.2334
 6456POPC   C4B78264   0.421   6.085   5.461 -0.2648  0.0378  0.1638
 6457POPC   NC378265  28.505  13.901   3.190 -0.2182  0.0222 -0.2133
 6457POPC   PO478266  28.571  14.103   3.514  0.0840  0.2871 -0.2891
 6457POPC   GL178267  28.593  14.359   3.827  0.1739 -0.0955 -0.2459
 6457POPC   GL278268  28.453  14.175   4.022  0.2025 -0.0239  0.2394
 6457POPC   C1A78269  28.723  14.524   4.272 -0.1754 -0.0426 -0.1016
 6457POPC   D2A78270  28.750  14.528   4.764  0.4698 -0.3375 -0.0575
 6457POPC   C3A78271  28.553  14.323   5.119 -0.1330 -0.1868  0.0110
 6457POPC   C4A78272  28.274  14.570   5.474  0.0023 -0.2344  0.0653
 6457POPC   C1B78273  28.747  14.000   4.357 -0.1824  0.1827  0.0187
 6457POPC   C2B78274  28.820  14.061   4.789  0.0003  0.0178  0.0985
 6457POPC   C3B78275  29.042  14.260   5.206 -0.2933 -0.2227  0.2090
 6457POPC   C4B78276  29.144  14.142   5.674  0.1851 -0.1165 -0.0122
 6458POPC   NC378277  11.252  20.955   3.310  0.2409  0.0305  0.1674
 6458POPC   PO478278  11.138  20.719   3.576  0.2598  0.0868 -0.1337
 6458POPC   GL178279  11.438  20.530   3.757  0.1911  0.1079  0.0741
 6458POPC   GL278280  11.559  20.521   4.021  0.1112 -0.0127 -0.3820
 6458POPC   C1A78281  11.463  20.079   3.843  0.2921  0.1493  0.2120
 6458POPC   D2A78282  11.621  19.797   3.552  0.1255 -0.1177  0.0162
 6458POPC   C3A78283  11.850  19.435   3.672 -0.1627 -0.0387 -0.1170
 6458POPC   C4A78284  12.206  19.252   3.819 -0.0619 -0.0745 -0.1264
 6458POPC   C1B78285  11.396  20.237   4.374  0.0982  0.0340 -0.0388
 6458POPC   C2B78286  11.100  20.096   4.699  0.1036 -0.0329  0.1099
 6458POPC   C3B78287  10.953  19.797   5.061 -0.2562 -0.2428 -0.2964
 6458POPC   C4B78288  10.936  19.657   5.493 -0.2416 -0.1123 -0.1262
 6459POPC   NC378289   0.238  30.510   3.856  0.1066  0.1508  0.3158
 6459POPC   PO478290   0.414  30.178   3.686 -0.1661  0.1529  0.1482
 6459POPC   GL178291   0.334  30.052   4.021  0.1961  0.3042  0.3684
 6459POPC   GL278292   0.244  30.161   4.263  0.1995  0.0940  0.1816
 6459POPC   C1A78293   0.520  29.809   4.344 -0.0474 -0.0969 -0.1607
 6459POPC   D2A78294   0.413  29.714   4.777  0.3993 -0.1497  0.0245
 6459POPC   C3A78295   0.404  30.031   5.150  0.0816 -0.0030 -0.2005
 6459POPC   C4A78296   0.374  30.361   5.480 -0.3711  0.0094  0.2750
 6459POPC   C1B78297   0.430  30.262   4.649 -0.5612 -0.1034  0.2333
 6459POPC   C2B78298   0.543  30.473   5.008 -0.0402  0.2996 -0.1326
 6459POPC   C3B78299   0.658  30.778   5.256 -0.1034 -0.1700  0.1811
 6459POPC   C4B78300   0.582  31.043   5.621  0.1714  0.0194 -0.0717
 6460POPC   NC378301  19.652  21.688   3.632  0.0833  0.6579  0.1499
 6460POPC   PO478302  19.984  21.486   3.754 -0.2034 -0.0579 -0.1242
 6460POPC   GL178303  20.160  21.436   4.155 -0.1307  0.1495  0.2889
 6460POPC   GL278304  19.923  21.364   4.407 -0.2073  0.3101  0.0769
 6460POPC   C1A78305  20.448  21.367   4.474 -0.0482 -0.0055 -0.2365
 6460POPC   D2A78306  20.885  21.218   4.617 -0.6694 -0.0205 -0.0459
 6460POPC   C3A78307  20.942  21.291   5.086 -0.0490  0.1411 -0.1313
 6460POPC   C4A78308  20.932  21.647   5.352  0.0863 -0.0936  0.1063
 6460POPC   C1B78309  19.976  21.626   4.792  0.1288  0.0516 -0.1749
 6460POPC   C2B78310  20.008  21.716   5.205  0.0452 -0.0922 -0.1097
 6460POPC   C3B78311  20.113  22.070   5.526  0.1152 -0.0970  0.1600
 6460POPC   C4B78312  20.373  22.457   5.694 -0.1261  0.2091  0.0630
 6461POPC   NC378313  10.436  15.923   3.139  0.3184  0.2288  0.1663
 6461POPC   PO478314  10.387  15.903   3.564 -0.0651  0.1113  0.2145
 6461POPC   GL178315  10.497  15.996   3.996  0.0674  0.1386  0.0696
 6461POPC   GL278316  10.691  16.051   4.048 -0.1001 -0.3650  0.1779
 6461POPC   C1A78317  10.314  15.837   4.385 -0.3421 -0.0113  0.2221
 6461POPC   D2A78318  10.017  15.564   4.692  0.0923 -0.0365  0.0138
 6461POPC   C3A78319   9.932  15.493   5.150 -0.0396  0.0387 -0.0219
 6461POPC   C4A78320   9.681  15.321   5.499 -0.2047 -0.2290  0.1798
 6461POPC   C1B78321  10.811  15.726   4.311 -0.0025 -0.0332  0.0890
 6461POPC   C2B78322  10.848  15.651   4.754  0.4054 -0.1694  0.1299
 6461POPC   C3B78323  10.880  15.798   5.166  0.0450 -0.1185 -0.0669
 6461POPC   C4B78324  11.093  15.939   5.565  0.1048 -0.1603 -0.2087
 6462POPC   NC378325  19.128   8.501   3.783 -0.1073 -0.1403  0.2389
 6462POPC   PO478326  19.181   8.847   4.028  0.0340 -0.0011  0.0512
 6462POPC   GL178327  19.034   8.672   4.406  0.0413  0.1919  0.1751
 6462POPC   GL278328  18.891   8.503   4.289 -0.1301  0.3344 -0.0772
 6462POPC   C1A78329  18.984   8.884   4.814  0.0209  0.3274  0.0305
 6462POPC   D2A78330  18.666   9.074   5.072 -0.2616 -0.1433 -0.0532
 6462POPC   C3A78331  18.743   9.117   5.535  0.0004  0.2883 -0.1180
 6462POPC   C4A78332  18.852   9.110   6.017 -0.1633  0.0682 -0.1171
 6462POPC   C1B78333  18.787   8.159   4.572  0.2313  0.0777 -0.0576
 6462POPC   C2B78334  18.822   8.084   5.032 -0.1161  0.0223  0.1132
 6462POPC   C3B78335  19.001   7.906   5.429  0.1394 -0.2519 -0.1456
 6462POPC   C4B78336  18.987   7.849   5.890 -0.1710 -0.1390  0.0779
 6463POPC   NC378337  28.999  14.297   3.637 -0.0095 -0.2863  0.0200
 6463POPC   PO478338  29.330  14.407   3.836 -0.1469  0.0655  0.0341
 6463POPC   GL178339  29.387  14.436   4.183 -0.3462  0.0029 -0.0776
 6463POPC   GL278340  29.167  14.329   4.316  0.0505 -0.2412 -0.4396
 6463POPC   C1A78341  29.374  14.788   4.503  0.0647  0.0452 -0.0357
 6463POPC   D2A78342  29.680  14.822   4.805  0.1028  0.1039 -0.4520
 6463POPC   C3A78343  29.546  14.935   5.244 -0.0818  0.0884 -0.0458
 6463POPC   C4A78344  29.356  15.097   5.620 -0.2097 -0.2292 -0.2777
 6463POPC   C1B78345  29.308  14.154   4.731 -0.3858 -0.0286  0.2059
 6463POPC   C2B78346  29.536  14.027   5.107  0.4018 -0.3572 -0.3687
 6463POPC   C3B78347  29.519  13.870   5.564  0.0419  0.1662  0.0735
 6463POPC   C4B78348  29.734  14.034   5.925 -0.1166  0.2012 -0.1965
 6464POPC   NC378349  10.995   5.755   3.469 -0.0951 -0.3168 -0.0468
 6464POPC   PO478350  10.809   5.719   3.819 -0.0386  0.2864 -0.1190
 6464POPC   GL178351  11.034   5.750   4.122 -0.1730  0.1248  0.3907
 6464POPC   GL278352  10.946   5.917   4.356  0.1593 -0.0442  0.3891
 6464POPC   C1A78353  11.360   5.595   4.471 -0.0605 -0.0860 -0.1050
 6464POPC   D2A78354  11.316   5.529   4.923  0.0617 -0.1862 -0.0651
 6464POPC   C3A78355  11.189   5.703   5.290  0.1249 -0.1486 -0.0770
 6464POPC   C4A78356  10.994   5.771   5.725  0.0465 -0.0718  0.1932
 6464POPC   C1B78357  11.229   6.012   4.674 -0.2086  0.2408 -0.0660
 6464POPC   C2B78358  11.470   6.098   5.063  0.0278  0.3961 -0.2191
 6464POPC   C3B78359  11.499   6.328   5.503  0.2290 -0.1001 -0.2507
 6464POPC   C4B78360  11.756   6.505   5.789 -0.0419  0.0268  0.2198
 6465POPC   NC378361   3.665   6.438   3.839  0.1073  0.0455 -0.1994
 6465POPC   PO478362   3.868   6.149   3.668  0.2141 -0.2530  0.0824
 6465POPC   GL178363   4.135   6.193   3.905  0.2631  0.1241 -0.2464
 6465POPC   GL278364   4.052   6.408   4.142  0.1502  0.2093  0.0739
 6465POPC   C1A78365   4.173   5.952   4.305  0.0655  0.1556  0.1441
 6465POPC   D2A78366   3.951   5.884   4.728 -0.2774  0.1098 -0.3462
 6465POPC   C3A78367   4.052   5.907   5.210  0.0936 -0.2383  0.2028
 6465POPC   C4A78368   4.126   5.940   5.686 -0.0576 -0.2195 -0.3301
 6465POPC   C1B78369   4.163   6.422   4.625 -0.1250 -0.1584  0.0922
 6465POPC   C2B78370   4.195   6.376   5.087  0.0230 -0.1301  0.1306
 6465POPC   C3B78371   4.259   6.502   5.541  0.1339 -0.1815 -0.0057
 6465POPC   C4B78372   4.380   6.878   5.829 -0.2359 -0.4112 -0.1167
 6466POPC   NC378373  24.696  20.167   3.733 -0.0353  0.0255 -0.3258
 6466POPC   PO478374  24.289  20.156   3.818 -0.1856 -0.1478  0.0719
 6466POPC   GL178375  24.090  20.349   4.147  0.0331 -0.0619 -0.0044
 6466POPC   GL278376  24.058  20.625   4.245 -0.3546  0.0796  0.3421
 6466POPC   C1A78377  23.801  20.186   4.512  0.0632  0.1211  0.2116
 6466POPC   D2A78378  23.688  20.044   4.945  0.2637 -0.0781  0.0221
 6466POPC   C3A78379  23.304  19.863   5.180 -0.1839  0.1559  0.1642
 6466POPC   C4A78380  23.190  19.825   5.606  0.0119 -0.3827 -0.0472
 6466POPC   C1B78381  24.522  20.504   4.329 -0.0742  0.5443 -0.0088
 6466POPC   C2B78382  24.854  20.581   4.636 -0.1320  0.1779  0.2629
 6466POPC   C3B78383  24.941  20.816   4.985 -0.1624 -0.0873  0.0214
 6466POPC   C4B78384  25.048  20.548   5.331 -0.0504 -0.0473 -0.1276
 6467POPC   NC378385  21.631  28.505   3.693 -0.0282  0.1483  0.2364
 6467POPC   PO478386  21.844  28.811   3.663 -0.0091  0.0142  0.2666
 6467POPC   GL178387  21.867  28.844   3.971 -0.2659 -0.2208  0.1936
 6467POPC   GL278388  21.602  28.882   4.099  0.0191  0.1874 -0.3124
 6467POPC   C1A78389  21.980  29.280   4.101  0.1074  0.3277  0.1748
 6467POPC   D2A78390  22.270  29.290   4.514  0.1184 -0.2185  0.2529
 6467POPC   C3A78391  22.281  29.156   4.961 -0.1153  0.1112 -0.1461
 6467POPC   C4A78392  22.516  29.173   5.323  0.5397 -0.5019 -0.1391
 6467POPC   C1B78393  21.845  28.865   4.497  0.2837  0.2554 -0.0703
 6467POPC   C2B78394  22.028  28.638   4.881  0.0866 -0.5534 -0.0063
 6467POPC   C3B78395  22.270  28.765   5.270  0.0065  0.0171  0.3120
 6467POPC   C4B78396  22.505  28.756   5.704  0.0167 -0.0873 -0.1940
 6468POPC   NC378397   9.446  13.755   3.471  0.4107  0.0238  0.0683
 6468POPC   PO478398   9.331  13.550   3.767  0.3851 -0.0767 -0.0412
 6468POPC   GL178399   9.507  13.294   4.128 -0.0954 -0.2795 -0.2535
 6468POPC   GL278400   9.223  13.290   4.161 -0.1726  0.1220  0.1019
 6468POPC   C1A78401   9.363  13.414   4.619 -0.0378  0.0747  0.0078
 6468POPC   D2A78402   9.367  13.442   5.055  0.1470  0.1172 -0.3208
 6468POPC   C3A78403   9.038  13.445   5.377  0.0229 -0.1037  0.2818
 6468POPC   C4A78404   8.968  13.381   5.870 -0.1384  0.1941  0.1480
 6468POPC   C1B78405   8.922  13.566   4.322 -0.1141 -0.0846  0.0497
 6468POPC   C2B78406   8.557  13.653   4.640  0.0867  0.1575 -0.0536
 6468POPC   C3B78407   8.579  13.595   5.123  0.1103  0.0470  0.2338
 6468POPC   C4B78408   8.597  13.507   5.578 -0.1853  0.3383 -0.0520
 6469POPC   NC378409   2.867  26.153   3.576  0.0177 -0.0510  0.2388
 6469POPC   PO478410   2.471  26.283   3.523 -0.0177 -0.3332  0.2441
 6469POPC   GL178411   2.387  26.266   3.911 -0.2192 -0.0184 -0.1919
 6469POPC   GL278412   2.585  26.342   4.043  0.0481 -0.0543 -0.0341
 6469POPC   C1A78413   1.987  26.241   4.132  0.1226 -0.0760  0.1062
 6469POPC   D2A78414   1.952  26.245   4.573  0.3156 -0.0432 -0.0713
 6469POPC   C3A78415   1.779  26.536   4.915 -0.2699  0.0308  0.0303
 6469POPC   C4A78416   1.881  26.915   5.120 -0.2984 -0.0449 -0.1831
 6469POPC   C1B78417   2.776  26.314   4.465 -0.1289 -0.0844 -0.4341
 6469POPC   C2B78418   2.866  26.417   4.911 -0.3298  0.2099 -0.1253
 6469POPC   C3B78419   2.633  26.309   5.277 -0.1847  0.2161  0.0435
 6469POPC   C4B78420   2.624  26.247   5.776 -0.0567 -0.0513 -0.0040
 6470POPC   NC378421  23.396  11.115   3.603  0.0787 -0.2164  0.0562
 6470POPC   PO478422  23.081  11.006   3.423  0.1347 -0.1136  0.1423
 6470POPC   GL178423  22.776  11.020   3.618 -0.2059  0.3744 -0.2851
 6470POPC   GL278424  22.883  11.163   3.871 -0.2278  0.1424  0.1586
 6470POPC   C1A78425  22.577  10.691   3.903  0.0929  0.0777  0.1097
 6470POPC   D2A78426  22.275  10.533   4.217 -0.0089  0.2602  0.0877
 6470POPC   C3A78427  22.495  10.435   4.622  0.0265  0.1765  0.2512
 6470POPC   C4A78428  22.773  10.643   4.999 -0.0385 -0.1555 -0.1536
 6470POPC   C1B78429  22.719  11.429   4.235  0.1645 -0.0523  0.0658
 6470POPC   C2B78430  22.685  11.421   4.667 -0.1672 -0.1869 -0.3398
 6470POPC   C3B78431  22.818  11.218   5.079  0.4092  0.1818  0.2702
 6470POPC   C4B78432  23.130  10.962   5.323 -0.1348  0.2091 -0.1225
 6471POPC   NC378433  15.957   3.771   2.947 -0.2461 -0.0131 -0.3224
 6471POPC   PO478434  15.666   3.927   3.181 -0.0097  0.0153 -0.0539
 6471POPC   GL178435  15.962   4.083   3.471  0.2510  0.1111 -0.0179
 6471POPC   GL278436  16.201   4.103   3.200  0.3194 -0.0155 -0.2709
 6471POPC   C1A78437  16.083   4.168   3.910  0.0340 -0.1288 -0.2451
 6471POPC   D2A78438  16.371   4.346   4.241 -0.4138  0.2203  0.0211
 6471POPC   C3A78439  16.731   4.515   3.980 -0.3085 -0.2282  0.1836
 6471POPC   C4A78440  16.805   4.817   3.644  0.1883  0.2460  0.0160
 6471POPC   C1B78441  16.512   4.039   2.855  0.1307  0.0569  0.1428
 6471POPC   C2B78442  16.957   3.946   2.746 -0.3715 -0.0325  0.0244
 6471POPC   C3B78443  17.312   4.226   2.741  0.2812 -0.0068  0.0303
 6471POPC   C4B78444  17.269   4.710   2.774 -0.0977 -0.1090  0.1547
 6472POPC   NC378445   5.508  31.493   3.902 -0.4648  0.0410  0.1219
 6472POPC   PO478446   5.886  31.549   3.789  0.1330  0.0675 -0.4954
 6472POPC   GL178447   6.284  31.499   4.082  0.0283 -0.3037 -0.0622
 6472POPC   GL278448   6.190  31.263   4.066  0.3428 -0.3063 -0.0939
 6472POPC   C1A78449   6.258  31.529   4.529  0.3029  0.3000  0.1626
 6472POPC   D2A78450   6.239  31.207   4.772  0.0087  0.1594 -0.1173
 6472POPC   C3A78451   6.483  31.210   5.160  0.0413 -0.3062  0.0200
 6472POPC   C4A78452   6.763  31.349   5.509  0.0209  0.2504  0.0938
 6472POPC   C1B78453   6.154  30.922   4.405 -0.3269  0.2889  0.2600
 6472POPC   C2B78454   6.379  30.720   4.730  0.0909  0.1507  0.2769
 6472POPC   C3B78455   6.492  30.552   5.134  0.1412  0.0164 -0.2248
 6472POPC   C4B78456   6.542  30.086   5.312 -0.0157 -0.2587  0.0780
 6473POPC   NC378457  29.958  31.489   3.858 -0.2547 -0.3126 -0.1527
 6473POPC   PO478458  30.335  31.560   3.736 -0.3055  0.2035  0.2046
 6473POPC   GL178459  30.331  31.550   4.212 -0.0156 -0.0278  0.1539
 6473POPC   GL278460  30.045  31.668   4.364 -0.0221  0.0651 -0.0622
 6473POPC   C1A78461  30.608  31.775   4.479  0.0775 -0.0093 -0.0120
 6473POPC   D2A78462  30.615  31.778   4.976  0.0876  0.1213  0.0516
 6473POPC   C3A78463  30.298  31.497   5.220  0.2933  0.1230 -0.2958
 6473POPC   C4A78464  29.963  31.416   5.543  0.1529  0.1930  0.1853
 6473POPC   C1B78465  30.119  31.589   4.804  0.0357 -0.0436 -0.0308
 6473POPC   C2B78466  30.051  31.904   5.191  0.4122 -0.0893 -0.2114
 6473POPC   C3B78467  30.175  31.925   5.647  0.0153 -0.0131  0.2210
 6473POPC   C4B78468  30.486  31.594   5.840 -0.0942 -0.0996  0.1040
 6474POPC   NC378469  11.201   2.683   3.439 -0.1003  0.0784  0.0072
 6474POPC   PO478470  10.813   2.783   3.443  0.1141 -0.1651 -0.1361
 6474POPC   GL178471  10.978   2.875   3.872 -0.2473  0.0561 -0.2872
 6474POPC   GL278472  11.187   2.684   3.997  0.0527 -0.0503 -0.1737
 6474POPC   C1A78473  10.885   2.925   4.347 -0.1167 -0.0143 -0.1224
 6474POPC   D2A78474  11.023   3.238   4.627  0.0230  0.2505 -0.1720
 6474POPC   C3A78475  10.823   3.210   5.075  0.0420  0.1747  0.0959
 6474POPC   C4A78476  10.823   3.491   5.446  0.4699  0.3336 -0.2381
 6474POPC   C1B78477  11.276   2.702   4.456  0.0446 -0.0458  0.1248
 6474POPC   C2B78478  11.307   2.856   4.882 -0.1926 -0.3126  0.0253
 6474POPC   C3B78479  11.268   3.045   5.289 -0.1444 -0.1539 -0.0850
 6474POPC   C4B78480  10.965   3.064   5.709  0.0424 -0.3318  0.3464
 6475POPC   NC378481  30.615  17.228   3.794 -0.2248 -0.0734 -0.1936
 6475POPC   PO478482  30.717  16.877   3.719 -0.0940  0.0368  0.3003
 6475POPC   GL178483  30.567  16.859   4.073  0.5999 -0.1501 -0.1978
 6475POPC   GL278484  30.415  16.659   4.202 -0.1003  0.0655 -0.0428
 6475POPC   C1A78485  30.516  17.078   4.527 -0.1115 -0.0529  0.0313
 6475POPC   D2A78486  30.441  17.056   4.968 -0.0842 -0.3048 -0.1296
 6475POPC   C3A78487  30.227  17.437   5.225 -0.1243 -0.4110  0.2533
 6475POPC   C4A78488  30.381  17.699   5.646 -0.1377  0.1030 -0.1789
 6475POPC   C1B78489  30.500  16.634   4.654  0.3749 -0.0218  0.1887
 6475POPC   C2B78490  30.210  16.601   5.002  0.0150  0.1313  0.0860
 6475POPC   C3B78491  30.150  16.515   5.507 -0.0508 -0.0944 -0.0599
 6475POPC   C4B78492  30.331  16.707   5.924 -0.3085  0.0602  0.4562
 6476POPC   NC378493  17.560  19.238   4.140  0.1882 -0.0078 -0.0203
 6476POPC   PO478494  17.687  18.935   3.945 -0.2408  0.0341 -0.1885
 6476POPC   GL178495  17.968  18.812   4.233 -0.4028 -0.0030 -0.0394
 6476POPC   GL278496  17.829  18.878   4.439 -0.1612  0.0810  0.1363
 6476POPC   C1A78497  18.323  18.677   4.584  0.1990 -0.1035  0.3162
 6476POPC   D2A78498  18.762  18.538   4.771 -0.0194  0.2430  0.0907
 6476POPC   C3A78499  18.724  18.282   5.156 -0.0222  0.2945 -0.0126
 6476POPC   C4A78500  18.350  18.139   5.337 -0.4571 -0.4021 -0.2165
 6476POPC   C1B78501  17.840  18.679   4.842 -0.1935 -0.1756 -0.1492
 6476POPC   C2B78502  17.817  18.378   5.202 -0.1286  0.1250  0.0457
 6476POPC   C3B78503  17.863  18.243   5.634  0.1626 -0.1809  0.2173
 6476POPC   C4B78504  17.949  18.388   6.046  0.1419 -0.3791 -0.2309
 6477POPC   NC378505  13.945  13.797   3.253 -0.0032  0.2770  0.0413
 6477POPC   PO478506  13.990  13.432   3.412  0.0115  0.1819 -0.2305
 6477POPC   GL178507  14.066  13.530   3.697 -0.2820  0.3087 -0.1031
 6477POPC   GL278508  13.988  13.299   3.920  0.0400 -0.1389  0.0083
 6477POPC   C1A78509  13.975  13.711   4.164  0.1365 -0.2474  0.3229
 6477POPC   D2A78510  13.729  13.790   4.545  0.1497  0.2651 -0.1789
 6477POPC   C3A78511  13.597  13.936   5.035 -0.2400  0.1515 -0.3401
 6477POPC   C4A78512  13.490  14.291   5.341 -0.1985 -0.1134  0.0842
 6477POPC   C1B78513  14.356  13.313   4.152 -0.0412  0.1259 -0.1406
 6477POPC   C2B78514  14.353  13.161   4.570  0.0301  0.2743 -0.1545
 6477POPC   C3B78515  14.330  13.189   5.041  0.1246  0.3064 -0.2510
 6477POPC   C4B78516  14.230  13.238   5.484 -0.1426 -0.1789 -0.0876
 6478POPC   NC378517  28.008   5.812   3.744  0.2364  0.1280  0.1084
 6478POPC   PO478518  28.160   5.503   3.578  0.0402 -0.0377  0.2249
 6478POPC   GL178519  28.055   5.310   3.895  0.1635 -0.1475 -0.0233
 6478POPC   GL278520  27.798   5.386   4.033 -0.1331 -0.0263  0.3809
 6478POPC   C1A78521  28.238   5.466   4.313 -0.3491 -0.1586  0.1069
 6478POPC   D2A78522  28.226   5.563   4.833 -0.0130  0.3183 -0.1125
 6478POPC   C3A78523  28.254   5.799   5.247  0.2212 -0.2863  0.2508
 6478POPC   C4A78524  28.422   6.002   5.629  0.0032 -0.0075  0.2195
 6478POPC   C1B78525  27.809   5.399   4.517  0.0156 -0.1305 -0.1990
 6478POPC   C2B78526  27.780   5.398   4.931  0.4913 -0.2467 -0.2176
 6478POPC   C3B78527  27.838   5.451   5.384 -0.0064 -0.2152 -0.0411
 6478POPC   C4B78528  27.668   5.511   5.809 -0.1248  0.1068  0.0196
 6479POPC   NC378529  31.616  20.801   3.729  0.1124 -0.1803  0.1023
 6479POPC   PO478530  31.826  20.512   3.901  0.0695  0.1005 -0.1543
 6479POPC   GL178531  31.875  20.555   4.334  0.3377  0.2969  0.0868
 6479POPC   GL278532  31.750  20.289   4.458  0.0500 -0.2333 -0.1447
 6479POPC   C1A78533  31.529  20.791   4.581  0.0022  0.1212 -0.0603
 6479POPC   D2A78534  31.531  20.881   5.059 -0.1104  0.1165 -0.1693
 6479POPC   C3A78535  31.894  20.935   5.368 -0.1014 -0.0281  0.3394
 6479POPC   C4A78536  32.106  21.142   5.683  0.6278  0.0934 -0.2564
 6479POPC   C1B78537  31.979  20.496   4.823  0.2272  0.1577  0.0195
 6479POPC   C2B78538  32.243  20.469   5.202  0.0062  0.0894  0.0022
 6479POPC   C3B78539  32.351  20.650   5.628 -0.2618 -0.0731 -0.0303
 6479POPC   C4B78540  32.622  20.663   6.026 -0.2898  0.1244  0.1820
 6480POPC   NC378541  23.507   7.720   3.368 -0.2413 -0.1416 -0.0864
 6480POPC   PO478542  23.197   7.639   3.555  0.2908  0.0066  0.1914
 6480POPC   GL178543  23.066   7.546   3.911  0.2062 -0.0401  0.0782
 6480POPC   GL278544  23.223   7.755   4.078 -0.0547 -0.2536 -0.3608
 6480POPC   C1A78545  22.899   7.269   4.240 -0.0924 -0.0868 -0.0118
 6480POPC   D2A78546  22.678   7.464   4.627  0.1621 -0.1557 -0.0624
 6480POPC   C3A78547  22.806   7.838   4.882 -0.0498  0.1210  0.2844
 6480POPC   C4A78548  22.933   8.251   5.046  0.1577  0.1131  0.0655
 6480POPC   C1B78549  23.182   7.551   4.490 -0.2434 -0.1136  0.2491
 6480POPC   C2B78550  23.347   7.556   4.938 -0.1803  0.1331  0.2520
 6480POPC   C3B78551  23.429   7.300   5.273  0.1733 -0.0547 -0.0183
 6480POPC   C4B78552  23.591   6.964   5.603  0.2887  0.1806 -0.1038
 6481POPC   NC378553   2.480   5.832   3.556 -0.1743  0.0967 -0.1931
 6481POPC   PO478554   2.463   5.605   3.871  0.1493  0.1936  0.0543
 6481POPC   GL178555   2.291   5.546   4.226  0.3017  0.0935  0.4940
 6481POPC   GL278556   2.303   5.313   4.288  0.0435  0.0648  0.0109
 6481POPC   C1A78557   2.303   5.772   4.652 -0.3462  0.4460 -0.2258
 6481POPC   D2A78558   2.322   6.153   4.904  0.3331 -0.0523  0.3220
 6481POPC   C3A78559   2.061   6.125   5.351 -0.3644  0.0763 -0.3232
 6481POPC   C4A78560   1.842   6.202   5.759 -0.0088  0.0308 -0.2455
 6481POPC   C1B78561   2.387   5.277   4.695 -0.1136 -0.2482 -0.2729
 6481POPC   C2B78562   2.185   5.225   5.101  0.1983 -0.1964  0.2601
 6481POPC   C3B78563   2.209   5.250   5.545 -0.2739 -0.0836 -0.1163
 6481POPC   C4B78564   2.029   5.268   5.998  0.2459 -0.1575  0.1810
 6482POPC   NC378565   8.351  20.303   3.266  0.0847 -0.0459 -0.2106
 6482POPC   PO478566   8.123  20.159   3.574 -0.1477  0.1303 -0.1535
 6482POPC   GL178567   8.247  20.110   3.959  0.1909  0.2113  0.0448
 6482POPC   GL278568   8.000  20.295   4.062 -0.0812  0.1164 -0.1093
 6482POPC   C1A78569   8.102  19.844   4.319 -0.0230 -0.0165 -0.1387
 6482POPC   D2A78570   8.289  19.782   4.705 -0.2255 -0.4476  0.0791
 6482POPC   C3A78571   8.545  19.757   5.062  0.1209  0.0752 -0.0812
 6482POPC   C4A78572   8.521  19.899   5.496  0.0899 -0.0467  0.4099
 6482POPC   C1B78573   7.846  20.276   4.479  0.0901 -0.1381  0.1236
 6482POPC   C2B78574   7.870  20.179   4.916  0.1243  0.1941 -0.5277
 6482POPC   C3B78575   8.049  19.909   5.234  0.1398  0.0972 -0.1290
 6482POPC   C4B78576   8.215  19.488   5.302 -0.3774 -0.0494  0.0401
 6483POPC   NC378577  20.017   3.685   3.703 -0.0134 -0.2574 -0.0190
 6483POPC   PO478578  19.798   3.914   3.506 -0.0333  0.0627  0.0875
 6483POPC   GL178579  19.747   4.173   3.909 -0.1405  0.2438 -0.1056
 6483POPC   GL278580  19.822   3.935   4.066 -0.0346 -0.1177  0.1376
 6483POPC   C1A78581  19.350   4.264   4.163  0.0252  0.1500  0.1552
 6483POPC   D2A78582  19.306   4.449   4.571 -0.2365  0.2630 -0.0702
 6483POPC   C3A78583  19.143   4.373   4.961  0.0783 -0.1923  0.0291
 6483POPC   C4A78584  18.874   4.563   5.296  0.0670  0.2896 -0.2158
 6483POPC   C1B78585  19.552   3.860   4.396 -0.1074  0.2210  0.2040
 6483POPC   C2B78586  19.514   3.736   4.839  0.0390  0.3497 -0.3113
 6483POPC   C3B78587  19.612   3.576   5.229 -0.0575 -0.0195 -0.1277
 6483POPC   C4B78588  19.422   3.205   5.470 -0.1676  0.0048  0.2686
 6484POPC   NC378589   8.690   3.953   3.218 -0.1327 -0.0114  0.1165
 6484POPC   PO478590   8.580   3.553   3.262  0.0037 -0.2624  0.0094
 6484POPC   GL178591   8.364   3.630   3.566 -0.2250  0.3252  0.1517
 6484POPC   GL278592   8.300   3.916   3.547 -0.0015  0.3664 -0.3688
 6484POPC   C1A78593   8.486   3.662   4.011  0.2700 -0.2994 -0.3361
 6484POPC   D2A78594   8.205   3.710   4.367  0.3602 -0.0545 -0.3378
 6484POPC   C3A78595   8.124   3.773   4.812 -0.1866 -0.1067  0.0974
 6484POPC   C4A78596   8.304   3.817   5.222  0.1598 -0.1811 -0.1610
 6484POPC   C1B78597   8.035   3.963   3.935  0.0350  0.1708  0.0305
 6484POPC   C2B78598   7.732   3.749   4.141  0.2353 -0.1878  0.0634
 6484POPC   C3B78599   7.463   3.498   4.416 -0.2226 -0.0025  0.1678
 6484POPC   C4B78600   7.185   3.189   4.661 -0.0543  0.0206 -0.0696
 6485POPC   NC378601  26.704  25.519   3.704 -0.1351  0.1389 -0.0098
 6485POPC   PO478602  26.817  25.141   3.571 -0.1708  0.1147  0.2380
 6485POPC   GL178603  26.839  25.204   3.995  0.3533 -0.2705  0.1820
 6485POPC   GL278604  26.561  25.226   4.076  0.0291 -0.2615  0.1272
 6485POPC   C1A78605  27.003  25.347   4.386  0.2910 -0.1907 -0.4273
 6485POPC   D2A78606  26.893  25.101   4.778 -0.0438  0.1855 -0.0015
 6485POPC   C3A78607  26.499  25.185   5.033 -0.1745  0.1538 -0.3269
 6485POPC   C4A78608  26.541  25.362   5.491 -0.1089 -0.0399  0.1006
 6485POPC   C1B78609  26.419  25.275   4.528  0.1803 -0.3939  0.1602
 6485POPC   C2B78610  26.058  25.312   4.826  0.1707  0.2321  0.1510
 6485POPC   C3B78611  25.710  25.371   4.570 -0.1221  0.0512  0.1528
 6485POPC   C4B78612  25.270  25.552   4.485 -0.1466 -0.1747  0.2603
 6486POPC   NC378613  30.166   3.185   2.744  0.4253 -0.0750  0.0075
 6486POPC   PO478614  29.991   3.146   3.131 -0.1795  0.2504  0.1096
 6486POPC   GL178615  30.053   3.294   3.526 -0.0804  0.2674  0.0855
 6486POPC   GL278616  29.801   3.498   3.635  0.2142 -0.0986  0.2502
 6486POPC   C1A78617  29.900   3.145   3.963  0.2128  0.2644 -0.1159
 6486POPC   D2A78618  29.652   3.392   4.237 -0.2611 -0.1556 -0.2461
 6486POPC   C3A78619  29.692   3.507   4.702 -0.1841  0.0385 -0.0194
 6486POPC   C4A78620  29.764   3.682   5.159  0.0086  0.2853 -0.1478
 6486POPC   C1B78621  29.846   3.875   3.926  0.0243  0.1451 -0.4186
 6486POPC   C2B78622  29.716   4.210   4.151 -0.2298 -0.0015 -0.1245
 6486POPC   C3B78623  29.670   4.492   4.568 -0.1270  0.2237  0.3845
 6486POPC   C4B78624  29.844   4.588   4.968  0.0118 -0.0854  0.3699
 6487POPC   NC378625   1.924  14.937   3.304  0.0536  0.1464  0.1875
 6487POPC   PO478626   1.814  14.734   3.670 -0.1937  0.2236  0.1237
 6487POPC   GL178627   1.956  14.866   3.948  0.0721 -0.0069 -0.1594
 6487POPC   GL278628   2.167  15.087   3.940  0.1092  0.2147 -0.1294
 6487POPC   C1A78629   2.077  15.003   4.397 -0.0178  0.0564 -0.0793
 6487POPC   D2A78630   2.019  14.939   4.838 -0.1505 -0.0174  0.1277
 6487POPC   C3A78631   2.269  14.868   5.245 -0.2089 -0.0281 -0.0226
 6487POPC   C4A78632   2.067  14.716   5.641  0.0176  0.0318 -0.1228
 6487POPC   C1B78633   1.852  15.338   4.138  0.3222 -0.2250  0.0621
 6487POPC   C2B78634   1.657  15.258   4.567 -0.1091  0.1598  0.0860
 6487POPC   C3B78635   1.646  15.617   4.838  0.0120 -0.1192  0.0391
 6487POPC   C4B78636   1.969  15.835   5.100 -0.1911 -0.0122 -0.2005
 6488POPC   NC378637  10.615   0.957   4.090 -0.2577  0.0781  0.0502
 6488POPC   PO478638  10.334   0.713   4.000  0.1270  0.0644 -0.3030
 6488POPC   GL178639  10.102   0.590   4.392 -0.0026  0.4583  0.1119
 6488POPC   GL278640  10.259   0.805   4.484 -0.0993 -0.0495  0.1549
 6488POPC   C1A78641   9.944   0.378   4.757 -0.2313 -0.0395  0.0376
 6488POPC   D2A78642   9.577   0.286   5.019 -0.0837 -0.2784 -0.0248
 6488POPC   C3A78643   9.381   0.099   5.410 -0.3385  0.1677 -0.0060
 6488POPC   C4A78644   9.043   0.252   5.691  0.1517  0.1547 -0.0378
 6488POPC   C1B78645  10.221   0.786   4.906 -0.0051 -0.2310 -0.3119
 6488POPC   C2B78646  10.068   0.572   5.330  0.4284 -0.0105  0.1927
 6488POPC   C3B78647  10.203   0.253   5.578 -0.0625  0.0755  0.1408
 6488POPC   C4B78648  10.201  -0.135   5.879 -0.1741  0.0247  0.0144
 6489POPC   NC378649  10.098  29.819   3.723  0.2213  0.4460  0.2486
 6489POPC   PO478650  10.242  29.472   3.812 -0.2470 -0.2438  0.1841
 6489POPC   GL178651  10.264  29.497   4.101 -0.1249 -0.2479  0.2847
 6489POPC   GL278652  10.296  29.192   4.222  0.4784 -0.2745 -0.1331
 6489POPC   C1A78653  10.293  29.504   4.577 -0.2111  0.2681 -0.2136
 6489POPC   D2A78654  10.299  29.678   4.973 -0.2931  0.0019 -0.0667
 6489POPC   C3A78655   9.969  29.607   5.281 -0.3590  0.0759 -0.1363
 6489POPC   C4A78656   9.535  29.427   5.159  0.0729  0.0315  0.2198
 6489POPC   C1B78657  10.128  28.951   4.586  0.0504  0.3907 -0.0149
 6489POPC   C2B78658   9.720  28.952   4.774  0.3468  0.0573  0.1925
 6489POPC   C3B78659   9.463  28.893   5.110 -0.0126 -0.0410 -0.0766
 6489POPC   C4B78660   9.444  28.939   5.587  0.2029  0.2282  0.0468
 6490POPC   NC378661  14.874  27.718   3.473 -0.0449 -0.1688 -0.0649
 6490POPC   PO478662  15.235  27.594   3.596 -0.1923 -0.3638  0.1548
 6490POPC   GL178663  15.197  27.650   3.889 -0.0066 -0.2696  0.3084
 6490POPC   GL278664  15.208  27.973   3.983  0.0039  0.0794 -0.0372
 6490POPC   C1A78665  15.039  27.630   4.320  0.0007 -0.0810  0.2611
 6490POPC   D2A78666  14.846  27.943   4.632  0.0314  0.2185  0.1703
 6490POPC   C3A78667  14.953  27.986   5.131  0.1111  0.1993  0.2160
 6490POPC   C4A78668  15.113  27.979   5.595  0.3484  0.1437  0.0717
 6490POPC   C1B78669  15.322  28.087   4.368 -0.0430  0.4404  0.3398
 6490POPC   C2B78670  15.338  27.928   4.800 -0.2215  0.2105 -0.1908
 6490POPC   C3B78671  15.437  27.857   5.201 -0.1119  0.1906 -0.1625
 6490POPC   C4B78672  15.527  27.452   5.438 -0.0058  0.1503  0.0023
 6491POPC   NC378673   7.909  31.127   3.773 -0.1938  0.0655  0.0973
 6491POPC   PO478674   7.751  31.512   3.724  0.2969  0.3015  0.3057
 6491POPC   GL178675   7.580  31.334   4.054 -0.0734 -0.0788  0.0005
 6491POPC   GL278676   7.661  31.573   4.202 -0.0610  0.1414 -0.2777
 6491POPC   C1A78677   7.136  31.267   4.253 -0.0577 -0.4596  0.0714
 6491POPC   D2A78678   7.045  30.824   4.396 -0.1460 -0.0684 -0.1130
 6491POPC   C3A78679   6.863  30.620   4.764 -0.5297 -0.0213 -0.1399
 6491POPC   C4A78680   6.932  30.291   5.070 -0.0894  0.0039 -0.1105
 6491POPC   C1B78681   7.626  31.578   4.677 -0.0275  0.3277  0.3711
 6491POPC   C2B78682   7.518  31.470   5.096 -0.1975  0.3114  0.0074
 6491POPC   C3B78683   7.200  31.215   5.413 -0.1112  0.1333  0.1526
 6491POPC   C4B78684   7.014  30.875   5.709 -0.1983  0.1503  0.0411
 6492POPC   NC378685  26.807  25.992   3.575  0.1312  0.4837 -0.3366
 6492POPC   PO478686  26.896  26.349   3.499  0.0381  0.0395 -0.4209
 6492POPC   GL178687  27.037  26.384   3.868 -0.1371  0.1223 -0.1777
 6492POPC   GL278688  27.242  26.458   4.075 -0.2154 -0.1717  0.0063
 6492POPC   C1A78689  26.745  26.612   4.149  0.2322 -0.0822 -0.4147
 6492POPC   D2A78690  26.716  26.770   4.562  0.1985 -0.0474 -0.2157
 6492POPC   C3A78691  26.645  26.667   5.085 -0.2051  0.1130  0.2177
 6492POPC   C4A78692  26.328  26.608   5.396  0.2544  0.0963  0.0907
 6492POPC   C1B78693  27.205  26.388   4.524  0.2018 -0.1297  0.0275
 6492POPC   C2B78694  27.260  26.559   4.914 -0.2945 -0.1739 -0.0440
 6492POPC   C3B78695  27.126  26.728   5.334 -0.1091 -0.1229  0.1427
 6492POPC   C4B78696  26.741  26.878   5.561 -0.0573  0.3170  0.2389
 6493POPC   NC378697   5.043  27.752   3.544  0.4136 -0.4754 -0.0419
 6493POPC   PO478698   5.212  27.655   3.888 -0.0136  0.1726  0.0386
 6493POPC   GL178699   5.447  27.821   4.173  0.1099  0.3868 -0.2221
 6493POPC   GL278700   5.692  27.927   4.195  0.1380 -0.4039  0.0010
 6493POPC   C1A78701   5.404  27.756   4.656 -0.0964  0.3182  0.3632
 6493POPC   D2A78702   5.280  27.830   5.078  0.2754  0.0430  0.2772
 6493POPC   C3A78703   5.277  28.093   5.505  0.1026 -0.1158  0.0853
 6493POPC   C4A78704   5.154  27.941   5.963 -0.1161 -0.2308 -0.1465
 6493POPC   C1B78705   5.628  28.156   4.595  0.2787 -0.1551 -0.0537
 6493POPC   C2B78706   5.972  28.437   4.818  0.3068 -0.3507 -0.1812
 6493POPC   C3B78707   6.047  28.616   5.279 -0.1421  0.1468 -0.0635
 6493POPC   C4B78708   5.835  28.947   5.504 -0.3712 -0.1575 -0.0733
 6494POPC   NC378709   5.520  15.877   3.935 -0.3632 -0.0958 -0.0650
 6494POPC   PO478710   5.339  16.208   3.810  0.0146  0.0814 -0.0104
 6494POPC   GL178711   5.302  16.274   4.148  0.1464  0.0015  0.1042
 6494POPC   GL278712   5.593  16.256   4.251 -0.1341  0.2700 -0.4298
 6494POPC   C1A78713   5.187  16.067   4.535  0.2171  0.3770 -0.3258
 6494POPC   D2A78714   5.317  15.709   4.820 -0.0117 -0.0517 -0.0299
 6494POPC   C3A78715   5.677  15.845   5.139  0.1700 -0.3486 -0.0515
 6494POPC   C4A78716   5.679  16.125   5.516  0.2859 -0.2378 -0.0361
 6494POPC   C1B78717   5.631  16.100   4.713 -0.0091  0.2578 -0.1056
 6494POPC   C2B78718   6.033  16.063   4.928  0.1898  0.1934  0.2328
 6494POPC   C3B78719   6.189  15.969   5.336 -0.0592  0.4936  0.1353
 6494POPC   C4B78720   6.090  16.074   5.775 -0.1193  0.3487 -0.1531
 6495POPC   NC378721  15.917  16.932   3.608  0.0075  0.2819 -0.0638
 6495POPC   PO478722  16.006  16.575   3.747  0.0787  0.0062 -0.1789
 6495POPC   GL178723  16.029  16.820   4.138 -0.0696 -0.5297 -0.1533
 6495POPC   GL278724  16.023  16.627   4.299 -0.4161  0.0779  0.1375
 6495POPC   C1A78725  16.304  16.999   4.466  0.1524  0.0920  0.0469
 6495POPC   D2A78726  16.632  17.190   4.747 -0.1484  0.0539  0.2128
 6495POPC   C3A78727  16.596  17.279   5.191  0.3555 -0.1907 -0.1324
 6495POPC   C4A78728  16.799  17.427   5.570  0.0105 -0.2737 -0.0369
 6495POPC   C1B78729  16.214  16.310   4.545  0.1955 -0.0616 -0.3055
 6495POPC   C2B78730  16.058  15.941   4.830  0.0373 -0.2478  0.5440
 6495POPC   C3B78731  16.264  15.566   5.007 -0.0650 -0.0366 -0.0122
 6495POPC   C4B78732  16.469  15.386   5.375 -0.1692 -0.0927 -0.0385
 6496POPC   NC378733  21.185  25.624   4.000 -0.1226 -0.0648  0.0597
 6496POPC   PO478734  21.486  25.542   3.788 -0.0517 -0.1434 -0.0306
 6496POPC   GL178735  21.688  25.591   4.111 -0.2762  0.3240 -0.0059
 6496POPC   GL278736  21.513  25.403   4.345 -0.0039  0.0120 -0.1413
 6496POPC   C1A78737  21.698  25.817   4.528  0.0268 -0.1816 -0.1210
 6496POPC   D2A78738  21.860  25.681   4.968  0.0119 -0.0435 -0.1451
 6496POPC   C3A78739  21.631  25.418   5.298  0.1636 -0.0594 -0.1545
 6496POPC   C4A78740  21.357  25.432   5.658  0.3902  0.0915  0.1694
 6496POPC   C1B78741  21.447  25.267   4.738  0.3456 -0.0164 -0.3578
 6496POPC   C2B78742  21.245  25.161   5.156  0.1563 -0.0031  0.2639
 6496POPC   C3B78743  21.144  24.889   5.503 -0.1250 -0.0305  0.1022
 6496POPC   C4B78744  21.156  24.578   5.898  0.3781  0.0171 -0.0119
 6497POPC   NC378745  25.682   4.326   3.638 -0.1531  0.0613  0.0264
 6497POPC   PO478746  25.401   4.357   3.903  0.2649  0.2354 -0.3471
 6497POPC   GL178747  25.339   4.235   4.297 -0.1232 -0.1131  0.2540
 6497POPC   GL278748  25.109   4.447   4.314  0.1372  0.1251 -0.1147
 6497POPC   C1A78749  25.098   4.037   4.649  0.0316  0.0076 -0.1901
 6497POPC   D2A78750  25.125   3.972   5.128 -0.3306  0.1139  0.0029
 6497POPC   C3A78751  25.061   4.324   5.419 -0.0062  0.1773 -0.1036
 6497POPC   C4A78752  25.404   4.537   5.628  0.0392 -0.0688 -0.3639
 6497POPC   C1B78753  25.377   4.467   4.671 -0.3105 -0.1863  0.0417
 6497POPC   C2B78754  25.379   4.616   5.103 -0.1602 -0.2441 -0.1444
 6497POPC   C3B78755  25.721   4.720   5.324 -0.1760  0.1217  0.0952
 6497POPC   C4B78756  25.985   4.585   5.686  0.2800  0.1952 -0.6068
 6498POPC   NC378757   9.762  24.804   4.036  0.0965 -0.3598  0.0785
 6498POPC   PO478758   9.651  24.610   3.709  0.0351  0.0462  0.2657
 6498POPC   GL178759   9.312  24.531   3.902 -0.1882  0.1805 -0.0314
 6498POPC   GL278760   9.266  24.911   3.884  0.2120  0.0481 -0.0311
 6498POPC   C1A78761   8.828  24.603   3.921  0.0556  0.1330  0.0374
 6498POPC   D2A78762   8.415  24.844   3.869  0.0621 -0.0754  0.0032
 6498POPC   C3A78763   8.360  25.182   4.165  0.1361  0.0475 -0.1957
 6498POPC   C4A78764   8.359  25.248   4.605  0.1387  0.0529  0.0927
 6498POPC   C1B78765   9.253  24.770   4.361 -0.1271  0.1739  0.1391
 6498POPC   C2B78766   9.091  25.031   4.766  0.0407 -0.1459  0.1424
 6498POPC   C3B78767   8.724  25.276   4.944  0.2439  0.0336 -0.2754
 6498POPC   C4B78768   8.458  25.099   5.288 -0.0770  0.1232  0.1363
 6499POPC   NC378769  24.143  26.178   3.684 -0.2749  0.1338 -0.2500
 6499POPC   PO478770  23.785  26.363   3.664  0.0085  0.1317 -0.1543
 6499POPC   GL178771  23.789  26.590   3.914 -0.0624 -0.5387 -0.3222
 6499POPC   GL278772  24.058  26.568   4.023 -0.1004 -0.0187 -0.2160
 6499POPC   C1A78773  23.739  26.718   4.373  0.3652 -0.2051 -0.1448
 6499POPC   D2A78774  23.671  26.834   4.806 -0.1485 -0.0520 -0.4875
 6499POPC   C3A78775  23.963  26.994   5.136  0.4096 -0.0791 -0.0709
 6499POPC   C4A78776  24.178  26.916   5.545  0.0044 -0.1564  0.0677
 6499POPC   C1B78777  23.980  26.239   4.329 -0.1817 -0.0709  0.0830
 6499POPC   C2B78778  23.946  25.934   4.705  0.2494 -0.0091 -0.0739
 6499POPC   C3B78779  23.810  26.061   5.150 -0.0940  0.0456  0.3924
 6499POPC   C4B78780  23.727  25.755   5.492 -0.0219 -0.4010  0.2286
 6500POPC   NC378781   1.201  27.596   4.253 -0.0574 -0.0486 -0.0900
 6500POPC   PO478782   1.011  27.574   3.922  0.0738 -0.1616 -0.0116
 6500POPC   GL178783   0.861  27.212   3.891  0.1895  0.3915  0.0435
 6500POPC   GL278784   1.044  27.078   4.042 -0.3159  0.1082  0.4434
 6500POPC   C1A78785   0.549  26.921   4.185 -0.0183 -0.0789  0.1072
 6500POPC   D2A78786   0.501  27.081   4.598  0.2076  0.1197  0.1903
 6500POPC   C3A78787   0.468  26.940   5.068 -0.0000 -0.2835  0.1883
 6500POPC   C4A78788   0.618  26.789   5.537  0.0049  0.1667 -0.0636
 6500POPC   C1B78789   1.005  27.104   4.487  0.2506 -0.0541  0.1283
 6500POPC   C2B78790   0.870  27.133   4.892  0.1689  0.1144 -0.1986
 6500POPC   C3B78791   1.037  27.056   5.318 -0.2887  0.0193  0.0800
 6500POPC   C4B78792   1.078  26.880   5.707 -0.3427 -0.4488  0.2868
 6501POPC   NC378793  21.847   7.992   3.806  0.3054 -0.1521 -0.2338
 6501POPC   PO478794  22.253   7.989   3.751 -0.0868  0.1749  0.0496
 6501POPC   GL178795  22.221   8.023   4.184 -0.1339  0.3837 -0.0886
 6501POPC   GL278796  22.031   8.170   4.245 -0.2061 -0.0032 -0.2091
 6501POPC   C1A78797  22.217   7.707   4.519 -0.1993  0.0430  0.2270
 6501POPC   D2A78798  22.221   7.502   4.916  0.1104 -0.0328  0.1579
 6501POPC   C3A78799  21.887   7.231   5.116  0.2336 -0.1001  0.1648
 6501POPC   C4A78800  21.983   6.885   5.380 -0.2054  0.0888 -0.2028
 6501POPC   C1B78801  21.932   8.202   4.681 -0.1952 -0.0161 -0.0534
 6501POPC   C2B78802  21.904   8.326   5.140  0.0960  0.1413  0.2372
 6501POPC   C3B78803  22.023   8.206   5.546 -0.0506  0.2482 -0.1235
 6501POPC   C4B78804  22.419   8.292   5.787 -0.0605 -0.4030 -0.2538
 6502POPC   NC378805  15.448  24.628   3.428  0.0249 -0.2592  0.0986
 6502POPC   PO478806  15.173  24.342   3.401  0.3463  0.2014 -0.0310
 6502POPC   GL178807  15.287  24.277   3.779  0.1004 -0.2246 -0.3558
 6502POPC   GL278808  15.281  24.527   3.948  0.0093  0.0312  0.1050
 6502POPC   C1A78809  15.061  24.198   4.234  0.0781  0.1763  0.1762
 6502POPC   D2A78810  15.022  24.303   4.689  0.1824  0.0127 -0.0725
 6502POPC   C3A78811  14.930  24.273   5.162  0.4443  0.0342 -0.2395
 6502POPC   C4A78812  14.978  24.473   5.561 -0.1610  0.0292  0.2407
 6502POPC   C1B78813  15.627  24.677   4.271  0.1769 -0.1567  0.1095
 6502POPC   C2B78814  15.986  24.515   4.419 -0.0809 -0.2136  0.0857
 6502POPC   C3B78815  16.061  24.272   4.796  0.1812  0.1743 -0.1507
 6502POPC   C4B78816  15.829  24.227   5.229 -0.0264  0.3044  0.0141
 6503POPC   NC378817  15.819  17.931   3.514  0.2561 -0.0981 -0.4075
 6503POPC   PO478818  15.849  17.516   3.614 -0.1741  0.3046  0.2026
 6503POPC   GL178819  15.843  17.747   3.946 -0.1136  0.1419  0.0756
 6503POPC   GL278820  15.551  17.863   3.989 -0.1261 -0.4049 -0.0038
 6503POPC   C1A78821  15.725  17.526   4.415  0.0086  0.0030  0.2115
 6503POPC   D2A78822  16.057  17.427   4.657 -0.1046  0.1228 -0.0423
 6503POPC   C3A78823  16.083  17.322   5.130  0.1271  0.1611 -0.0365
 6503POPC   C4A78824  16.125  17.353   5.634  0.1230  0.2692 -0.0822
 6503POPC   C1B78825  15.723  18.080   4.370  0.2150  0.0975 -0.1447
 6503POPC   C2B78826  15.612  18.283   4.801 -0.1737  0.1032 -0.3000
 6503POPC   C3B78827  15.784  18.159   5.202 -0.0299 -0.1175  0.2279
 6503POPC   C4B78828  15.926  18.054   5.626  0.0636  0.2649 -0.1901
 6504POPC   NC378829  20.152   1.857   3.819 -0.0286 -0.1587 -0.0221
 6504POPC   PO478830  19.774   1.661   3.808 -0.1049 -0.0092  0.1918
 6504POPC   GL178831  19.798   1.938   4.097  0.2144  0.2234  0.0319
 6504POPC   GL278832  19.640   2.035   4.349 -0.0612 -0.1210 -0.1822
 6504POPC   C1A78833  20.047   1.750   4.374 -0.1480  0.0308 -0.1607
 6504POPC   D2A78834  20.184   1.922   4.762 -0.1999  0.2061 -0.2011
 6504POPC   C3A78835  20.231   1.781   5.193 -0.0255 -0.1499 -0.0068
 6504POPC   C4A78836  20.484   1.596   5.553  0.0591 -0.0851  0.1340
 6504POPC   C1B78837  19.843   2.229   4.681 -0.2381  0.1453 -0.0170
 6504POPC   C2B78838  19.958   2.265   5.117  0.1915 -0.0600 -0.0462
 6504POPC   C3B78839  19.816   2.403   5.529  0.1291 -0.2260 -0.2112
 6504POPC   C4B78840  19.687   2.543   5.993  0.0058  0.0371  0.1604
 6505POPC   NC378841   7.039   3.968   3.337  0.1354 -0.2211 -0.0418
 6505POPC   PO478842   7.170   4.359   3.433 -0.0734 -0.1925 -0.1085
 6505POPC   GL178843   7.354   4.453   3.739  0.2208 -0.3153  0.0326
 6505POPC   GL278844   7.615   4.302   3.782  0.0918 -0.0397 -0.1322
 6505POPC   C1A78845   7.210   4.519   4.172  0.0274 -0.1784 -0.2013
 6505POPC   D2A78846   6.943   4.653   4.540 -0.1596  0.1735  0.0971
 6505POPC   C3A78847   7.078   4.766   4.972  0.1721 -0.1622 -0.0410
 6505POPC   C4A78848   7.140   4.941   5.431  0.1956  0.1612 -0.2592
 6505POPC   C1B78849   7.714   4.252   4.186  0.2310  0.0647  0.3383
 6505POPC   C2B78850   7.746   4.033   4.536  0.0819  0.1690 -0.3139
 6505POPC   C3B78851   7.707   3.896   5.025  0.1812  0.1607 -0.0452
 6505POPC   C4B78852   7.865   3.629   5.326  0.1404 -0.0017  0.0281
 6506POPC   NC378853  10.650  23.231   4.261  0.2252 -0.2411 -0.1203
 6506POPC   PO478854  10.835  23.007   4.007 -0.2723 -0.3057 -0.0155
 6506POPC   GL178855  10.990  22.903   4.351  0.0298 -0.4030  0.1622
 6506POPC   GL278856  11.181  22.761   4.260  0.0253 -0.0784 -0.0476
 6506POPC   C1A78857  10.765  23.011   4.745 -0.2988 -0.0675 -0.0478
 6506POPC   D2A78858  10.766  23.270   5.148 -0.2910 -0.2985 -0.2348
 6506POPC   C3A78859  10.337  23.279   5.297 -0.0081  0.0735  0.0192
 6506POPC   C4A78860  10.180  22.992   5.639 -0.1537 -0.3283 -0.0880
 6506POPC   C1B78861  11.454  22.963   4.574  0.0286  0.0535  0.2482
 6506POPC   C2B78862  11.718  23.237   4.854  0.0118 -0.0169 -0.3951
 6506POPC   C3B78863  11.739  23.195   5.287 -0.1447  0.2097 -0.1935
 6506POPC   C4B78864  11.717  23.452   5.706 -0.0997  0.0421 -0.1956
 6507POPC   NC378865   0.634  21.941   3.469  0.1930 -0.0412 -0.1147
 6507POPC   PO478866   0.943  21.879   3.673  0.0619  0.0398  0.2048
 6507POPC   GL178867   0.909  21.928   4.076 -0.2424 -0.0198 -0.0919
 6507POPC   GL278868   0.835  21.622   4.083 -0.3195  0.0244  0.3037
 6507POPC   C1A78869   0.917  22.170   4.486  0.0194  0.1999 -0.1253
 6507POPC   D2A78870   0.645  22.285   4.832 -0.2496 -0.1313  0.0179
 6507POPC   C3A78871   0.875  22.219   5.176 -0.1730  0.1266  0.1530
 6507POPC   C4A78872   1.182  21.923   5.364  0.1687 -0.2955  0.1238
 6507POPC   C1B78873   0.739  21.706   4.509  0.0438 -0.0766 -0.0378
 6507POPC   C2B78874   0.684  21.768   4.979 -0.0478  0.0055  0.3032
 6507POPC   C3B78875   0.340  21.965   5.215 -0.1448 -0.1131 -0.0344
 6507POPC   C4B78876  -0.095  21.920   5.392 -0.1174  0.0613  0.0414
 6508POPC   NC378877   3.973  16.925   3.750  0.0971 -0.0066  0.3254
 6508POPC   PO478878   3.606  17.010   3.525  0.1446  0.1420 -0.0907
 6508POPC   GL178879   3.511  17.263   3.880  0.2345 -0.0756  0.4289
 6508POPC   GL278880   3.754  17.417   3.798 -0.1213  0.3231  0.1001
 6508POPC   C1A78881   3.555  17.276   4.333  0.0990  0.0191  0.1585
 6508POPC   D2A78882   3.504  17.463   4.737 -0.0819 -0.0219 -0.1513
 6508POPC   C3A78883   3.124  17.693   4.910  0.2150 -0.2466 -0.1225
 6508POPC   C4A78884   3.125  17.999   5.315  0.2415  0.1059 -0.3045
 6508POPC   C1B78885   3.958  17.594   4.153 -0.2756  0.2303  0.0990
 6508POPC   C2B78886   3.919  17.592   4.591 -0.2697  0.1386  0.1042
 6508POPC   C3B78887   3.945  17.676   5.073 -0.0925 -0.2121 -0.1357
 6508POPC   C4B78888   4.130  17.837   5.450  0.1957 -0.0052 -0.0160
 6509POPC   NC378889   0.805  22.300   3.880  0.1368  0.0421 -0.2105
 6509POPC   PO478890   0.513  22.362   3.655 -0.0533  0.0614 -0.1398
 6509POPC   GL178891   0.419  22.597   3.958 -0.0552 -0.3813  0.1045
 6509POPC   GL278892   0.654  22.760   4.083 -0.1378  0.0998 -0.0082
 6509POPC   C1A78893   0.209  22.613   4.376 -0.0823 -0.0658  0.0252
 6509POPC   D2A78894   0.249  22.917   4.780  0.2811  0.2588  0.2085
 6509POPC   C3A78895  -0.005  22.919   5.177  0.4333 -0.0218 -0.0331
 6509POPC   C4A78896  -0.336  22.821   5.552  0.1828 -0.1239  0.1077
 6509POPC   C1B78897   0.691  22.709   4.528  0.0706 -0.2897  0.1620
 6509POPC   C2B78898   0.811  22.778   5.031  0.3631  0.0527  0.2183
 6509POPC   C3B78899   0.957  22.787   5.451 -0.0150  0.1303 -0.1404
 6509POPC   C4B78900   1.084  22.801   5.875  0.1862 -0.0821  0.0932
 6510POPC   NC378901   8.102   0.356   4.087  0.0068  0.1993  0.1483
 6510POPC   PO478902   8.427   0.264   3.928 -0.0153  0.2558 -0.2359
 6510POPC   GL178903   8.548   0.388   4.391  0.1884  0.1840  0.2876
 6510POPC   GL278904   8.592   0.087   4.435  0.0714  0.0004  0.2689
 6510POPC   C1A78905   8.835   0.439   4.783  0.0455 -0.0296  0.2099
 6510POPC   D2A78906   8.985   0.472   5.192  0.2238 -0.1623 -0.0836
 6510POPC   C3A78907   9.392   0.629   5.290 -0.0586 -0.1520 -0.0693
 6510POPC   C4A78908   9.647   0.547   5.646 -0.0670 -0.1855 -0.1828
 6510POPC   C1B78909   8.179  -0.061   4.463 -0.1490 -0.2616  0.1451
 6510POPC   C2B78910   8.054  -0.023   4.889 -0.2629 -0.0124 -0.1622
 6510POPC   C3B78911   8.237   0.061   5.362 -0.0036  0.1468 -0.0132
 6510POPC   C4B78912   8.566   0.129   5.754  0.0394 -0.1097  0.0584
 6511POPC   NC378913   8.943  30.614   3.475  0.1126 -0.0964 -0.0192
 6511POPC   PO478914   9.151  30.248   3.630 -0.0048  0.0255  0.0164
 6511POPC   GL178915   9.184  30.194   3.985 -0.1431  0.0375 -0.1591
 6511POPC   GL278916   9.431  30.228   4.177 -0.1261  0.0549  0.0319
 6511POPC   C1A78917   9.012  30.311   4.395  0.2385  0.1039 -0.2911
 6511POPC   D2A78918   9.108  30.441   4.843  0.2069 -0.0746 -0.1763
 6511POPC   C3A78919   9.112  30.332   5.271  0.0347 -0.1041 -0.2495
 6511POPC   C4A78920   9.253  30.337   5.687  0.4099  0.2222  0.3425
 6511POPC   C1B78921   9.639  30.280   4.614 -0.0436 -0.1718  0.1024
 6511POPC   C2B78922   9.555  30.209   5.038  0.0680  0.0465  0.1934
 6511POPC   C3B78923   9.377  29.873   5.313  0.2061  0.0463  0.0147
 6511POPC   C4B78924   9.281  29.416   5.535 -0.2356  0.0482  0.1835
 6512POPC   NC378925  10.021  12.362   3.961  0.4025 -0.1555  0.0880
 6512POPC   PO478926  10.237  12.723   3.896  0.2760 -0.1747 -0.2455
 6512POPC   GL178927  10.379  12.734   4.201 -0.2588  0.1237  0.0461
 6512POPC   GL278928  10.606  12.839   4.257  0.0492 -0.0963  0.0348
 6512POPC   C1A78929  10.473  12.502   4.579 -0.0318  0.1026  0.3363
 6512POPC   D2A78930  10.532  12.569   5.013 -0.1188 -0.1381  0.1292
 6512POPC   C3A78931  10.579  12.870   5.339  0.1651 -0.1488  0.1194
 6512POPC   C4A78932  10.588  13.292   5.500 -0.1804 -0.2154  0.1276
 6512POPC   C1B78933  10.668  12.994   4.692  0.0250 -0.3732 -0.1607
 6512POPC   C2B78934  10.291  13.085   4.998 -0.2313  0.0394 -0.0686
 6512POPC   C3B78935  10.118  13.113   5.419 -0.1973  0.0538  0.1563
 6512POPC   C4B78936   9.885  13.023   5.794 -0.0539  0.4760  0.0567
 6513POPC   NC378937  19.239  29.323   3.734  0.2660  0.0942  0.3265
 6513POPC   PO478938  19.248  28.956   3.833  0.2244 -0.0257  0.0245
 6513POPC   GL178939  19.241  29.176   4.201  0.0032  0.4614 -0.0061
 6513POPC   GL278940  19.251  28.791   4.275 -0.1162 -0.1147  0.1829
 6513POPC   C1A78941  19.273  29.247   4.681  0.0206  0.0451  0.1273
 6513POPC   D2A78942  19.257  29.438   5.105  0.1293  0.1067  0.2542
 6513POPC   C3A78943  19.548  29.242   5.479 -0.2633  0.0139 -0.0187
 6513POPC   C4A78944  19.872  29.240   5.733 -0.0972  0.0892  0.1407
 6513POPC   C1B78945  19.189  28.711   4.626  0.0403 -0.0622  0.2436
 6513POPC   C2B78946  19.192  28.469   5.029 -0.2067  0.1277 -0.2431
 6513POPC   C3B78947  19.247  28.339   5.465 -0.0927  0.2157 -0.1551
 6513POPC   C4B78948  19.156  28.111   5.837 -0.1546  0.1188 -0.1545
 6514POPC   NC378949   7.034  20.475   3.574  0.2349  0.0701  0.2369
 6514POPC   PO478950   7.268  20.706   3.689  0.0960  0.2195  0.1927
 6514POPC   GL178951   7.265  20.659   4.037 -0.1216 -0.4548  0.1687
 6514POPC   GL278952   6.970  20.564   4.035  0.3445 -0.1717 -0.0895
 6514POPC   C1A78953   7.012  20.825   4.438 -0.1868  0.2127 -0.0259
 6514POPC   D2A78954   6.660  20.708   4.703  0.2190  0.0328  0.0417
 6514POPC   C3A78955   6.293  21.022   4.754 -0.3412  0.2043  0.3498
 6514POPC   C4A78956   5.828  21.093   4.981 -0.0410 -0.0497  0.1813
 6514POPC   C1B78957   6.754  20.305   4.400  0.1434 -0.1921 -0.0199
 6514POPC   C2B78958   6.838  20.078   4.791  0.2126 -0.0390  0.0234
 6514POPC   C3B78959   6.883  20.242   5.191  0.0178 -0.0052  0.0906
 6514POPC   C4B78960   6.791  20.418   5.613  0.0296 -0.5106 -0.0238
 6515POPC   NC378961   5.551   0.145   3.562  0.0041  0.3382 -0.0343
 6515POPC   PO478962   5.638   0.230   3.944 -0.0872 -0.0660 -0.1167
 6515POPC   GL178963   5.657   0.100   4.303  0.0644 -0.0962  0.2243
 6515POPC   GL278964   5.891  -0.026   4.343 -0.1001  0.1176 -0.1753
 6515POPC   C1A78965   5.520   0.031   4.740 -0.0654  0.0190  0.2552
 6515POPC   D2A78966   5.319   0.081   5.093  0.0878 -0.0909 -0.2427
 6515POPC   C3A78967   5.364  -0.227   5.404  0.2870 -0.0355 -0.0605
 6515POPC   C4A78968   5.346  -0.659   5.557 -0.0300  0.0844 -0.1054
 6515POPC   C1B78969   5.814  -0.403   4.652  0.0097 -0.3068 -0.0320
 6515POPC   C2B78970   5.886  -0.833   4.866  0.0440 -0.1905  0.0582
 6515POPC   C3B78971   5.892  -1.257   5.053 -0.3610 -0.2633 -0.3132
 6515POPC   C4B78972   5.715  -1.592   5.248  0.0585  0.1497 -0.0685
 6516POPC   NC378973  31.034  22.247   3.572  0.1652  0.1669 -0.2411
 6516POPC   PO478974  31.407  22.070   3.600 -0.1097  0.3902 -0.1624
 6516POPC   GL178975  31.287  22.113   4.082  0.3125 -0.0816 -0.0408
 6516POPC   GL278976  31.311  22.423   4.123 -0.0005  0.2852  0.0408
 6516POPC   C1A78977  31.294  21.865   4.494  0.0728  0.1344 -0.1464
 6516POPC   D2A78978  31.684  21.669   4.686  0.1434 -0.0580 -0.1253
 6516POPC   C3A78979  31.568  22.027   4.917 -0.1187  0.0375  0.0330
 6516POPC   C4A78980  31.251  22.160   5.161 -0.1010 -0.5231  0.0823
 6516POPC   C1B78981  31.467  22.770   4.290 -0.1377  0.0488 -0.1246
 6516POPC   C2B78982  31.486  23.022   4.696 -0.0829 -0.0517  0.0102
 6516POPC   C3B78983  31.712  23.347   4.950 -0.1445 -0.1690 -0.2410
 6516POPC   C4B78984  31.939  23.627   5.194  0.0340 -0.2264  0.1086
 6517POPC   NC378985   5.754  30.975   3.216 -0.0670  0.0357  0.3711
 6517POPC   PO478986   6.082  31.192   3.246  0.1250 -0.0117  0.2553
 6517POPC   GL178987   6.005  31.058   3.642 -0.2578  0.0933  0.1764
 6517POPC   GL278988   5.722  30.991   3.742  0.1124  0.2034 -0.0860
 6517POPC   C1A78989   6.042  30.613   3.607 -0.0326 -0.1974  0.2165
 6517POPC   D2A78990   6.057  30.154   3.669  0.2368  0.1351 -0.0606
 6517POPC   C3A78991   6.242  29.931   3.970  0.2246 -0.2601  0.1218
 6517POPC   C4A78992   5.925  29.650   4.070 -0.0267 -0.1081  0.2453
 6517POPC   C1B78993   5.427  30.723   4.065 -0.3778 -0.2424 -0.1272
 6517POPC   C2B78994   5.472  30.714   4.557 -0.2551 -0.4121  0.1463
 6517POPC   C3B78995   5.464  30.334   4.879  0.2858  0.0466  0.2659
 6517POPC   C4B78996   5.381  29.887   4.795  0.2722 -0.0165  0.1698
 6518POPC   NC378997   6.930  30.992   3.348 -0.0042  0.0159 -0.2672
 6518POPC   PO478998   6.871  31.363   3.478  0.1218  0.0766  0.1028
 6518POPC   GL178999   7.039  31.119   3.789 -0.0079 -0.1330 -0.2015
 6518POPC   GL279000   6.732  31.084   3.928 -0.0236  0.0870 -0.1323
 6518POPC   C1A79001   7.027  30.660   3.839  0.3712  0.1299  0.1663
 6518POPC   D2A79002   7.233  30.429   4.246 -0.0018 -0.0525  0.0112
 6518POPC   C3A79003   7.405  30.622   4.635 -0.1009 -0.1739 -0.0961
 6518POPC   C4A79004   7.517  30.919   5.036  0.1181  0.2664  0.1785
 6518POPC   C1B79005   6.594  31.232   4.311 -0.1145 -0.1607 -0.2431
 6518POPC   C2B79006   6.741  31.101   4.723  0.1964  0.0864 -0.1907
 6518POPC   C3B79007   6.922  30.922   5.135  0.0435 -0.3513  0.2760
 6518POPC   C4B79008   7.215  30.656   5.233 -0.0054  0.2344 -0.4020
 6519POPC   NC379009  29.398  11.237   3.604  0.0122  0.0790  0.1623
 6519POPC   PO479010  29.674  10.960   3.454  0.1050 -0.2170  0.1621
 6519POPC   GL179011  29.755  10.782   3.791  0.0722  0.0106  0.1023
 6519POPC   GL279012  29.880  10.829   4.014 -0.1219 -0.3195 -0.0854
 6519POPC   C1A79013  29.429  10.833   4.128 -0.0293  0.0198 -0.0280
 6519POPC   D2A79014  29.157  10.935   4.556  0.1099  0.0876 -0.1598
 6519POPC   C3A79015  29.036  10.654   4.857  0.2574 -0.0973 -0.5170
 6519POPC   C4A79016  28.992  10.675   5.311  0.0120 -0.0002  0.4936
 6519POPC   C1B79017  29.859  11.048   4.464  0.0433  0.0564 -0.0596
 6519POPC   C2B79018  29.936  10.890   4.952  0.0223 -0.1570 -0.1900
 6519POPC   C3B79019  29.791  10.917   5.378 -0.4027  0.0738 -0.1612
 6519POPC   C4B79020  29.953  10.790   5.779  0.0024 -0.1026 -0.0118
 6520POPC   NC379021  11.491  21.030   3.733 -0.0544 -0.2360 -0.0875
 6520POPC   PO479022  11.196  21.250   3.710  0.2785  0.2550  0.2943
 6520POPC   GL179023  11.207  21.112   4.088 -0.4129 -0.1163  0.1714
 6520POPC   GL279024  11.188  20.807   4.149  0.0435 -0.0135 -0.0548
 6520POPC   C1A79025  11.369  21.135   4.554 -0.3425 -0.2492 -0.1478
 6520POPC   D2A79026  11.464  21.411   4.965 -0.1599 -0.0690 -0.0107
 6520POPC   C3A79027  11.365  21.238   5.425 -0.1114 -0.1177  0.3570
 6520POPC   C4A79028  11.247  21.085   5.866  0.2187 -0.0571  0.0553
 6520POPC   C1B79029  11.037  20.663   4.573  0.1760  0.0302 -0.4004
 6520POPC   C2B79030  10.804  20.659   4.980 -0.1620  0.1260 -0.0235
 6520POPC   C3B79031  11.054  20.824   5.322 -0.0806  0.0825  0.0992
 6520POPC   C4B79032  11.169  20.562   5.693 -0.1457  0.3791 -0.0495
 6521POPC   NC379033  10.156  28.972   3.796 -0.0292 -0.0591  0.0823
 6521POPC   PO479034  10.132  28.588   3.786  0.0624  0.2849 -0.1751
 6521POPC   GL179035   9.845  28.593   4.209 -0.0068 -0.1284 -0.1904
 6521POPC   GL279036   9.879  28.865   4.167 -0.3083 -0.0393 -0.1452
 6521POPC   C1A79037   9.891  28.506   4.667  0.1229 -0.1955  0.0620
 6521POPC   D2A79038   9.776  28.310   5.073 -0.0229 -0.2507  0.1221
 6521POPC   C3A79039   9.813  28.645   5.367  0.0692 -0.2200 -0.2241
 6521POPC   C4A79040   9.840  29.136   5.386 -0.2250  0.0896  0.0671
 6521POPC   C1B79041   9.476  28.996   4.383 -0.3131  0.1700  0.0392
 6521POPC   C2B79042   9.342  29.340   4.659  0.0176 -0.0477  0.0686
 6521POPC   C3B79043   9.212  29.736   4.842  0.3736 -0.2006  0.2461
 6521POPC   C4B79044   8.896  30.013   4.961 -0.0855  0.1789 -0.0618
 6522POPC   NC379045   2.424   0.621   3.757 -0.0785  0.2142  0.1102
 6522POPC   PO479046   2.786   0.477   3.692 -0.0313  0.0185 -0.1229
 6522POPC   GL179047   2.616   0.376   4.099 -0.0222  0.1257  0.0190
 6522POPC   GL279048   2.874   0.408   4.222 -0.0710 -0.1186  0.0041
 6522POPC   C1A79049   2.355   0.462   4.467 -0.1526  0.2041  0.1117
 6522POPC   D2A79050   2.055   0.412   4.828 -0.0309 -0.1997 -0.1276
 6522POPC   C3A79051   2.123   0.228   5.265  0.3092 -0.1015 -0.0769
 6522POPC   C4A79052   2.540   0.247   5.570  0.1246 -0.0073  0.0650
 6522POPC   C1B79053   2.866   0.364   4.684  0.3575  0.0148 -0.3667
 6522POPC   C2B79054   2.492   0.389   5.036 -0.2586 -0.3035 -0.0006
 6522POPC   C3B79055   2.350   0.666   5.449 -0.0177 -0.0600  0.5126
 6522POPC   C4B79056   2.439   0.955   5.817  0.1422 -0.0638 -0.2410
 6523POPC   NC379057   0.101  20.054   4.040 -0.2859  0.4440 -0.0294
 6523POPC   PO479058   0.334  19.763   3.881 -0.1229  0.1189  0.0197
 6523POPC   GL179059   0.471  19.675   4.197  0.0872  0.1043 -0.0864
 6523POPC   GL279060   0.427  19.811   4.450 -0.0655  0.0734 -0.2405
 6523POPC   C1A79061   0.531  19.259   4.423  0.4177  0.0362  0.3631
 6523POPC   D2A79062   0.737  19.028   4.766  0.2777 -0.0945  0.1495
 6523POPC   C3A79063   0.609  19.254   5.118 -0.0930 -0.1061  0.0366
 6523POPC   C4A79064   0.917  19.524   5.308 -0.0088  0.2827  0.0882
 6523POPC   C1B79065   0.250  19.985   4.845  0.1932  0.2431 -0.2340
 6523POPC   C2B79066   0.038  20.028   5.267 -0.0439 -0.0833  0.1331
 6523POPC   C3B79067  -0.222  20.094   5.626 -0.2210 -0.0293  0.1353
 6523POPC   C4B79068  -0.357  20.093   6.075  0.0402 -0.2750 -0.1609
 6524POPC   NC379069  21.288  27.296   3.334 -0.0398 -0.2252 -0.0361
 6524POPC   PO479070  21.100  27.532   3.578 -0.2643 -0.2629 -0.1065
 6524POPC   GL179071  21.196  27.668   3.966 -0.1568  0.0313 -0.0938
 6524POPC   GL279072  21.020  27.822   4.039 -0.2042  0.0096  0.0649
 6524POPC   C1A79073  21.529  27.851   4.253  0.3062 -0.1691  0.0065
 6524POPC   D2A79074  21.495  27.812   4.744 -0.2687  0.1473  0.0090
 6524POPC   C3A79075  21.263  27.626   5.076 -0.3133 -0.0018  0.1318
 6524POPC   C4A79076  21.193  27.645   5.545 -0.3303 -0.0952 -0.2966
 6524POPC   C1B79077  21.108  27.973   4.496 -0.0245 -0.0054  0.2422
 6524POPC   C2B79078  21.145  28.136   4.929  0.0957 -0.1870  0.1117
 6524POPC   C3B79079  21.092  28.138   5.375  0.0625  0.1254 -0.2381
 6524POPC   C4B79080  21.066  28.203   5.828 -0.1878 -0.1637  0.1152
 6525POPC   NC379081  22.723   6.218   3.906  0.0541  0.3152 -0.0677
 6525POPC   PO479082  22.480   6.428   3.622 -0.3893 -0.4710  0.0823
 6525POPC   GL179083  22.477   6.607   3.963 -0.0289 -0.1600 -0.1958
 6525POPC   GL279084  22.614   6.881   4.045 -0.0540 -0.1841  0.1242
 6525POPC   C1A79085  22.616   6.464   4.392  0.1154 -0.1245 -0.3709
 6525POPC   D2A79086  22.746   6.213   4.749 -0.5664  0.1497  0.0454
 6525POPC   C3A79087  22.973   6.434   5.131  0.3118  0.2043 -0.0935
 6525POPC   C4A79088  23.371   6.513   5.425  0.3067 -0.2207  0.1663
 6525POPC   C1B79089  22.586   6.962   4.506  0.0859  0.1635  0.0676
 6525POPC   C2B79090  22.710   6.812   4.900 -0.4214  0.1499 -0.2262
 6525POPC   C3B79091  23.025   6.920   5.234  0.2303 -0.0433 -0.2927
 6525POPC   C4B79092  23.095   6.878   5.690 -0.0078  0.2912  0.0324
 6526POPC   NC379093  20.026   8.639   3.782  0.0079 -0.2182 -0.0111
 6526POPC   PO479094  19.994   8.236   3.787 -0.0089  0.0173 -0.0408
 6526POPC   GL179095  19.995   8.189   4.161  0.1100  0.0612  0.1076
 6526POPC   GL279096  20.064   8.505   4.274 -0.1803  0.0272 -0.0703
 6526POPC   C1A79097  19.693   8.202   4.506 -0.0318 -0.2798  0.0181
 6526POPC   D2A79098  19.743   8.168   5.036 -0.0425 -0.1364  0.1169
 6526POPC   C3A79099  19.973   7.809   5.198 -0.0369  0.0196  0.0053
 6526POPC   C4A79100  19.796   7.505   5.592 -0.2708  0.0242 -0.1941
 6526POPC   C1B79101  20.022   8.530   4.742  0.1301 -0.1156  0.0807
 6526POPC   C2B79102  20.020   8.539   5.199  0.0068  0.1407 -0.3291
 6526POPC   C3B79103  20.162   8.790   5.592  0.0613  0.0935  0.1152
 6526POPC   C4B79104  20.098   9.242   5.651  0.1656 -0.1047  0.1491
 6527POPC   NC379105  25.467   4.617   3.057 -0.1299  0.1709 -0.0579
 6527POPC   PO479106  25.465   4.781   3.441 -0.0496 -0.1647  0.0323
 6527POPC   GL179107  25.598   4.842   3.777 -0.0739 -0.2209  0.1965
 6527POPC   GL279108  25.536   4.897   4.037  0.2939  0.0511 -0.1538
 6527POPC   C1A79109  25.883   5.212   3.880  0.1069  0.1560 -0.3682
 6527POPC   D2A79110  26.185   5.476   4.109  0.0114  0.1798  0.1028
 6527POPC   C3A79111  26.179   5.725   4.480  0.1059 -0.3964 -0.0996
 6527POPC   C4A79112  26.543   5.689   4.801  0.3364  0.0093  0.1228
 6527POPC   C1B79113  25.152   4.992   4.289  0.0079 -0.0785  0.2183
 6527POPC   C2B79114  25.136   4.951   4.724  0.0270  0.1839 -0.2290
 6527POPC   C3B79115  24.955   4.917   5.155  0.0260 -0.1761  0.1239
 6527POPC   C4B79116  24.849   4.723   5.561  0.0189 -0.3440  0.1009
 6528POPC   NC379117  16.784  30.846   3.491  0.3040  0.3766  0.0316
 6528POPC   PO479118  17.056  31.075   3.566  0.1095  0.4473  0.3135
 6528POPC   GL179119  17.138  30.815   3.860 -0.1872  0.0795 -0.5234
 6528POPC   GL279120  17.346  30.964   4.029  0.0932  0.2534  0.1846
 6528POPC   C1A79121  16.923  30.916   4.262  0.0404 -0.1514 -0.1893
 6528POPC   D2A79122  16.896  31.126   4.686  0.0400  0.2642  0.0999
 6528POPC   C3A79123  16.934  31.177   5.164 -0.1168 -0.1594  0.0364
 6528POPC   C4A79124  16.722  31.104   5.589  0.0280 -0.0146 -0.0302
 6528POPC   C1B79125  17.365  30.924   4.546  0.0071 -0.2532  0.3648
 6528POPC   C2B79126  17.288  30.822   4.999 -0.0693 -0.0014 -0.4223
 6528POPC   C3B79127  17.234  30.980   5.446  0.0832 -0.0733 -0.1210
 6528POPC   C4B79128  17.411  31.207   5.809  0.0579 -0.1758  0.1541
 6529POPC   NC379129   7.995  27.362   3.804 -0.1430  0.1115  0.2840
 6529POPC   PO479130   8.272  27.568   4.014 -0.2210 -0.2753 -0.0005
 6529POPC   GL179131   8.181  27.771   4.252  0.0011 -0.0291 -0.0180
 6529POPC   GL279132   7.909  27.710   4.310  0.0337  0.0134  0.1652
 6529POPC   C1A79133   8.265  27.853   4.681  0.0428  0.1701  0.1433
 6529POPC   D2A79134   8.194  28.156   4.971 -0.2256 -0.1965 -0.3045
 6529POPC   C3A79135   7.901  28.234   5.360 -0.0841 -0.1150  0.0221
 6529POPC   C4A79136   7.790  27.972   5.735  0.0214  0.1717  0.3268
 6529POPC   C1B79137   7.766  27.876   4.706 -0.3682  0.0404  0.1338
 6529POPC   C2B79138   7.891  27.783   5.144 -0.0276  0.0558  0.1638
 6529POPC   C3B79139   8.109  27.608   5.552  0.1279 -0.2558 -0.2848
 6529POPC   C4B79140   8.575  27.476   5.684  0.0505  0.0342  0.1450
 6530POPC   NC379141  23.636   1.273   3.244  0.3409  0.0012 -0.4198
 6530POPC   PO479142  23.352   1.434   3.482  0.0863 -0.0760  0.0773
 6530POPC   GL179143  23.179   1.194   3.785  0.3707  0.2498 -0.0670
 6530POPC   GL279144  23.229   1.100   4.040  0.3915 -0.0874  0.1075
 6530POPC   C1A79145  22.888   1.396   4.069  0.0205 -0.1013 -0.2399
 6530POPC   D2A79146  22.435   1.454   4.193 -0.0381 -0.0261  0.3105
 6530POPC   C3A79147  22.245   1.148   4.510 -0.1424 -0.2416 -0.1773
 6530POPC   C4A79148  21.831   1.020   4.601  0.4342  0.1796 -0.0907
 6530POPC   C1B79149  23.250   0.988   4.430  0.0320  0.0041 -0.2613
 6530POPC   C2B79150  23.078   1.034   4.819 -0.0618  0.2377 -0.1373
 6530POPC   C3B79151  22.968   1.153   5.210 -0.0682 -0.2003  0.1337
 6530POPC   C4B79152  23.131   0.997   5.588 -0.0075 -0.2083 -0.1802
 6531POPC   NC379153  30.532  30.121   4.174 -0.1884  0.0915 -0.3353
 6531POPC   PO479154  30.855  29.928   4.041  0.1483  0.0344 -0.1316
 6531POPC   GL179155  30.716  29.572   4.178  0.0958  0.2971  0.1594
 6531POPC   GL279156  30.923  29.550   4.406 -0.1227  0.0794  0.1805
 6531POPC   C1A79157  30.486  29.320   4.535 -0.1422  0.3183  0.0662
 6531POPC   D2A79158  30.166  29.214   4.911 -0.1920  0.2173 -0.4223
 6531POPC   C3A79159  30.249  29.421   5.315  0.3138  0.2337  0.2501
 6531POPC   C4A79160  30.421  29.418   5.688 -0.0402  0.0901 -0.0307
 6531POPC   C1B79161  30.928  29.693   4.863  0.2428 -0.4052 -0.3120
 6531POPC   C2B79162  31.015  29.789   5.277  0.0509 -0.2492 -0.0580
 6531POPC   C3B79163  30.764  29.951   5.652 -0.0739 -0.1123  0.2833
 6531POPC   C4B79164  30.840  30.205   6.062 -0.0581  0.3444  0.1890
 6532POPC   NC379165  24.116  10.571   3.862  0.2986  0.1993  0.1904
 6532POPC   PO479166  23.961  10.271   3.630  0.2160 -0.0686  0.1017
 6532POPC   GL179167  23.682  10.256   3.945  0.2315 -0.1910  0.0505
 6532POPC   GL279168  23.845  10.236   4.195  0.0103  0.0119 -0.0860
 6532POPC   C1A79169  23.404  10.024   4.253 -0.0912 -0.1419  0.2604
 6532POPC   D2A79170  23.192   9.871   4.659 -0.5111 -0.1474  0.2165
 6532POPC   C3A79171  23.227  10.074   5.021 -0.0966 -0.0041 -0.1325
 6532POPC   C4A79172  23.365  10.159   5.496 -0.0062  0.1066  0.2811
 6532POPC   C1B79173  23.697  10.215   4.642  0.1272  0.0385 -0.0353
 6532POPC   C2B79174  23.785  10.192   5.076  0.1038  0.3194  0.4339
 6532POPC   C3B79175  23.843  10.348   5.490  0.5560 -0.4406  0.2902
 6532POPC   C4B79176  23.664  10.434   5.904 -0.1417  0.1803  0.1473
 6533POPC   NC379177  18.537  15.947   3.991 -0.3370  0.0931  0.1396
 6533POPC   PO479178  18.523  16.318   4.079  0.0039  0.2465  0.0536
 6533POPC   GL179179  18.806  16.414   4.356 -0.2272 -0.2078  0.1196
 6533POPC   GL279180  18.813  16.696   4.191 -0.3123 -0.3481  0.3026
 6533POPC   C1A79181  19.245  16.518   4.514  0.1689  0.1552 -0.1929
 6533POPC   D2A79182  19.570  16.619   4.772  0.1766  0.1662  0.0502
 6533POPC   C3A79183  19.516  16.629   5.195 -0.0635 -0.1174 -0.1099
 6533POPC   C4A79184  19.263  16.357   5.398  0.2251 -0.0617 -0.0794
 6533POPC   C1B79185  18.862  16.882   4.626 -0.4263  0.0670  0.2403
 6533POPC   C2B79186  19.261  17.016   4.924  0.1551  0.0553 -0.0656
 6533POPC   C3B79187  19.567  17.231   5.143 -0.1386 -0.2213  0.2171
 6533POPC   C4B79188  19.864  17.557   5.303 -0.0288  0.0937 -0.3442
 6534POPC   NC379189  10.851  31.441   3.732 -0.1747  0.2608 -0.1827
 6534POPC   PO479190  10.627  31.748   3.863  0.0123 -0.2235 -0.1052
 6534POPC   GL179191  10.724  31.970   4.197  0.2441 -0.0548  0.0563
 6534POPC   GL279192  10.448  32.036   4.281  0.3295  0.0903  0.0583
 6534POPC   C1A79193  10.858  32.207   4.529 -0.2081  0.0614  0.1074
 6534POPC   D2A79194  10.899  32.336   4.967 -0.0496  0.3479  0.0481
 6534POPC   C3A79195  10.689  32.560   5.248  0.1356  0.1352 -0.1313
 6534POPC   C4A79196  10.451  32.477   5.633 -0.1273  0.0658  0.1684
 6534POPC   C1B79197  10.437  32.124   4.706 -0.0561 -0.0974 -0.0297
 6534POPC   C2B79198  10.431  32.030   5.113 -0.2469  0.4380  0.1946
 6534POPC   C3B79199  10.717  31.833   5.443 -0.0982 -0.0079  0.0730
 6534POPC   C4B79200  11.119  31.763   5.568 -0.0327  0.1200 -0.2021
 6535POPC   NC379201  30.389   4.379   3.464  0.1529 -0.0866 -0.0702
 6535POPC   PO479202  30.738   4.412   3.595  0.3745  0.0337  0.0798
 6535POPC   GL179203  30.830   4.471   3.969 -0.0117  0.0031 -0.0505
 6535POPC   GL279204  30.767   4.755   4.033 -0.1406 -0.0671  0.2594
 6535POPC   C1A79205  30.742   4.358   4.438 -0.2023  0.1335  0.2065
 6535POPC   D2A79206  30.960   4.485   4.796 -0.5097 -0.0169  0.0154
 6535POPC   C3A79207  30.660   4.780   4.998 -0.0371  0.2260  0.0195
 6535POPC   C4A79208  30.372   5.061   5.207 -0.3732 -0.1590  0.0189
 6535POPC   C1B79209  30.462   4.814   4.322 -0.1799  0.0283  0.1820
 6535POPC   C2B79210  30.223   4.792   4.688  0.0342  0.1916 -0.1011
 6535POPC   C3B79211  29.830   4.987   4.634  0.5094  0.3784 -0.1268
 6535POPC   C4B79212  29.719   5.378   4.551 -0.2076 -0.1247 -0.0317
 6536POPC   NC379213  29.759   2.122   3.488  0.0801 -0.2529  0.0437
 6536POPC   PO479214  29.607   2.054   3.830  0.1550 -0.0773 -0.0136
 6536POPC   GL179215  29.520   1.949   4.226  0.2015  0.0856  0.1771
 6536POPC   GL279216  29.312   2.164   4.190  0.0471  0.0313 -0.0090
 6536POPC   C1A79217  29.559   1.592   4.557 -0.2933 -0.0951 -0.0119
 6536POPC   D2A79218  29.485   1.713   5.008 -0.2737 -0.0813  0.1497
 6536POPC   C3A79219  29.684   1.472   5.404  0.0179  0.1681  0.1301
 6536POPC   C4A79220  30.091   1.293   5.535  0.3647 -0.1089  0.2927
 6536POPC   C1B79221  29.405   2.488   4.535  0.0268  0.1289 -0.2683
 6536POPC   C2B79222  29.576   2.619   5.003  0.0036  0.0201 -0.0114
 6536POPC   C3B79223  29.467   2.735   5.439 -0.0928 -0.1501 -0.3800
 6536POPC   C4B79224  29.057   2.678   5.552 -0.0627  0.1815 -0.2636
 6537POPC   NC379225  25.612  28.668   3.983 -0.0178 -0.0267  0.3897
 6537POPC   PO479226  25.810  28.330   3.975 -0.0186 -0.0822  0.0119
 6537POPC   GL179227  25.927  28.393   4.373  0.2267 -0.0970  0.3737
 6537POPC   GL279228  25.712  28.501   4.413 -0.2824  0.1869  0.1987
 6537POPC   C1A79229  26.343  28.403   4.615 -0.4185  0.2937 -0.2114
 6537POPC   D2A79230  26.731  28.193   4.912  0.0476  0.2902 -0.1902
 6537POPC   C3A79231  26.548  28.094   5.304  0.2085 -0.1019  0.0807
 6537POPC   C4A79232  26.745  27.829   5.621 -0.1002  0.1790 -0.2111
 6537POPC   C1B79233  25.911  28.465   4.845 -0.3081  0.4705  0.0842
 6537POPC   C2B79234  26.324  28.479   5.110 -0.2018  0.1290  0.1075
 6537POPC   C3B79235  26.807  28.597   5.186  0.0007 -0.1558  0.2682
 6537POPC   C4B79236  27.288  28.369   5.083  0.2816 -0.0378 -0.1749
 6538POPC   NC379237   0.057  16.380   3.293  0.0584 -0.0057  0.2535
 6538POPC   PO479238  -0.181  16.651   3.429 -0.1365  0.0072 -0.0425
 6538POPC   GL179239  -0.280  16.691   3.822  0.1645  0.1205  0.1898
 6538POPC   GL279240  -0.078  16.943   3.806  0.0854 -0.2920 -0.0639
 6538POPC   C1A79241  -0.309  16.495   4.258  0.2146 -0.0758  0.0085
 6538POPC   D2A79242  -0.500  16.503   4.674  0.1891 -0.1357 -0.1598
 6538POPC   C3A79243  -0.541  16.429   5.141 -0.1256 -0.2484  0.0789
 6538POPC   C4A79244  -0.643  16.256   5.511  0.2339  0.0372  0.0088
 6538POPC   C1B79245  -0.007  17.279   4.130  0.1280  0.0450  0.0655
 6538POPC   C2B79246  -0.382  17.477   4.345 -0.1339 -0.0523 -0.2379
 6538POPC   C3B79247  -0.480  17.397   4.791  0.2619 -0.3818 -0.1345
 6538POPC   C4B79248  -0.909  17.350   4.997  0.0487  0.1541  0.0826
 6539POPC   NC379249  25.409  17.963   3.500 -0.1877  0.0876  0.1570
 6539POPC   PO479250  25.373  18.373   3.456  0.2442  0.1878  0.2793
 6539POPC   GL179251  25.404  18.573   3.792  0.1574  0.1768 -0.3637
 6539POPC   GL279252  25.630  18.506   4.027  0.2955  0.1206  0.1123
 6539POPC   C1A79253  25.460  18.965   4.047 -0.1312 -0.1907 -0.0222
 6539POPC   D2A79254  25.218  19.305   4.267 -0.2300 -0.3567  0.0681
 6539POPC   C3A79255  24.997  19.667   4.490  0.3927  0.1095  0.1959
 6539POPC   C4A79256  25.075  19.790   4.946 -0.1459  0.0242  0.0676
 6539POPC   C1B79257  25.822  18.526   4.409  0.0842 -0.1253 -0.2166
 6539POPC   C2B79258  26.018  18.402   4.777 -0.2217 -0.1111  0.0118
 6539POPC   C3B79259  26.205  18.291   5.205  0.1467  0.0546 -0.3450
 6539POPC   C4B79260  26.329  18.501   5.593 -0.1921 -0.0792  0.0991
 6540POPC   NC379261   6.160  29.090   2.979 -0.2514  0.1583  0.0519
 6540POPC   PO479262   5.896  29.015   3.253 -0.3269 -0.1174 -0.1595
 6540POPC   GL179263   5.721  29.177   3.628  0.1395 -0.0277 -0.0155
 6540POPC   GL279264   5.869  29.103   3.842  0.1544  0.2791  0.0498
 6540POPC   C1A79265   5.423  29.539   3.810 -0.1768 -0.2788 -0.1932
 6540POPC   D2A79266   5.411  29.660   4.240  0.0342 -0.2390 -0.1028
 6540POPC   C3A79267   5.030  29.483   4.388  0.1586  0.0513 -0.0214
 6540POPC   C4A79268   4.796  29.532   4.760  0.3319 -0.0615  0.0021
 6540POPC   C1B79269   5.591  29.217   4.162 -0.3230 -0.2244  0.3859
 6540POPC   C2B79270   5.690  29.480   4.581 -0.2681 -0.3834  0.2094
 6540POPC   C3B79271   5.782  29.660   5.013 -0.0224  0.0092 -0.1309
 6540POPC   C4B79272   6.146  29.781   5.279  0.0564  0.3310  0.0749
 6541POPC   NC379273   4.748  17.655   3.571 -0.1103  0.2198 -0.1811
 6541POPC   PO479274   5.066  17.405   3.680 -0.1688  0.2099 -0.0293
 6541POPC   GL179275   4.810  17.354   3.950  0.0991 -0.1539  0.0356
 6541POPC   GL279276   4.611  17.626   4.058  0.1369  0.4611  0.1279
 6541POPC   C1A79277   4.893  17.417   4.377  0.2188  0.3435 -0.1434
 6541POPC   D2A79278   4.865  17.307   4.871 -0.1952  0.2127  0.2671
 6541POPC   C3A79279   4.612  16.996   5.013  0.1215  0.0957 -0.2158
 6541POPC   C4A79280   4.311  16.830   5.308  0.1590 -0.1203 -0.2636
 6541POPC   C1B79281   4.512  17.845   4.443 -0.1407  0.1897  0.1133
 6541POPC   C2B79282   4.360  17.801   4.870  0.0211  0.0787  0.2182
 6541POPC   C3B79283   4.466  17.470   5.193  0.0912 -0.1034 -0.1145
 6541POPC   C4B79284   4.731  17.236   5.404 -0.1271 -0.0364 -0.1284
 6542POPC   NC379285  17.878  25.703   3.841 -0.0364 -0.0668 -0.1735
 6542POPC   PO479286  17.853  26.037   4.002 -0.1223  0.5469 -0.0836
 6542POPC   GL179287  17.722  26.115   4.305  0.3629 -0.2469  0.0651
 6542POPC   GL279288  17.890  26.402   4.358 -0.2954 -0.2351 -0.2679
 6542POPC   C1A79289  17.703  25.791   4.617  0.0436 -0.0389 -0.3876
 6542POPC   D2A79290  17.729  25.508   4.978  0.0223 -0.3588  0.0002
 6542POPC   C3A79291  17.343  25.434   5.262  0.0917 -0.0514 -0.2551
 6542POPC   C4A79292  17.173  25.096   5.432  0.1948  0.2255  0.0032
 6542POPC   C1B79293  17.829  26.292   4.794 -0.0885  0.0529  0.2340
 6542POPC   C2B79294  17.723  25.984   5.139  0.0432  0.2497  0.0019
 6542POPC   C3B79295  17.706  25.683   5.467  0.3021  0.1010  0.0499
 6542POPC   C4B79296  17.447  25.480   5.768  0.1072  0.2064 -0.0709
 6543POPC   NC379297  16.476  18.420   3.854 -0.1565 -0.1273 -0.3113
 6543POPC   PO479298  16.720  18.059   3.850  0.1053  0.1549 -0.3839
 6543POPC   GL179299  16.761  18.175   4.159 -0.1784 -0.2478 -0.1512
 6543POPC   GL279300  16.640  18.034   4.394  0.2429  0.3576  0.0569
 6543POPC   C1A79301  16.528  18.516   4.333 -0.1748  0.3599 -0.2995
 6543POPC   D2A79302  16.513  18.786   4.728  0.3029  0.1161 -0.0742
 6543POPC   C3A79303  16.168  18.955   5.016  0.1584  0.0002 -0.0857
 6543POPC   C4A79304  15.930  18.979   5.451  0.3236  0.0388  0.1558
 6543POPC   C1B79305  16.572  18.242   4.747  0.2771  0.0585 -0.4467
 6543POPC   C2B79306  16.572  18.229   5.208 -0.1404 -0.2571  0.0181
 6543POPC   C3B79307  16.513  18.269   5.667  0.2346  0.1255 -0.2098
 6543POPC   C4B79308  16.171  18.308   5.989  0.0132 -0.0588 -0.2091
 6544POPC   NC379309  19.274  22.948   3.313 -0.0484  0.0249  0.3306
 6544POPC   PO479310  19.398  23.237   3.606 -0.3996 -0.1965  0.1499
 6544POPC   GL179311  19.272  23.246   3.979  0.0391 -0.0082  0.1174
 6544POPC   GL279312  19.028  23.221   3.982  0.3003 -0.2800 -0.0336
 6544POPC   C1A79313  19.576  23.116   4.295 -0.1079  0.0192  0.2583
 6544POPC   D2A79314  19.916  22.871   4.461  0.0226  0.0519  0.1622
 6544POPC   C3A79315  20.127  22.696   4.858  0.3579  0.0626  0.0609
 6544POPC   C4A79316  20.241  22.299   5.064 -0.1243  0.1314 -0.1372
 6544POPC   C1B79317  19.057  22.978   4.380 -0.1690 -0.2541 -0.0443
 6544POPC   C2B79318  19.351  23.011   4.754 -0.0373 -0.0746 -0.1574
 6544POPC   C3B79319  19.407  23.287   5.116  0.3748  0.0162  0.2464
 6544POPC   C4B79320  19.133  23.342   5.530 -0.0351 -0.0451 -0.0231
 6545POPC   NC379321  12.788  24.776   3.576 -0.3170  0.0634  0.4788
 6545POPC   PO479322  12.691  24.493   3.774 -0.4118 -0.2335  0.0389
 6545POPC   GL179323  12.788  24.719   4.080  0.0565 -0.2956 -0.0699
 6545POPC   GL279324  12.629  24.534   4.296  0.0945 -0.1611 -0.0331
 6545POPC   C1A79325  12.914  24.946   4.391  0.2767  0.0641 -0.1799
 6545POPC   D2A79326  12.828  25.044   4.827  0.2911  0.1507 -0.2182
 6545POPC   C3A79327  12.803  25.482   4.845  0.1393 -0.1641  0.1696
 6545POPC   C4A79328  12.652  25.816   5.111  0.0914 -0.0423 -0.2875
 6545POPC   C1B79329  12.413  24.422   4.729  0.0276  0.1090  0.2816
 6545POPC   C2B79330  12.338  24.354   5.176  0.2998 -0.1820  0.1627
 6545POPC   C3B79331  12.198  24.556   5.540 -0.0681  0.5376 -0.3526
 6545POPC   C4B79332  12.362  24.622   5.998 -0.2691  0.0323 -0.1499
 6546POPC   NC379333   1.723  27.888   3.427  0.2681 -0.0625 -0.2937
 6546POPC   PO479334   1.418  27.739   3.650 -0.1160 -0.0401 -0.3749
 6546POPC   GL179335   1.464  27.866   3.998 -0.3407  0.2885 -0.1760
 6546POPC   GL279336   1.268  28.077   3.990  0.2421  0.0970 -0.1210
 6546POPC   C1A79337   1.527  27.866   4.462 -0.5176  0.0622  0.1518
 6546POPC   D2A79338   1.737  27.793   4.883  0.0906  0.2590 -0.0121
 6546POPC   C3A79339   1.453  27.831   5.257  0.1498  0.0944  0.1652
 6546POPC   C4A79340   1.304  28.005   5.630 -0.0417  0.1158 -0.0346
 6546POPC   C1B79341   1.043  28.027   4.377 -0.0153 -0.1690 -0.3314
 6546POPC   C2B79342   1.194  28.050   4.831  0.0305 -0.0283 -0.0429
 6546POPC   C3B79343   1.057  28.254   5.265 -0.0254  0.2076 -0.4008
 6546POPC   C4B79344   1.192  28.544   5.655  0.1251 -0.0884  0.4487
 6547POPC   NC379345  25.045   6.887   4.275 -0.2444 -0.3248  0.0190
 6547POPC   PO479346  24.693   7.053   4.255  0.1172  0.1058  0.1218
 6547POPC   GL179347  24.635   6.971   4.659  0.3930 -0.0423 -0.0038
 6547POPC   GL279348  24.404   6.783   4.563 -0.0076  0.0239 -0.0181
 6547POPC   C1A79349  24.722   6.881   5.074 -0.0669  0.2152 -0.0830
 6547POPC   D2A79350  24.711   6.893   5.544 -0.0025 -0.1778  0.1449
 6547POPC   C3A79351  24.554   7.309   5.612 -0.2741 -0.0623  0.2589
 6547POPC   C4A79352  24.627   7.643   5.900  0.1839  0.0326 -0.0454
 6547POPC   C1B79353  24.213   6.719   4.987  0.2309 -0.0354 -0.0918
 6547POPC   C2B79354  23.859   6.627   5.286  0.0141 -0.1592 -0.1333
 6547POPC   C3B79355  23.683   6.200   5.248  0.0774  0.1939  0.3323
 6547POPC   C4B79356  23.778   5.729   5.332  0.1879 -0.0932  0.0116
 6548POPC   NC379357  27.558  21.025   4.013  0.1247  0.2102  0.0157
 6548POPC   PO479358  27.214  20.875   3.924  0.1291 -0.2374  0.1080
 6548POPC   GL179359  27.139  21.049   4.311 -0.1439 -0.0813  0.0323
 6548POPC   GL279360  27.365  20.873   4.487 -0.0909  0.0760  0.1453
 6548POPC   C1A79361  26.887  21.211   4.617 -0.1317 -0.0057  0.0716
 6548POPC   D2A79362  26.615  21.159   5.026  0.0092  0.1075  0.0574
 6548POPC   C3A79363  26.617  21.130   5.508  0.0577 -0.0769 -0.0576
 6548POPC   C4A79364  26.580  20.734   5.757 -0.1378 -0.0295  0.3694
 6548POPC   C1B79365  27.374  20.551   4.817 -0.2308  0.0142 -0.0318
 6548POPC   C2B79366  27.601  20.656   5.227  0.1033 -0.0137 -0.2257
 6548POPC   C3B79367  27.602  20.737   5.684 -0.1940 -0.1150 -0.2984
 6548POPC   C4B79368  27.373  20.849   6.050 -0.0187  0.3042  0.3545
 6549POPC   NC379369  28.495   3.983   3.370  0.0392 -0.4249 -0.0638
 6549POPC   PO479370  28.176   3.740   3.460  0.4140 -0.1720  0.0678
 6549POPC   GL179371  28.120   3.839   3.856 -0.1241  0.3294  0.0054
 6549POPC   GL279372  28.378   3.958   3.880  0.1564  0.1574 -0.1063
 6549POPC   C1A79373  27.939   3.768   4.259 -0.1140 -0.0270 -0.3369
 6549POPC   D2A79374  27.857   3.661   4.723  0.1243 -0.1543  0.1295
 6549POPC   C3A79375  27.752   3.765   5.185  0.2674 -0.0494 -0.2468
 6549POPC   C4A79376  27.911   3.926   5.590  0.1247 -0.0733 -0.2168
 6549POPC   C1B79377  28.788   3.997   4.009  0.0964 -0.5192  0.3464
 6549POPC   C2B79378  28.915   3.949   4.383 -0.1964 -0.2132 -0.2808
 6549POPC   C3B79379  28.902   4.038   4.849  0.0300 -0.4340  0.3423
 6549POPC   C4B79380  28.699   3.924   5.172 -0.1763  0.2794 -0.3079
 6550POPC   NC379381   4.967  24.537   3.763 -0.0345 -0.0933  0.0049
 6550POPC   PO479382   5.276  24.567   4.030 -0.1226 -0.0866 -0.1506
 6550POPC   GL179383   5.086  24.647   4.366  0.3894  0.4350 -0.1991
 6550POPC   GL279384   5.076  24.345   4.465  0.0461 -0.0262  0.3168
 6550POPC   C1A79385   4.864  24.997   4.643  0.1883  0.0976 -0.0312
 6550POPC   D2A79386   4.895  25.241   5.013 -0.0088  0.2844 -0.2021
 6550POPC   C3A79387   4.836  25.436   5.434  0.0376 -0.0347 -0.0928
 6550POPC   C4A79388   4.889  25.189   5.831  0.1206  0.0445  0.1046
 6550POPC   C1B79389   5.088  24.541   4.882  0.1170  0.0901  0.0199
 6550POPC   C2B79390   5.019  24.445   5.332  0.2611 -0.0004  0.0164
 6550POPC   C3B79391   5.100  24.271   5.701  0.2155 -0.2286  0.0109
 6550POPC   C4B79392   5.079  23.866   5.948  0.1454  0.0586  0.2117
 6551POPC   NC379393  15.122   4.970   3.540  0.0941 -0.1759  0.0152
 6551POPC   PO479394  15.307   4.731   3.791 -0.1978  0.0795  0.2048
 6551POPC   GL179395  15.255   4.681   4.227 -0.0719  0.0811 -0.0173
 6551POPC   GL279396  15.527   4.815   4.230  0.1188  0.1573 -0.3037
 6551POPC   C1A79397  14.907   4.669   4.529  0.0794  0.1331  0.0612
 6551POPC   D2A79398  14.691   4.556   4.956  0.1490  0.1148  0.2538
 6551POPC   C3A79399  14.642   4.871   5.310  0.0957  0.0547 -0.2611
 6551POPC   C4A79400  14.539   5.109   5.699  0.2902 -0.1841 -0.0184
 6551POPC   C1B79401  15.435   4.878   4.674  0.0614 -0.1806  0.2920
 6551POPC   C2B79402  15.534   4.778   5.052  0.0548 -0.0053  0.3451
 6551POPC   C3B79403  15.234   4.500   5.322  0.3056  0.1099  0.0100
 6551POPC   C4B79404  15.035   4.414   5.756  0.0010 -0.0449  0.2780
 6552POPC   NC379405   6.684  14.676   3.968 -0.0680 -0.3346 -0.1772
 6552POPC   PO479406   7.030  14.684   3.840  0.1325 -0.1093 -0.3298
 6552POPC   GL179407   6.964  14.877   4.244 -0.0412  0.1034  0.1422
 6552POPC   GL279408   7.170  14.840   4.406  0.1805  0.2775  0.0742
 6552POPC   C1A79409   6.620  14.762   4.507 -0.0152 -0.2363  0.0275
 6552POPC   D2A79410   6.326  14.575   4.826  0.3451  0.0490 -0.0476
 6552POPC   C3A79411   6.248  14.564   5.308  0.0086  0.3961  0.1643
 6552POPC   C4A79412   6.398  14.298   5.668  0.1404 -0.0042  0.1639
 6552POPC   C1B79413   7.012  14.893   4.849  0.0100  0.4056 -0.1702
 6552POPC   C2B79414   6.948  15.000   5.324 -0.2004 -0.1683  0.0203
 6552POPC   C3B79415   7.093  14.949   5.765  0.4788  0.1893  0.5446
 6552POPC   C4B79416   7.147  14.731   6.181 -0.2195 -0.3405 -0.0118
 6553POPC   NC379417  13.204   3.770   3.668 -0.0385  0.3798  0.2047
 6553POPC   PO479418  13.514   3.960   3.557  0.1374  0.0432  0.1785
 6553POPC   GL179419  13.504   4.154   3.900  0.1957  0.0230  0.0842
 6553POPC   GL279420  13.346   4.435   3.882  0.0376  0.2002 -0.2070
 6553POPC   C1A79421  13.782   4.130   4.290 -0.1944 -0.0018 -0.4066
 6553POPC   D2A79422  14.112   3.952   4.589  0.1243  0.3205  0.0551
 6553POPC   C3A79423  13.909   3.837   4.985 -0.2364  0.0213  0.0886
 6553POPC   C4A79424  14.124   3.699   5.410  0.2679 -0.1412 -0.0174
 6553POPC   C1B79425  13.459   4.486   4.303  0.0720  0.0800  0.1570
 6553POPC   C2B79426  13.317   4.500   4.731  0.1595 -0.1441 -0.0225
 6553POPC   C3B79427  13.251   4.528   5.172 -0.0346 -0.0247  0.4030
 6553POPC   C4B79428  12.909   4.340   5.404  0.1326  0.1450 -0.0796
 6554POPC   NC379429  27.373  24.676   3.998  0.0757  0.0098 -0.2698
 6554POPC   PO479430  27.379  24.327   3.806  0.0720  0.1070  0.0956
 6554POPC   GL179431  27.155  23.937   4.072 -0.2324  0.2302  0.1688
 6554POPC   GL279432  27.412  23.763   4.045 -0.1975 -0.2230  0.0026
 6554POPC   C1A79433  26.908  23.912   4.441 -0.0222  0.0993 -0.1468
 6554POPC   D2A79434  26.555  23.808   4.778  0.3107 -0.3603 -0.1537
 6554POPC   C3A79435  26.457  24.194   5.013 -0.0377  0.5516  0.0525
 6554POPC   C4A79436  26.484  24.459   5.378 -0.1670 -0.1765 -0.0288
 6554POPC   C1B79437  27.134  23.515   4.333  0.1362 -0.2178 -0.2460
 6554POPC   C2B79438  26.924  23.440   4.705  0.0807 -0.0551  0.0110
 6554POPC   C3B79439  26.937  23.295   5.153  0.1056  0.2425 -0.0055
 6554POPC   C4B79440  26.863  23.256   5.612  0.3841  0.1549 -0.0158
 6555POPC   NC379441  24.847  19.693   4.001  0.2414 -0.1630 -0.2249
 6555POPC   PO479442  24.473  19.728   4.034  0.0131  0.0775 -0.3740
 6555POPC   GL179443  24.565  19.514   4.347  0.1638 -0.3032 -0.3148
 6555POPC   GL279444  24.704  19.246   4.301 -0.1460 -0.0586  0.0231
 6555POPC   C1A79445  24.588  19.559   4.810  0.0431  0.0217 -0.0459
 6555POPC   D2A79446  24.729  19.259   5.168  0.1878  0.0963 -0.0871
 6555POPC   C3A79447  24.568  19.181   5.587 -0.2341  0.0206  0.1621
 6555POPC   C4A79448  24.622  18.877   5.908 -0.3446 -0.0462 -0.0404
 6555POPC   C1B79449  24.624  19.064   4.698 -0.1932 -0.0828 -0.0398
 6555POPC   C2B79450  24.349  18.959   5.085 -0.1487  0.0167  0.2194
 6555POPC   C3B79451  24.329  18.775   5.523  0.2441 -0.0739  0.0752
 6555POPC   C4B79452  24.363  18.446   5.751  0.0212 -0.1590 -0.1030
 6556POPC   NC379453  19.261   1.438   3.736  0.0808  0.0443  0.0981
 6556POPC   PO479454  18.956   1.673   3.808 -0.0698  0.0833 -0.2451
 6556POPC   GL179455  19.122   1.632   4.159 -0.0075  0.1491 -0.5635
 6556POPC   GL279456  19.415   1.653   4.184 -0.2318 -0.0306 -0.2685
 6556POPC   C1A79457  18.928   1.449   4.548 -0.1074  0.0078 -0.0015
 6556POPC   D2A79458  18.969   1.484   5.007 -0.1480  0.0436 -0.1743
 6556POPC   C3A79459  19.029   1.056   5.260  0.0349 -0.0048 -0.5849
 6556POPC   C4A79460  19.154   0.667   5.513 -0.0273  0.1104 -0.1561
 6556POPC   C1B79461  19.341   1.753   4.595 -0.0495 -0.1393 -0.0011
 6556POPC   C2B79462  19.137   1.933   4.940  0.0144 -0.3512  0.0862
 6556POPC   C3B79463  19.103   1.865   5.393  0.1953 -0.2149 -0.0943
 6556POPC   C4B79464  18.764   2.079   5.702 -0.2161  0.0460 -0.2377
 6557POPC   NC379465   9.581  13.124   3.648 -0.1043 -0.0537 -0.3012
 6557POPC   PO479466   9.751  12.886   3.932  0.1390  0.1545 -0.4371
 6557POPC   GL179467   9.533  12.716   4.325 -0.0392  0.4277 -0.5249
 6557POPC   GL279468   9.572  13.032   4.435 -0.1826 -0.1287 -0.1439
 6557POPC   C1A79469   9.535  12.552   4.748  0.3493  0.0159  0.1084
 6557POPC   D2A79470   9.232  12.401   5.093  0.2150 -0.1050  0.0763
 6557POPC   C3A79471   9.053  12.519   5.541  0.1094 -0.1206 -0.2896
 6557POPC   C4A79472   8.918  12.592   5.962 -0.3377 -0.3460 -0.2034
 6557POPC   C1B79473   9.608  12.999   4.855  0.1085 -0.1606 -0.0128
 6557POPC   C2B79474   9.570  12.731   5.200  0.0632  0.1450  0.0554
 6557POPC   C3B79475   9.657  12.605   5.618 -0.0443 -0.2989 -0.0935
 6557POPC   C4B79476   9.601  12.693   6.106 -0.2926  0.2369  0.1392
 6558POPC   NC379477  26.987   8.922   3.904 -0.1185 -0.0131 -0.1227
 6558POPC   PO479478  27.262   9.015   3.634  0.1044  0.0521 -0.0377
 6558POPC   GL179479  27.418   8.878   4.049  0.0518 -0.1679  0.1044
 6558POPC   GL279480  27.544   9.123   4.223  0.1132 -0.1630  0.2202
 6558POPC   C1A79481  27.139   8.901   4.422 -0.0052 -0.0258  0.0502
 6558POPC   D2A79482  27.151   8.589   4.754 -0.1617  0.1345  0.2381
 6558POPC   C3A79483  27.195   8.877   5.102 -0.3379  0.1227 -0.2008
 6558POPC   C4A79484  27.352   9.200   5.399  0.0548  0.1734  0.2220
 6558POPC   C1B79485  27.469   9.168   4.721 -0.0314 -0.1314  0.3296
 6558POPC   C2B79486  27.736   9.117   5.035 -0.0965 -0.1645 -0.1748
 6558POPC   C3B79487  27.879   8.799   5.411  0.0947  0.0550 -0.1431
 6558POPC   C4B79488  27.992   8.708   5.791  0.2829  0.2004  0.1803
 6559POPC   NC379489  31.008   1.941   3.811 -0.0339  0.1206  0.1670
 6559POPC   PO479490  30.677   2.176   3.744  0.0404  0.2045  0.1625
 6559POPC   GL179491  30.552   1.918   4.028 -0.0940  0.1399 -0.0161
 6559POPC   GL279492  30.679   2.117   4.201  0.0400  0.1587 -0.1607
 6559POPC   C1A79493  30.677   1.655   4.418 -0.2881  0.1420  0.1929
 6559POPC   D2A79494  30.956   1.723   4.713 -0.2928  0.1935  0.1896
 6559POPC   C3A79495  30.871   1.624   5.135  0.0542  0.0280  0.0607
 6559POPC   C4A79496  31.007   1.254   5.365 -0.0073 -0.2228 -0.2750
 6559POPC   C1B79497  30.794   2.150   4.657 -0.2222 -0.2237  0.0646
 6559POPC   C2B79498  30.862   2.115   5.099  0.0441 -0.0315 -0.0084
 6559POPC   C3B79499  31.078   1.948   5.472 -0.3860 -0.2235 -0.1924
 6559POPC   C4B79500  31.408   2.122   5.728 -0.3250 -0.2252  0.0294
 6560POPC   NC379501  20.727  23.945   3.514 -0.0404  0.2261  0.2097
 6560POPC   PO479502  20.851  23.788   3.827 -0.1936  0.0515  0.1755
 6560POPC   GL179503  21.038  23.808   4.066  0.1630 -0.3380 -0.3287
 6560POPC   GL279504  21.045  23.614   4.333  0.0540  0.1838 -0.1715
 6560POPC   C1A79505  20.969  24.137   4.403 -0.0600  0.2292 -0.2752
 6560POPC   D2A79506  20.840  24.374   4.795  0.1078 -0.1980  0.1837
 6560POPC   C3A79507  21.053  24.105   5.132 -0.1522  0.0261 -0.1451
 6560POPC   C4A79508  21.099  24.147   5.566  0.0321 -0.0669 -0.0093
 6560POPC   C1B79509  20.991  23.797   4.784 -0.0149 -0.1164 -0.1315
 6560POPC   C2B79510  20.899  23.642   5.160  0.0528 -0.0786 -0.1639
 6560POPC   C3B79511  21.009  23.622   5.601  0.0166 -0.1361  0.0791
 6560POPC   C4B79512  21.061  23.675   6.056 -0.0697  0.2374  0.2994
 6561POPC   NC379513  30.153   0.890   4.002 -0.2308 -0.2599  0.0054
 6561POPC   PO479514  29.898   1.088   3.798  0.1936 -0.0424  0.1451
 6561POPC   GL179515  29.748   1.060   4.147  0.2478  0.2860 -0.2026
 6561POPC   GL279516  29.631   0.796   4.175 -0.1293 -0.3425  0.3940
 6561POPC   C1A79517  29.932   0.930   4.536 -0.2033 -0.2199 -0.1713
 6561POPC   D2A79518  29.924   0.598   4.935  0.2059  0.0232 -0.0316
 6561POPC   C3A79519  29.954   0.660   5.404  0.0199 -0.3598  0.1373
 6561POPC   C4A79520  30.276   0.701   5.732 -0.0947  0.0514  0.1744
 6561POPC   C1B79521  29.454   1.113   4.464 -0.1918  0.3115 -0.2464
 6561POPC   C2B79522  29.597   1.160   4.907 -0.0550 -0.0647 -0.2144
 6561POPC   C3B79523  29.579   0.987   5.360  0.1740  0.2958 -0.2020
 6561POPC   C4B79524  29.707   0.978   5.853  0.0205 -0.1125 -0.0356
 6562POPC   NC379525  21.946  10.493   3.654  0.2639 -0.3350  0.0314
 6562POPC   PO479526  22.056  10.846   3.479  0.0481 -0.0650  0.2191
 6562POPC   GL179527  22.193  10.894   3.859  0.0882 -0.5494  0.0278
 6562POPC   GL279528  21.893  11.003   4.054  0.2509 -0.0732 -0.0048
 6562POPC   C1A79529  22.303  11.084   4.292 -0.0453 -0.3797 -0.0978
 6562POPC   D2A79530  22.348  10.918   4.717  0.3644 -0.2054 -0.5195
 6562POPC   C3A79531  22.402  10.979   5.200  0.0612 -0.0974 -0.2173
 6562POPC   C4A79532  22.726  10.920   5.560 -0.1389  0.1593  0.1287
 6562POPC   C1B79533  21.806  11.003   4.580  0.1448 -0.1716 -0.0201
 6562POPC   C2B79534  21.939  10.931   5.010  0.3912 -0.1712 -0.0088
 6562POPC   C3B79535  21.667  10.907   5.388  0.0929 -0.0160  0.2756
 6562POPC   C4B79536  21.546  10.790   5.753  0.0128 -0.0847 -0.1871
 6563POPC   NC379537  10.117   1.302   4.420  0.0258 -0.3263  0.1369
 6563POPC   PO479538  10.054   1.544   4.146  0.1234  0.0796  0.0198
 6563POPC   GL179539   9.678   1.491   4.320 -0.0308 -0.0802  0.0633
 6563POPC   GL279540   9.637   1.285   4.515  0.1913 -0.1208  0.3746
 6563POPC   C1A79541   9.283   1.687   4.491 -0.2319 -0.0165  0.0761
 6563POPC   D2A79542   9.163   1.639   4.947 -0.1190  0.3080 -0.2983
 6563POPC   C3A79543   9.531   1.523   5.255 -0.0538  0.0611  0.2865
 6563POPC   C4A79544   9.859   1.664   5.515 -0.0297  0.0008 -0.2444
 6563POPC   C1B79545   9.865   1.419   4.881 -0.0093  0.1500 -0.0984
 6563POPC   C2B79546  10.147   1.679   5.070  0.3765  0.1730  0.2105
 6563POPC   C3B79547  10.590   1.805   5.241  0.1322 -0.2062 -0.3358
 6563POPC   C4B79548  10.682   2.065   5.608 -0.3082 -0.0074  0.1131
 6564POPC   NC379549  25.199  10.909   2.977 -0.2468 -0.0788  0.1438
 6564POPC   PO479550  25.384  11.012   3.327  0.2388  0.2384  0.0225
 6564POPC   GL179551  25.163  11.115   3.664  0.0568 -0.0109 -0.3071
 6564POPC   GL279552  24.902  11.085   3.789  0.2917 -0.0719  0.1581
 6564POPC   C1A79553  25.261  11.147   4.135  0.0130  0.4396 -0.1412
 6564POPC   D2A79554  25.145  11.496   4.455  0.3156  0.2733 -0.0348
 6564POPC   C3A79555  25.141  11.350   4.848 -0.3590  0.3336 -0.2671
 6564POPC   C4A79556  25.065  11.513   5.261  0.1026 -0.1106 -0.1122
 6564POPC   C1B79557  24.740  11.229   4.205  0.2377  0.2222 -0.0938
 6564POPC   C2B79558  24.676  11.290   4.663  0.1337 -0.1775  0.3117
 6564POPC   C3B79559  24.763  11.143   5.101  0.0958 -0.3943 -0.1492
 6564POPC   C4B79560  24.926  11.062   5.521 -0.0644  0.1631 -0.1904
 6565POPC   NC379561   8.099  30.955   3.364  0.0814 -0.1134 -0.2219
 6565POPC   PO479562   7.769  30.726   3.393 -0.1004 -0.2581 -0.0418
 6565POPC   GL179563   7.709  30.655   3.686 -0.0352  0.3896  0.1238
 6565POPC   GL279564   7.766  30.478   3.931  0.0073  0.1579  0.1800
 6565POPC   C1A79565   7.466  30.855   4.005 -0.3387  0.0450 -0.3795
 6565POPC   D2A79566   7.564  31.077   4.452 -0.1811 -0.1248 -0.0819
 6565POPC   C3A79567   7.188  31.233   4.783  0.0356 -0.0211  0.1188
 6565POPC   C4A79568   6.980  31.494   5.101  0.0188 -0.2309  0.1184
 6565POPC   C1B79569   7.895  30.625   4.359  0.0343  0.2928  0.2984
 6565POPC   C2B79570   7.911  30.722   4.787  0.1469 -0.4109  0.1838
 6565POPC   C3B79571   8.097  30.502   5.156  0.1062  0.3180 -0.1532
 6565POPC   C4B79572   8.295  30.358   5.538  0.0666  0.1592 -0.1092
 6566POPC   NC379573  27.858  16.927   3.668 -0.0480  0.1071 -0.0070
 6566POPC   PO479574  27.512  16.890   3.609 -0.2687 -0.4941  0.0105
 6566POPC   GL179575  27.442  16.921   4.055  0.4087  0.1810 -0.0585
 6566POPC   GL279576  27.664  16.776   4.158  0.0335  0.1313 -0.1430
 6566POPC   C1A79577  27.612  17.239   4.430 -0.1446 -0.0340 -0.2038
 6566POPC   D2A79578  27.618  17.413   4.850  0.0027 -0.1135  0.0038
 6566POPC   C3A79579  27.599  17.817   5.052 -0.1464  0.0070 -0.0278
 6566POPC   C4A79580  28.002  17.938   5.258 -0.0827 -0.0382 -0.1253
 6566POPC   C1B79581  28.036  17.093   4.220  0.4983 -0.1308  0.1228
 6566POPC   C2B79582  28.064  17.247   4.649 -0.1269  0.2319 -0.0550
 6566POPC   C3B79583  28.186  17.542   5.038  0.0949  0.1418 -0.1123
 6566POPC   C4B79584  28.424  17.729   5.349  0.0910 -0.1041  0.0482
 6567POPC   NC379585  19.063  26.496   4.003  0.1823 -0.0865 -0.0158
 6567POPC   PO479586  18.883  26.847   4.020 -0.7839  0.0063 -0.2690
 6567POPC   GL179587  18.959  27.034   4.358  0.1368  0.5081  0.4588
 6567POPC   GL279588  19.067  26.737   4.489 -0.0469 -0.1340  0.2401
 6567POPC   C1A79589  19.235  27.266   4.686 -0.2001 -0.0960 -0.0833
 6567POPC   D2A79590  19.412  27.495   5.034  0.1720 -0.2701 -0.2623
 6567POPC   C3A79591  19.493  27.166   5.352 -0.0040  0.1497  0.0160
 6567POPC   C4A79592  19.487  26.925   5.776  0.1174  0.2674 -0.1206
 6567POPC   C1B79593  18.947  26.956   4.895  0.2742  0.3948  0.0278
 6567POPC   C2B79594  18.971  26.983   5.309 -0.5167  0.4388 -0.0856
 6567POPC   C3B79595  19.012  27.211   5.655  0.0810  0.0212 -0.1303
 6567POPC   C4B79596  18.740  27.288   6.027  0.0553 -0.0168 -0.0707
 6568POPC   NC379597   0.121  29.776   3.631  0.0128 -0.0026  0.1490
 6568POPC   PO479598  -0.090  29.982   3.862  0.0298 -0.1481 -0.0547
 6568POPC   GL179599  -0.066  29.860   4.226  0.3084 -0.0387 -0.0991
 6568POPC   GL279600   0.019  29.726   4.489 -0.1389 -0.1361 -0.1108
 6568POPC   C1A79601  -0.445  29.849   4.495 -0.0763  0.0177  0.2818
 6568POPC   D2A79602  -0.734  30.187   4.547 -0.0345 -0.0339  0.2689
 6568POPC   C3A79603  -1.112  30.409   4.633 -0.0064 -0.0299 -0.0721
 6568POPC   C4A79604  -1.287  30.618   5.027  0.2525 -0.3110  0.0163
 6568POPC   C1B79605  -0.057  29.834   4.885  0.2505 -0.0787 -0.1456
 6568POPC   C2B79606  -0.037  29.736   5.365  0.1822  0.0901  0.1988
 6568POPC   C3B79607   0.338  29.613   5.625  0.0973 -0.1900  0.0229
 6568POPC   C4B79608   0.725  29.356   5.783  0.1234 -0.2932 -0.0658
 6569POPC   NC379609   3.244  19.775   3.540  0.1020  0.0936  0.2626
 6569POPC   PO479610   3.392  19.426   3.432 -0.0776  0.0036  0.1268
 6569POPC   GL179611   3.147  19.237   3.656  0.0112 -0.0743 -0.0745
 6569POPC   GL279612   3.032  19.424   3.803 -0.1556  0.1143 -0.0429
 6569POPC   C1A79613   3.207  19.031   4.087  0.2187 -0.2180  0.2668
 6569POPC   D2A79614   3.597  18.933   4.268  0.1563  0.0680  0.0178
 6569POPC   C3A79615   3.811  19.061   4.696  0.0310  0.0369 -0.1453
 6569POPC   C4A79616   3.789  19.224   5.133  0.2500  0.0956 -0.3623
 6569POPC   C1B79617   2.953  19.439   4.212 -0.1185 -0.1808 -0.1880
 6569POPC   C2B79618   2.728  19.642   4.568  0.1719  0.0231 -0.0422
 6569POPC   C3B79619   2.394  19.766   4.912  0.0451 -0.0037  0.1215
 6569POPC   C4B79620   2.216  19.511   5.272  0.0401  0.2697  0.0818
 6570POPC   NC379621   8.786  10.384   3.570  0.1412  0.2708  0.1474
 6570POPC   PO479622   8.459  10.217   3.670  0.1225 -0.2341 -0.1855
 6570POPC   GL179623   8.112  10.109   3.897  0.0865  0.2482 -0.0417
 6570POPC   GL279624   8.036  10.370   4.009 -0.1074 -0.0329 -0.2110
 6570POPC   C1A79625   8.185   9.886   4.310  0.2152  0.0007 -0.1264
 6570POPC   D2A79626   8.355   9.598   4.571  0.0935 -0.1235  0.1578
 6570POPC   C3A79627   8.168   9.589   4.968  0.0015  0.0231  0.0632
 6570POPC   C4A79628   8.372   9.739   5.375 -0.1412 -0.1898 -0.1593
 6570POPC   C1B79629   7.617  10.461   4.147 -0.0470 -0.2589  0.2054
 6570POPC   C2B79630   7.306  10.596   4.446 -0.0844 -0.3869  0.1655
 6570POPC   C3B79631   7.181  10.891   4.768 -0.0912 -0.3552 -0.2394
 6570POPC   C4B79632   7.220  11.146   5.167  0.1711 -0.0240  0.1141
 6571POPC   NC379633  23.430  13.259   3.762 -0.0423  0.0849 -0.0397
 6571POPC   PO479634  23.135  13.060   3.577 -0.1094  0.0448  0.0869
 6571POPC   GL179635  22.997  13.029   3.923  0.0683 -0.2549  0.3565
 6571POPC   GL279636  22.749  13.260   3.871 -0.1276 -0.0006 -0.1185
 6571POPC   C1A79637  23.238  13.168   4.326  0.0108 -0.2405  0.0658
 6571POPC   D2A79638  23.355  13.447   4.669 -0.1917  0.0945  0.2673
 6571POPC   C3A79639  23.476  13.306   5.081  0.1509 -0.1230  0.1256
 6571POPC   C4A79640  23.897  13.273   5.337  0.4188  0.0619 -0.2008
 6571POPC   C1B79641  22.339  13.255   4.158 -0.1628 -0.1237  0.1401
 6571POPC   C2B79642  21.977  13.234   4.504  0.0541  0.1443  0.0313
 6571POPC   C3B79643  21.702  13.284   4.869  0.1003 -0.0546  0.1109
 6571POPC   C4B79644  21.667  13.560   5.187  0.2084 -0.0653 -0.0412
 6572POPC   NC379645  26.147  19.501   3.669  0.1852  0.0183  0.0888
 6572POPC   PO479646  25.764  19.365   3.703  0.5050 -0.2827  0.2065
 6572POPC   GL179647  25.726  19.382   4.102 -0.0941 -0.0277  0.3729
 6572POPC   GL279648  26.038  19.330   4.176 -0.1452 -0.5556 -0.1695
 6572POPC   C1A79649  25.693  19.148   4.446 -0.1046  0.1220 -0.1607
 6572POPC   D2A79650  25.937  18.950   4.769  0.2689  0.1848 -0.3234
 6572POPC   C3A79651  25.798  18.721   5.156  0.0552  0.3817  0.1002
 6572POPC   C4A79652  25.793  18.612   5.592 -0.0476  0.2657 -0.3315
 6572POPC   C1B79653  26.291  19.291   4.562  0.0134  0.2088 -0.2339
 6572POPC   C2B79654  26.651  19.113   4.783 -0.0988 -0.0969 -0.0520
 6572POPC   C3B79655  26.808  19.265   5.168 -0.0058 -0.1883  0.2465
 6572POPC   C4B79656  26.782  19.350   5.647  0.2391  0.0055 -0.1620
 6573POPC   NC379657  14.935  19.819   3.441 -0.2544 -0.0572  0.1515
 6573POPC   PO479658  15.002  20.109   3.712 -0.1464  0.2765 -0.0546
 6573POPC   GL179659  14.755  20.046   4.010 -0.3060 -0.2004 -0.0211
 6573POPC   GL279660  14.622  20.287   4.006  0.2567 -0.0657 -0.0407
 6573POPC   C1A79661  14.340  19.835   4.021  0.1879  0.3225 -0.1211
 6573POPC   D2A79662  14.133  19.451   4.018  0.1581  0.0522 -0.1328
 6573POPC   C3A79663  13.947  19.197   4.418 -0.0358 -0.3054  0.3144
 6573POPC   C4A79664  13.680  19.074   4.759  0.0059 -0.1525  0.1820
 6573POPC   C1B79665  14.229  20.302   4.273  0.0506 -0.2334 -0.0692
 6573POPC   C2B79666  13.984  20.169   4.647  0.1866  0.3401  0.0300
 6573POPC   C3B79667  13.782  20.088   5.053 -0.0115  0.1716 -0.3459
 6573POPC   C4B79668  13.641  20.184   5.493  0.0540  0.0580  0.0145
 6574POPC   NC379669  21.619  19.943   3.392 -0.1685  0.1075 -0.3788
 6574POPC   PO479670  21.567  20.165   3.674  0.2050  0.1554 -0.1157
 6574POPC   GL179671  21.375  19.981   3.928  0.2301  0.3660 -0.0530
 6574POPC   GL279672  21.567  19.753   3.934  0.1321  0.1656 -0.0008
 6574POPC   C1A79673  21.190  19.966   4.353  0.1844 -0.0881  0.0331
 6574POPC   D2A79674  20.859  20.206   4.628 -0.0736 -0.1837  0.1440
 6574POPC   C3A79675  20.489  20.438   4.901 -0.0485 -0.0168  0.0931
 6574POPC   C4A79676  20.413  20.599   5.358 -0.0186  0.1611  0.1932
 6574POPC   C1B79677  21.335  19.374   3.854 -0.3291 -0.0060  0.0478
 6574POPC   C2B79678  21.371  19.000   4.074 -0.0862 -0.2583 -0.0387
 6574POPC   C3B79679  21.306  18.620   4.338  0.0192  0.1050  0.2493
 6574POPC   C4B79680  20.953  18.566   4.591 -0.0334  0.3157  0.0204
 6575POPC   NC379681   4.738  28.930   3.257  0.1226  0.0956 -0.2210
 6575POPC   PO479682   4.791  29.316   3.141 -0.1356 -0.1772 -0.0798
 6575POPC   GL179683   4.787  29.235   3.586  0.1432  0.0793  0.2004
 6575POPC   GL279684   4.570  29.445   3.595  0.2559  0.0184  0.0882
 6575POPC   C1A79685   4.563  28.870   3.740 -0.0502 -0.0412 -0.2583
 6575POPC   D2A79686   4.323  28.810   4.155 -0.0558 -0.2123  0.2639
 6575POPC   C3A79687   4.360  28.881   4.595 -0.3307 -0.4520 -0.1017
 6575POPC   C4A79688   4.464  28.930   5.060 -0.1572  0.2760  0.0583
 6575POPC   C1B79689   4.345  29.308   3.981 -0.1560  0.0129  0.0548
 6575POPC   C2B79690   4.432  29.330   4.435 -0.3533  0.1366 -0.5082
 6575POPC   C3B79691   4.312  29.378   4.894 -0.0957 -0.2936  0.4797
 6575POPC   C4B79692   4.323  29.407   5.288 -0.0718  0.2426 -0.0714
 6576POPC   NC379693  15.916  19.388   3.548  0.2692  0.1154  0.0570
 6576POPC   PO479694  16.299  19.223   3.576 -0.0513  0.2004  0.1122
 6576POPC   GL179695  16.286  19.171   3.953  0.2778  0.4453 -0.1514
 6576POPC   GL279696  16.432  18.933   3.942 -0.0378 -0.0134  0.1814
 6576POPC   C1A79697  15.984  19.343   4.275  0.0486  0.1531 -0.3647
 6576POPC   D2A79698  15.828  19.503   4.671 -0.0185 -0.0600 -0.2808
 6576POPC   C3A79699  15.989  19.417   5.129 -0.0150  0.1175  0.1608
 6576POPC   C4A79700  16.176  19.370   5.565  0.0037 -0.3198 -0.3294
 6576POPC   C1B79701  16.165  18.874   4.318 -0.0491  0.0889  0.0695
 6576POPC   C2B79702  15.859  18.958   4.619 -0.1825  0.3617 -0.0812
 6576POPC   C3B79703  15.666  19.125   4.936  0.0604 -0.0762  0.1783
 6576POPC   C4B79704  15.392  19.185   5.285  0.0039 -0.1654  0.1860
 6577POPC   NC379705  30.240  25.741   3.424  0.1550 -0.0382  0.1256
 6577POPC   PO479706  30.478  25.653   3.712 -0.3140 -0.0213  0.2913
 6577POPC   GL179707  30.540  25.571   4.114 -0.0184 -0.0926 -0.1632
 6577POPC   GL279708  30.275  25.663   4.236 -0.2351 -0.0415  0.0498
 6577POPC   C1A79709  30.881  25.609   4.457  0.0231 -0.0652  0.2996
 6577POPC   D2A79710  31.069  25.537   4.888  0.2147  0.3553 -0.1389
 6577POPC   C3A79711  31.482  25.511   5.166  0.1843  0.2158  0.2750
 6577POPC   C4A79712  31.873  25.324   5.345  0.0801 -0.1056  0.2591
 6577POPC   C1B79713  30.448  25.651   4.615 -0.0553 -0.1298  0.1766
 6577POPC   C2B79714  30.610  25.676   4.992 -0.0328  0.1845 -0.1147
 6577POPC   C3B79715  30.440  25.388   5.284  0.2390  0.0347 -0.0091
 6577POPC   C4B79716  30.089  25.460   5.593 -0.2339  0.1969 -0.1008
 6578POPC   NC379717   9.766  23.323   4.102  0.2983 -0.0217 -0.0082
 6578POPC   PO479718  10.073  23.515   4.250 -0.0643 -0.0506 -0.4966
 6578POPC   GL179719   9.970  23.451   4.540 -0.0862  0.2902 -0.1025
 6578POPC   GL279720   9.774  23.562   4.680  0.1380 -0.0155 -0.0820
 6578POPC   C1A79721  10.106  23.581   5.023  0.1948 -0.0046  0.2502
 6578POPC   D2A79722  10.466  23.801   5.254  0.0631 -0.1370  0.0474
 6578POPC   C3A79723  10.427  24.029   5.640  0.0097 -0.2370  0.1743
 6578POPC   C4A79724  10.089  24.331   5.840  0.0473 -0.2091  0.0801
 6578POPC   C1B79725   9.638  23.682   5.147  0.0649  0.0165  0.1212
 6578POPC   C2B79726   9.352  23.704   5.492  0.0522 -0.1565  0.0006
 6578POPC   C3B79727   8.978  23.915   5.420 -0.2736  0.1131 -0.1891
 6578POPC   C4B79728   8.630  23.871   5.142 -0.1160 -0.1441  0.0728
 6579POPC   NC379729  11.637  31.408   3.603  0.1998 -0.1373  0.0689
 6579POPC   PO479730  11.946  31.549   3.370 -0.4407  0.2041 -0.2904
 6579POPC   GL179731  12.067  31.612   3.746 -0.0869 -0.2461  0.0638
 6579POPC   GL279732  12.389  31.659   3.776  0.2279  0.0729  0.0501
 6579POPC   C1A79733  11.896  31.815   4.146 -0.0688  0.2961  0.3682
 6579POPC   D2A79734  11.605  31.966   4.500 -0.3311  0.4140  0.0755
 6579POPC   C3A79735  11.670  31.753   4.904 -0.0604 -0.1082  0.1209
 6579POPC   C4A79736  11.546  31.370   5.199  0.2055 -0.0756 -0.2331
 6579POPC   C1B79737  12.273  31.500   4.187 -0.0365  0.0029 -0.0660
 6579POPC   C2B79738  12.139  31.588   4.596 -0.2508  0.0020 -0.3544
 6579POPC   C3B79739  12.213  31.706   5.061  0.0770  0.1558 -0.0624
 6579POPC   C4B79740  12.399  32.091   5.200  0.1780  0.0371 -0.2887
 6580POPC   NC379741  22.223  16.504   3.647 -0.0690 -0.1480  0.0216
 6580POPC   PO479742  22.234  16.116   3.626 -0.1264  0.0146  0.1458
 6580POPC   GL179743  22.031  15.884   3.406 -0.1661 -0.1159  0.0126
 6580POPC   GL279744  22.022  15.669   3.588 -0.1235 -0.0481  0.0236
 6580POPC   C1A79745  21.738  15.574   3.241 -0.1188 -0.2456  0.2404
 6580POPC   D2A79746  21.324  15.567   3.066 -0.0074  0.0484  0.0598
 6580POPC   C3A79747  20.869  15.565   2.930 -0.0114  0.1760  0.0972
 6580POPC   C4A79748  20.469  15.391   3.136 -0.1185 -0.0950  0.0144
 6580POPC   C1B79749  21.739  15.592   3.971 -0.0378  0.0082  0.1026
 6580POPC   C2B79750  21.623  15.653   4.407 -0.1473 -0.0444  0.0754
 6580POPC   C3B79751  21.506  15.335   4.782  0.1586  0.1767  0.0304
 6580POPC   C4B79752  21.539  15.323   5.266  0.2688 -0.0503  0.0416
 6581POPC   NC379753  16.629  19.508   3.939  0.4885 -0.0710  0.2789
 6581POPC   PO479754  16.751  19.881   4.002 -0.0568 -0.0416 -0.0472
 6581POPC   GL179755  16.667  19.907   4.370  0.1006 -0.0726 -0.4496
 6581POPC   GL279756  16.763  19.699   4.550 -0.0556 -0.4020  0.0347
 6581POPC   C1A79757  16.706  20.147   4.739  0.1331  0.0214 -0.2188
 6581POPC   D2A79758  16.657  20.524   4.895  0.1203  0.1302 -0.3897
 6581POPC   C3A79759  16.329  20.686   5.175  0.0370 -0.1640  0.0112
 6581POPC   C4A79760  16.152  20.717   5.576 -0.0985  0.1969 -0.2332
 6581POPC   C1B79761  16.667  19.717   5.014 -0.2425  0.1797 -0.1660
 6581POPC   C2B79762  16.841  19.797   5.420  0.0584 -0.2284 -0.2601
 6581POPC   C3B79763  17.224  19.902   5.674 -0.1754  0.0542 -0.0288
 6581POPC   C4B79764  17.452  19.735   6.025 -0.3391  0.0095  0.1121
 6582POPC   NC379765  15.954  21.277   3.613  0.0858  0.0647  0.0460
 6582POPC   PO479766  15.643  21.184   3.381 -0.2724 -0.1253 -0.3316
 6582POPC   GL179767  15.389  21.038   3.690  0.4888  0.2377 -0.4167
 6582POPC   GL279768  15.447  21.357   3.854  0.3376  0.1445 -0.3838
 6582POPC   C1A79769  15.111  20.872   4.036 -0.0504  0.0226 -0.1859
 6582POPC   D2A79770  15.006  20.500   4.250 -0.0576 -0.0760  0.2718
 6582POPC   C3A79771  15.072  20.342   4.655 -0.0393 -0.0323  0.0836
 6582POPC   C4A79772  15.245  20.183   5.039  0.1360 -0.0305  0.3736
 6582POPC   C1B79773  15.319  21.440   4.274  0.0736  0.0869  0.0832
 6582POPC   C2B79774  15.182  21.421   4.694  0.1381  0.3573 -0.0087
 6582POPC   C3B79775  15.034  21.122   5.082  0.0570 -0.0249  0.0652
 6582POPC   C4B79776  15.190  20.891   5.431 -0.1760 -0.0865 -0.0386
 6583POPC   NC379777  17.726  30.514   3.096 -0.0650 -0.1264 -0.1452
 6583POPC   PO479778  17.903  30.556   3.403  0.1534  0.2523  0.0904
 6583POPC   GL179779  17.830  30.589   3.757  0.1693  0.2995  0.1165
 6583POPC   GL279780  17.570  30.539   3.781  0.2627 -0.1935  0.1584
 6583POPC   C1A79781  18.113  30.639   4.107 -0.1377  0.0195 -0.1923
 6583POPC   D2A79782  18.517  30.818   4.251  0.0867 -0.1746  0.0950
 6583POPC   C3A79783  18.451  30.832   4.735 -0.0368  0.1684  0.1301
 6583POPC   C4A79784  18.311  31.155   5.122  0.0669 -0.1036  0.0911
 6583POPC   C1B79785  17.677  30.561   4.248  0.0310  0.0675 -0.0588
 6583POPC   C2B79786  17.664  30.590   4.711  0.1970  0.1929 -0.0006
 6583POPC   C3B79787  18.019  30.630   4.988 -0.0027 -0.2052  0.1253
 6583POPC   C4B79788  18.321  30.712   5.345 -0.3259 -0.0964  0.0620
 6584POPC   NC379789  28.362   9.120   4.111  0.1477  0.1442 -0.0698
 6584POPC   PO479790  28.599   8.826   3.992  0.0380  0.2208 -0.2851
 6584POPC   GL179791  28.670   8.869   4.399  0.1699  0.1719 -0.4637
 6584POPC   GL279792  28.752   9.137   4.458  0.0705  0.0766  0.3570
 6584POPC   C1A79793  28.826   8.751   4.867 -0.2349 -0.2098 -0.1752
 6584POPC   D2A79794  28.807   8.533   5.223  0.1752  0.0014 -0.1074
 6584POPC   C3A79795  29.151   8.663   5.554 -0.1780 -0.3236 -0.0459
 6584POPC   C4A79796  29.411   9.024   5.565  0.0190 -0.0367 -0.2098
 6584POPC   C1B79797  28.907   9.258   4.856  0.4367  0.1196 -0.1333
 6584POPC   C2B79798  28.881   9.054   5.266 -0.0136  0.1034  0.0150
 6584POPC   C3B79799  28.914   9.221   5.686  0.0255 -0.3501 -0.1754
 6584POPC   C4B79800  28.827   9.458   6.060  0.0754  0.0173 -0.0988
 6585POPC   NC379801  19.259  30.263   3.976 -0.0278  0.2661  0.0709
 6585POPC   PO479802  19.078  30.302   3.636 -0.1024  0.1091 -0.0580
 6585POPC   GL179803  18.707  30.349   3.897 -0.4227  0.1694  0.2525
 6585POPC   GL279804  18.842  30.018   4.025 -0.0505 -0.0884  0.0504
 6585POPC   C1A79805  18.400  30.251   4.159 -0.0464  0.4037  0.0648
 6585POPC   D2A79806  18.285  30.180   4.564 -0.0143 -0.0219  0.0406
 6585POPC   C3A79807  18.493  30.367   4.938  0.1737 -0.2574  0.2217
 6585POPC   C4A79808  18.640  30.244   5.299  0.2617 -0.1778  0.1225
 6585POPC   C1B79809  18.616  29.860   4.432 -0.2060 -0.0691  0.0870
 6585POPC   C2B79810  18.445  29.686   4.878 -0.1905  0.2561  0.0064
 6585POPC   C3B79811  18.146  29.721   5.257  0.1970 -0.2576 -0.2030
 6585POPC   C4B79812  17.847  29.564   5.550 -0.1430  0.2016  0.1214
 6586POPC   NC379813   4.387  18.090   3.073  0.3793  0.0283  0.0443
 6586POPC   PO479814   4.313  17.995   3.456 -0.0467  0.0308  0.1573
 6586POPC   GL179815   4.170  18.230   3.673  0.0860  0.1699  0.2173
 6586POPC   GL279816   4.187  18.019   3.940  0.3759 -0.0311 -0.1605
 6586POPC   C1A79817   4.073  18.519   4.045  0.1502 -0.3222 -0.1422
 6586POPC   D2A79818   4.171  18.733   4.436  0.1662 -0.5969 -0.0828
 6586POPC   C3A79819   4.292  18.501   4.818  0.0873  0.0866 -0.1337
 6586POPC   C4A79820   4.237  18.182   5.169  0.0224 -0.3312  0.3097
 6586POPC   C1B79821   4.122  18.126   4.411  0.1604 -0.0155 -0.1495
 6586POPC   C2B79822   3.868  18.110   4.782  0.1036  0.1292 -0.0490
 6586POPC   C3B79823   3.756  18.213   5.218 -0.0673  0.0679 -0.1301
 6586POPC   C4B79824   3.527  18.171   5.582 -0.0262 -0.1226  0.0387
 6587POPC   NC379825  22.905  22.692   3.543  0.0388  0.1529  0.1110
 6587POPC   PO479826  23.260  22.641   3.679 -0.2105  0.1696  0.0874
 6587POPC   GL179827  23.128  22.508   3.994 -0.0665  0.1631 -0.3691
 6587POPC   GL279828  22.932  22.376   4.039  0.0187  0.1017 -0.1223
 6587POPC   C1A79829  23.108  22.608   4.484  0.0503 -0.2590 -0.0461
 6587POPC   D2A79830  23.362  22.733   4.822  0.1111  0.0260  0.2124
 6587POPC   C3A79831  23.164  22.860   5.186 -0.0632 -0.3848  0.0055
 6587POPC   C4A79832  22.916  23.196   5.261 -0.1296 -0.1479 -0.0680
 6587POPC   C1B79833  22.988  22.096   4.451 -0.3032  0.0732  0.0227
 6587POPC   C2B79834  22.828  21.916   4.866  0.0948  0.1149 -0.3000
 6587POPC   C3B79835  22.625  21.539   5.044 -0.0107  0.4596  0.0338
 6587POPC   C4B79836  22.307  21.252   5.196  0.2000  0.4497  0.0487
 6588POPC   NC379837  11.147  17.581   3.765  0.0419 -0.0442 -0.4185
 6588POPC   PO479838  11.163  17.894   3.550  0.4341 -0.0171  0.0109
 6588POPC   GL179839  11.254  18.014   3.902 -0.1079 -0.3077 -0.1760
 6588POPC   GL279840  11.524  18.179   3.782 -0.1324  0.3038 -0.0488
 6588POPC   C1A79841  11.341  18.355   4.229  0.0262  0.0796  0.1467
 6588POPC   D2A79842  11.174  18.333   4.638 -0.1254  0.2078  0.1368
 6588POPC   C3A79843  10.874  18.365   4.988 -0.2696 -0.1036 -0.0684
 6588POPC   C4A79844  10.847  18.219   5.395 -0.2405 -0.1492  0.0548
 6588POPC   C1B79845  11.698  17.963   4.183  0.0887 -0.0621  0.2690
 6588POPC   C2B79846  12.065  18.016   4.494 -0.1800  0.0216 -0.1066
 6588POPC   C3B79847  12.183  18.129   4.904 -0.0270  0.1652  0.0779
 6588POPC   C4B79848  12.453  18.321   5.214 -0.1139  0.0235 -0.1168
 6589POPC   NC379849   9.611  13.827   4.105  0.0485  0.2163  0.2061
 6589POPC   PO479850   9.821  13.592   3.845 -0.1326 -0.2850  0.0808
 6589POPC   GL179851   9.999  13.566   4.195 -0.4202  0.0548  0.1740
 6589POPC   GL279852   9.988  13.817   4.450 -0.1530 -0.2717  0.0446
 6589POPC   C1A79853   9.946  13.353   4.592 -0.1404  0.1157 -0.0617
 6589POPC   D2A79854   9.869  13.426   5.070 -0.1556  0.3094  0.0002
 6589POPC   C3A79855   9.624  13.191   5.380  0.0985 -0.5482  0.0237
 6589POPC   C4A79856   9.367  13.014   5.746  0.2041  0.4368  0.0767
 6589POPC   C1B79857   9.896  14.217   4.624 -0.0666  0.0689  0.1059
 6589POPC   C2B79858   9.633  14.347   5.041 -0.2762 -0.1865 -0.0513
 6589POPC   C3B79859   9.472  14.290   5.446  0.1227  0.2024 -0.1795
 6589POPC   C4B79860   9.710  14.296   5.844 -0.2312  0.1115 -0.0506
 6590POPC   NC379861  18.213  31.521   3.293 -0.0425 -0.0308  0.1231
 6590POPC   PO479862  18.507  31.812   3.325  0.3682 -0.2911  0.1520
 6590POPC   GL179863  18.492  31.676   3.778 -0.1607 -0.0311  0.0258
 6590POPC   GL279864  18.711  31.522   3.776 -0.1362  0.2915 -0.2267
 6590POPC   C1A79865  18.507  31.816   4.231  0.1776  0.0627 -0.0950
 6590POPC   D2A79866  18.210  31.875   4.659 -0.1875 -0.0277 -0.0684
 6590POPC   C3A79867  17.959  32.281   4.758 -0.1429  0.1564 -0.3287
 6590POPC   C4A79868  18.029  32.694   4.620  0.1884 -0.4586  0.2622
 6590POPC   C1B79869  18.927  31.471   4.149  0.2537  0.3208  0.1106
 6590POPC   C2B79870  19.046  31.091   4.299  0.0679  0.1055  0.3383
 6590POPC   C3B79871  18.949  30.884   4.642 -0.2221 -0.0657 -0.2444
 6590POPC   C4B79872  18.876  31.149   5.030  0.2533  0.0338 -0.3911
 6591POPC   NC379873  26.444   3.975   3.981 -0.0430  0.1649  0.1464
 6591POPC   PO479874  26.350   4.338   4.135  0.1654 -0.2047  0.0127
 6591POPC   GL179875  26.270   4.477   4.559  0.1764  0.2114  0.0076
 6591POPC   GL279876  26.151   4.180   4.598  0.0217 -0.1264 -0.3292
 6591POPC   C1A79877  26.558   4.698   4.913 -0.0198  0.0930 -0.1529
 6591POPC   D2A79878  26.662   4.827   5.326  0.2457  0.2266  0.3613
 6591POPC   C3A79879  26.492   4.594   5.675 -0.0285 -0.1847 -0.1200
 6591POPC   C4A79880  26.390   4.182   5.852  0.3746 -0.2391 -0.1942
 6591POPC   C1B79881  26.228   4.296   5.024 -0.0808 -0.0187 -0.0807
 6591POPC   C2B79882  26.152   4.159   5.413  0.1215 -0.0532 -0.1403
 6591POPC   C3B79883  25.928   4.079   5.863  0.1305  0.0819 -0.0286
 6591POPC   C4B79884  25.712   3.878   6.276 -0.2339  0.0623 -0.0539
 6592POPC   NC379885   2.622   7.942   3.404 -0.0627  0.1226  0.2507
 6592POPC   PO479886   2.368   7.631   3.382 -0.0450 -0.2374  0.0418
 6592POPC   GL179887   2.340   7.839   3.787  0.0506 -0.1108 -0.0840
 6592POPC   GL279888   2.549   7.692   3.893 -0.4364 -0.1245 -0.0673
 6592POPC   C1A79889   2.461   8.099   4.148 -0.1625 -0.0912  0.0370
 6592POPC   D2A79890   2.580   7.990   4.583 -0.0569 -0.5044 -0.0419
 6592POPC   C3A79891   2.542   8.189   5.014 -0.0975  0.0767 -0.1857
 6592POPC   C4A79892   2.233   8.479   5.154 -0.0129  0.0660  0.2478
 6592POPC   C1B79893   2.229   7.610   4.240 -0.1553 -0.1727 -0.2107
 6592POPC   C2B79894   2.189   7.782   4.697  0.1176  0.0227  0.1797
 6592POPC   C3B79895   2.170   7.880   5.186 -0.1334 -0.0690 -0.0058
 6592POPC   C4B79896   2.000   8.143   5.470  0.1574 -0.2180  0.0334
 6593POPC   NC379897  20.141  28.455   3.666 -0.2251  0.4516 -0.2357
 6593POPC   PO479898  20.092  28.770   3.897 -0.1336 -0.3126  0.1285
 6593POPC   GL179899  20.150  28.668   4.230 -0.2586 -0.0690  0.3197
 6593POPC   GL279900  20.199  28.418   4.247 -0.1029 -0.1027  0.0573
 6593POPC   C1A79901  20.491  28.937   4.456 -0.0180 -0.1367 -0.0283
 6593POPC   D2A79902  20.522  29.178   4.872  0.3342  0.1806 -0.0219
 6593POPC   C3A79903  20.200  29.380   5.177  0.3132 -0.0262 -0.0168
 6593POPC   C4A79904  20.003  29.651   5.469  0.1663 -0.0051  0.1149
 6593POPC   C1B79905  20.411  28.501   4.622  0.0265  0.0283  0.1695
 6593POPC   C2B79906  20.596  28.717   5.005 -0.0281  0.2177  0.1485
 6593POPC   C3B79907  20.506  29.015   5.355 -0.5086 -0.0705 -0.0016
 6593POPC   C4B79908  20.888  29.245   5.535  0.2692  0.2384 -0.0834
 6594POPC   NC379909  30.643  12.499   3.567 -0.2311 -0.0354 -0.0372
 6594POPC   PO479910  31.066  12.503   3.588  0.0716  0.0903 -0.1403
 6594POPC   GL179911  31.323  12.287   3.876  0.0886 -0.2616 -0.1246
 6594POPC   GL279912  31.539  12.072   3.919  0.1729  0.1197 -0.2076
 6594POPC   C1A79913  31.188  12.154   4.294  0.3773 -0.1756 -0.1996
 6594POPC   D2A79914  31.216  12.315   4.737  0.0740 -0.0076  0.1070
 6594POPC   C3A79915  31.430  12.709   4.810 -0.0397  0.0483  0.1190
 6594POPC   C4A79916  31.539  13.192   4.907  0.2326 -0.4117  0.0340
 6594POPC   C1B79917  31.713  11.974   4.301 -0.0688 -0.2027  0.0795
 6594POPC   C2B79918  31.485  11.890   4.636  0.0450 -0.0066 -0.0752
 6594POPC   C3B79919  31.242  11.865   5.006  0.2553  0.0587 -0.2004
 6594POPC   C4B79920  31.221  11.646   5.429  0.1601 -0.0241 -0.2171
 6595POPC   NC379921  10.370   6.309   3.800  0.3609  0.3223 -0.0477
 6595POPC   PO479922  10.674   6.269   3.996 -0.1237 -0.0263 -0.0848
 6595POPC   GL179923  10.691   6.415   4.389  0.4768 -0.0336 -0.0909
 6595POPC   GL279924  10.836   6.676   4.331 -0.0313  0.0125  0.2074
 6595POPC   C1A79925  10.605   6.056   4.699  0.2800 -0.1433 -0.1151
 6595POPC   D2A79926  10.815   5.817   4.996 -0.2246 -0.1196  0.3137
 6595POPC   C3A79927  10.608   5.611   5.345 -0.1175 -0.0835  0.0299
 6595POPC   C4A79928  10.234   5.415   5.578  0.3412  0.1670 -0.0505
 6595POPC   C1B79929  10.813   6.800   4.758 -0.2047 -0.0148  0.0646
 6595POPC   C2B79930  10.796   6.664   5.209  0.1835  0.2179  0.2697
 6595POPC   C3B79931  10.780   6.479   5.602 -0.2184  0.0880  0.2219
 6595POPC   C4B79932  10.660   6.176   5.834  0.0880  0.2484 -0.1421
 6596POPC   NC379933  15.689  16.386   4.046  0.2464 -0.1611  0.0574
 6596POPC   PO479934  15.710  16.138   3.759  0.0360  0.1085 -0.0545
 6596POPC   GL179935  15.508  15.928   4.095  0.1396  0.0459  0.2091
 6596POPC   GL279936  15.737  15.896   4.210 -0.0172  0.1743  0.1580
 6596POPC   C1A79937  15.259  15.814   4.419  0.0275 -0.0525  0.1731
 6596POPC   D2A79938  15.082  15.463   4.525  0.0117 -0.0198  0.1188
 6596POPC   C3A79939  14.924  15.132   4.814  0.1342  0.0089 -0.0580
 6596POPC   C4A79940  15.063  15.014   5.246 -0.0805 -0.0953 -0.1739
 6596POPC   C1B79941  15.665  16.126   4.629 -0.1338 -0.0890  0.1400
 6596POPC   C2B79942  15.624  16.034   5.062  0.1648  0.0032 -0.2280
 6596POPC   C3B79943  15.567  15.915   5.529  0.4614 -0.1365 -0.1576
 6596POPC   C4B79944  15.799  15.860   5.940 -0.3576  0.0434 -0.2802
 6597POPC   NC379945  25.189   7.766   3.707  0.0007 -0.0742 -0.2857
 6597POPC   PO479946  25.568   7.892   3.790 -0.3493  0.1624  0.0704
 6597POPC   GL179947  25.652   7.852   4.130  0.1340  0.0095  0.3748
 6597POPC   GL279948  25.837   7.638   4.109  0.4256  0.0036  0.1438
 6597POPC   C1A79949  25.547   7.731   4.578 -0.0533 -0.3164 -0.2042
 6597POPC   D2A79950  25.736   7.790   5.006 -0.1386 -0.0840  0.4440
 6597POPC   C3A79951  25.449   7.833   5.363  0.1372  0.0493 -0.0736
 6597POPC   C4A79952  25.342   7.925   5.873 -0.1256 -0.2716  0.0889
 6597POPC   C1B79953  26.042   7.833   4.460 -0.1653 -0.0177 -0.2947
 6597POPC   C2B79954  26.200   7.907   4.900  0.0902 -0.0339 -0.1249
 6597POPC   C3B79955  26.187   7.653   5.252 -0.0201  0.1027  0.0275
 6597POPC   C4B79956  26.104   7.543   5.687 -0.1693 -0.0161 -0.1223
 6598POPC   NC379957   2.722  19.692   3.396  0.0210 -0.1886  0.0815
 6598POPC   PO479958   2.381  19.555   3.316  0.1078  0.0621  0.0586
 6598POPC   GL179959   2.175  19.593   3.613 -0.1362 -0.2818 -0.0341
 6598POPC   GL279960   1.885  19.704   3.664 -0.1532  0.2222  0.1994
 6598POPC   C1A79961   2.148  19.878   3.994 -0.0090  0.0715 -0.1674
 6598POPC   D2A79962   2.212  19.994   4.432 -0.1556  0.1214 -0.0407
 6598POPC   C3A79963   1.933  19.735   4.818  0.2152  0.1099  0.2793
 6598POPC   C4A79964   1.709  19.628   5.244  0.0396  0.2570  0.2759
 6598POPC   C1B79965   1.751  19.575   4.139  0.2765 -0.0177 -0.0690
 6598POPC   C2B79966   1.507  19.578   4.548 -0.2857 -0.1650 -0.2045
 6598POPC   C3B79967   1.181  19.221   4.658 -0.0378 -0.3107  0.2359
 6598POPC   C4B79968   1.053  18.927   4.359  0.0342  0.0957  0.2409
 6599POPC   NC379969  24.672  18.404   3.912 -0.0971  0.0092  0.3389
 6599POPC   PO479970  24.955  18.163   3.739 -0.0529  0.0676 -0.0108
 6599POPC   GL179971  24.865  18.104   4.183  0.1034 -0.2629  0.2445
 6599POPC   GL279972  24.853  17.821   4.356 -0.3399 -0.1213  0.2226
 6599POPC   C1A79973  25.150  18.142   4.549  0.4482  0.1493  0.1441
 6599POPC   D2A79974  25.498  18.378   4.778 -0.0971  0.0134  0.2487
 6599POPC   C3A79975  25.672  18.239   5.180 -0.0102 -0.1127  0.1321
 6599POPC   C4A79976  25.906  18.127   5.606  0.0909  0.4252  0.1027
 6599POPC   C1B79977  25.074  17.669   4.741 -0.1346 -0.3410  0.1563
 6599POPC   C2B79978  25.219  17.964   5.082  0.0340 -0.0451 -0.3722
 6599POPC   C3B79979  25.198  18.369   5.275 -0.0607 -0.2563 -0.3193
 6599POPC   C4B79980  25.350  18.802   5.436  0.1818 -0.1300  0.0449
 6600POPC   NC379981  13.867  27.234   4.055  0.1790 -0.2263  0.0182
 6600POPC   PO479982  13.698  27.601   3.977  0.0179 -0.0617  0.0148
 6600POPC   GL179983  13.517  27.463   4.366 -0.1706 -0.1626 -0.1710
 6600POPC   GL279984  13.506  27.179   4.377 -0.2498  0.1088 -0.0671
 6600POPC   C1A79985  13.532  27.490   4.839 -0.3559 -0.4787  0.0770
 6600POPC   D2A79986  13.764  27.614   5.199 -0.1134  0.1703 -0.0885
 6600POPC   C3A79987  14.155  27.834   5.337  0.0851 -0.1990  0.0502
 6600POPC   C4A79988  14.512  28.192   5.284 -0.0566  0.0068 -0.0979
 6600POPC   C1B79989  13.501  26.886   4.751 -0.1794 -0.1142 -0.0942
 6600POPC   C2B79990  13.663  26.666   5.181 -0.3855 -0.0352 -0.3644
 6600POPC   C3B79991  13.912  26.826   5.506 -0.0801  0.0901 -0.1446
 6600POPC   C4B79992  14.010  26.929   5.976  0.1228 -0.2008 -0.3681
 6601POPC   NC379993   8.028  10.293   3.474 -0.0427  0.0193  0.2999
 6601POPC   PO479994   8.049  10.721   3.574 -0.2317  0.1221  0.2821
 6601POPC   GL179995   8.009  10.829   3.914  0.1208 -0.0812  0.2998
 6601POPC   GL279996   7.729  10.936   3.962  0.2340 -0.1018  0.0182
 6601POPC   C1A79997   7.946  10.668   4.385 -0.0630 -0.0639  0.1353
 6601POPC   D2A79998   8.259  10.372   4.530 -0.1446  0.1245 -0.0959
 6601POPC   C3A79999   8.062  10.103   4.777  0.0835  0.3739 -0.0687
 6601POPC   C4A80000   8.051  10.063   5.217  0.1640 -0.2253 -0.2845
 6601POPC   C1B80001   7.347  11.081   4.113  0.1133  0.1618 -0.0097
 6601POPC   C2B80002   6.924  11.037   4.374 -0.0817 -0.1285  0.2285
 6601POPC   C3B80003   6.638  10.944   4.702 -0.0725 -0.0722 -0.0349
 6601POPC   C4B80004   6.303  10.981   4.980 -0.0365 -0.0695 -0.3092
 6602POPC   NC380005   3.673  23.291   3.826  0.2823  0.1917  0.2976
 6602POPC   PO480006   3.351  23.376   3.617 -0.2274 -0.1884  0.1612
 6602POPC   GL180007   3.229  23.531   4.034  0.1376  0.3264  0.2661
 6602POPC   GL280008   3.252  23.333   4.254 -0.0163  0.0416  0.1237
 6602POPC   C1A80009   3.327  23.795   4.401  0.1376  0.2081  0.0513
 6602POPC   D2A80010   3.302  24.175   4.610 -0.0435  0.0037  0.0062
 6602POPC   C3A80011   3.256  24.337   5.076  0.2733  0.0467 -0.0619
 6602POPC   C4A80012   3.501  24.597   5.331 -0.0699 -0.2742 -0.1314
 6602POPC   C1B80013   3.037  23.386   4.670 -0.2292 -0.0625 -0.0167
 6602POPC   C2B80014   2.833  23.400   5.050 -0.2835 -0.0941  0.1181
 6602POPC   C3B80015   2.668  23.180   5.397  0.1351 -0.0403 -0.0653
 6602POPC   C4B80016   2.231  23.326   5.591 -0.0891  0.1248  0.1253
 6603POPC   NC380017  10.066  21.339   3.989 -0.0530  0.0686 -0.5206
 6603POPC   PO480018  10.010  20.991   3.834 -0.2945 -0.1884  0.0263
 6603POPC   GL180019   9.915  20.864   4.159  0.1960 -0.0726 -0.2841
 6603POPC   GL280020  10.107  21.022   4.348 -0.0847  0.1706 -0.0369
 6603POPC   C1A80021   9.723  20.766   4.536 -0.2031 -0.1420 -0.1813
 6603POPC   D2A80022   9.471  20.957   4.859 -0.2370 -0.3468  0.1763
 6603POPC   C3A80023   9.496  20.901   5.300 -0.1734  0.1703 -0.2153
 6603POPC   C4A80024   9.227  21.044   5.686 -0.2212  0.0469  0.0735
 6603POPC   C1B80025  10.007  21.261   4.703  0.1195 -0.0150  0.1686
 6603POPC   C2B80026   9.797  21.251   5.150 -0.0980 -0.0571  0.2772
 6603POPC   C3B80027   9.604  21.353   5.594  0.3803 -0.2440  0.1451
 6603POPC   C4B80028   9.430  21.588   5.981 -0.1288  0.0908 -0.0990
 6604POPC   NC380029   3.539   9.115   3.471 -0.4980 -0.1046 -0.2936
 6604POPC   PO480030   3.174   9.088   3.608 -0.0500 -0.2666  0.0403
 6604POPC   GL180031   3.322   8.982   4.011  0.0556  0.2517 -0.0120
 6604POPC   GL280032   3.098   9.029   4.144  0.0510  0.0896 -0.0858
 6604POPC   C1A80033   3.620   8.787   4.246 -0.1263 -0.1781 -0.0892
 6604POPC   D2A80034   3.977   8.490   4.308 -0.1648 -0.1087  0.1839
 6604POPC   C3A80035   4.325   8.549   4.641 -0.1536  0.1057 -0.0454
 6604POPC   C4A80036   4.392   8.828   4.925  0.1402 -0.1371 -0.1563
 6604POPC   C1B80037   2.880   9.018   4.514 -0.2546  0.1090  0.3149
 6604POPC   C2B80038   2.498   8.967   4.787  0.1083 -0.0111  0.1426
 6604POPC   C3B80039   2.263   9.072   5.119 -0.1500 -0.0586 -0.0228
 6604POPC   C4B80040   1.927   8.909   5.349  0.2128 -0.1377  0.2609
 6605POPC   NC380041  20.532  24.069   4.044 -0.1359 -0.3850  0.3342
 6605POPC   PO480042  20.542  24.453   4.094  0.2456 -0.1521  0.3130
 6605POPC   GL180043  20.626  24.536   4.469  0.2056 -0.2420 -0.0211
 6605POPC   GL280044  20.428  24.226   4.546 -0.0692  0.2100  0.2546
 6605POPC   C1A80045  20.327  24.581   4.821  0.1127 -0.2278  0.0376
 6605POPC   D2A80046  20.265  24.834   5.191 -0.0521 -0.1080  0.1176
 6605POPC   C3A80047  20.312  24.664   5.612  0.1948 -0.1760  0.1843
 6605POPC   C4A80048  20.545  24.640   6.040  0.3718  0.0323  0.1694
 6605POPC   C1B80049  20.423  24.116   4.996  0.0191 -0.1601  0.1794
 6605POPC   C2B80050  20.528  23.949   5.441 -0.0911  0.0544 -0.3250
 6605POPC   C3B80051  20.499  23.763   5.868  0.0229  0.1200 -0.0634
 6605POPC   C4B80052  20.541  23.649   6.321  0.1936  0.3004 -0.3808
 6606POPC   NC380053  10.302  18.422   3.490 -0.0892  0.0170  0.3024
 6606POPC   PO480054  10.598  18.611   3.598 -0.3655 -0.1619 -0.0875
 6606POPC   GL180055  10.692  18.574   4.026 -0.0441  0.0355  0.0128
 6606POPC   GL280056  10.560  18.532   4.243  0.0032 -0.0554  0.0050
 6606POPC   C1A80057  11.080  18.805   4.174  0.2598  0.2441  0.1816
 6606POPC   D2A80058  11.469  18.820   4.352  0.0901  0.2768  0.2264
 6606POPC   C3A80059  11.688  18.532   4.702  0.1611 -0.0434 -0.1954
 6606POPC   C4A80060  11.927  18.451   5.195  0.1989  0.0339 -0.0811
 6606POPC   C1B80061  10.761  18.727   4.572 -0.3271  0.2955 -0.0598
 6606POPC   C2B80062  11.174  18.783   4.760 -0.1542 -0.0316  0.1868
 6606POPC   C3B80063  11.449  18.811   5.131  0.1523  0.0242  0.1413
 6606POPC   C4B80064  11.733  19.040   5.468  0.0292 -0.2089  0.3586
 6607POPC   NC380065   4.080   1.180   4.183  0.0595  0.0357 -0.0441
 6607POPC   PO480066   3.851   1.177   3.911  0.1016  0.1011  0.2384
 6607POPC   GL180067   3.490   1.304   4.155 -0.0341  0.0122 -0.0565
 6607POPC   GL280068   3.695   1.494   4.266  0.2307 -0.1988  0.1464
 6607POPC   C1A80069   3.213   1.593   4.328  0.3565  0.0615  0.0268
 6607POPC   D2A80070   3.067   1.781   4.720  0.1164  0.0644 -0.2609
 6607POPC   C3A80071   3.199   1.726   5.226  0.0262 -0.4092  0.1432
 6607POPC   C4A80072   3.425   1.889   5.632  0.1435  0.3828 -0.0163
 6607POPC   C1B80073   3.583   1.660   4.695 -0.1315 -0.2056  0.1016
 6607POPC   C2B80074   3.712   1.866   5.106 -0.0196  0.0313  0.0265
 6607POPC   C3B80075   3.945   1.993   5.461 -0.0848  0.1577 -0.0712
 6607POPC   C4B80076   3.905   1.697   5.780 -0.4441 -0.0944  0.1133
 6608POPC   NC380077   3.597  10.814   3.120  0.0754 -0.1812  0.0040
 6608POPC   PO480078   3.787  10.898   3.482  0.2782  0.4137 -0.1991
 6608POPC   GL180079   3.943  11.038   3.821 -0.2859 -0.1765 -0.1144
 6608POPC   GL280080   3.988  11.301   3.912  0.1697  0.0703  0.1418
 6608POPC   C1A80081   4.237  10.974   4.251  0.3859  0.0766  0.0746
 6608POPC   D2A80082   4.449  10.904   4.659 -0.1467 -0.1649  0.1046
 6608POPC   C3A80083   4.611  11.015   5.028 -0.1028 -0.3309  0.1892
 6608POPC   C4A80084   4.740  11.093   5.439 -0.0174 -0.0414 -0.2820
 6608POPC   C1B80085   4.347  11.478   4.198 -0.0745  0.0379  0.0587
 6608POPC   C2B80086   4.656  11.373   4.504  0.2143  0.2999 -0.0578
 6608POPC   C3B80087   4.953  11.357   4.796  0.0381 -0.2748 -0.2305
 6608POPC   C4B80088   5.280  11.281   5.130 -0.1270  0.1880  0.0092
 6609POPC   NC380089  30.541  30.579   3.299 -0.3673 -0.0739 -0.1671
 6609POPC   PO480090  30.318  30.703   3.591 -0.2319  0.1295 -0.1205
 6609POPC   GL180091  30.480  30.592   3.942  0.1519 -0.0126 -0.1190
 6609POPC   GL280092  30.250  30.648   4.196 -0.0037  0.3674 -0.1622
 6609POPC   C1A80093  30.705  30.791   4.316  0.0385 -0.0888 -0.1960
 6609POPC   D2A80094  30.846  30.854   4.708 -0.0772 -0.3143 -0.1374
 6609POPC   C3A80095  31.038  30.530   4.968 -0.0528  0.1832  0.2623
 6609POPC   C4A80096  31.256  30.122   4.971 -0.2011  0.1592 -0.2178
 6609POPC   C1B80097  30.080  30.290   4.449 -0.0387  0.1477  0.1608
 6609POPC   C2B80098  30.068  30.190   4.911 -0.2643  0.0671  0.1485
 6609POPC   C3B80099  29.811  30.104   5.289 -0.1054 -0.0159  0.0376
 6609POPC   C4B80100  29.729  30.050   5.728 -0.2052  0.0131 -0.0455
 6610POPC   NC380101  18.849  17.958   2.279  0.0305 -0.1876 -0.0039
 6610POPC   PO480102  19.127  18.125   2.465 -0.0053  0.2495 -0.1798
 6610POPC   GL180103  19.407  17.905   2.565  0.2542  0.0331 -0.0596
 6610POPC   GL280104  19.668  17.793   2.516 -0.5317  0.1301  0.1169
 6610POPC   C1A80105  19.672  17.962   2.955  0.1163 -0.3155 -0.0317
 6610POPC   D2A80106  19.827  18.000   3.405 -0.0603 -0.0954  0.1933
 6610POPC   C3A80107  20.243  18.224   3.555  0.2241  0.3017  0.1770
 6610POPC   C4A80108  20.418  18.522   3.849  0.1131 -0.1712  0.2895
 6610POPC   C1B80109  20.053  17.760   2.791 -0.1970  0.0858  0.0420
 6610POPC   C2B80110  20.277  18.048   3.083 -0.1207 -0.0308  0.1372
 6610POPC   C3B80111  20.672  18.302   3.147  0.1501 -0.1909  0.0794
 6610POPC   C4B80112  20.875  18.644   3.102  0.0434 -0.1450  0.0892
 6611POPC   NC380113   7.358  24.293   4.009 -0.3524 -0.3249 -0.0253
 6611POPC   PO480114   7.024  24.127   3.963  0.1089  0.0594 -0.1510
 6611POPC   GL180115   7.020  24.327   4.287 -0.0282  0.0245 -0.1892
 6611POPC   GL280116   6.985  24.631   4.158 -0.0855  0.0517  0.1886
 6611POPC   C1A80117   7.292  24.202   4.668 -0.1366 -0.1772  0.0231
 6611POPC   D2A80118   7.635  24.066   4.873  0.0012 -0.0041  0.0462
 6611POPC   C3A80119   7.680  24.026   5.313 -0.0463 -0.2049 -0.1892
 6611POPC   C4A80120   7.448  24.248   5.626  0.0432  0.1993  0.1923
 6611POPC   C1B80121   7.040  24.702   4.633  0.2954  0.1273 -0.0769
 6611POPC   C2B80122   6.791  24.562   5.027 -0.0667 -0.3139 -0.2665
 6611POPC   C3B80123   6.382  24.505   5.233  0.1040  0.1487 -0.0846
 6611POPC   C4B80124   6.335  24.694   5.692 -0.2477  0.0077  0.3424
 6612POPC   NC380125   5.056   3.148   3.682 -0.2053 -0.1489 -0.1128
 6612POPC   PO480126   4.669   3.153   3.681  0.0407  0.0139  0.2199
 6612POPC   GL180127   4.679   3.106   4.048 -0.0350  0.1053 -0.1038
 6612POPC   GL280128   4.903   2.869   4.119  0.1434  0.3265  0.4042
 6612POPC   C1A80129   4.594   2.860   4.465 -0.1055 -0.0310 -0.1946
 6612POPC   D2A80130   4.664   2.639   4.892  0.2782 -0.0645  0.4458
 6612POPC   C3A80131   4.376   2.824   5.213  0.2431 -0.6420 -0.2863
 6612POPC   C4A80132   4.223   3.167   5.485 -0.1003 -0.0344 -0.1605
 6612POPC   C1B80133   5.084   3.204   4.316  0.0351 -0.4113  0.2044
 6612POPC   C2B80134   5.092   3.585   4.666 -0.3235  0.0757  0.2924
 6612POPC   C3B80135   5.153   3.854   5.004  0.0177  0.2092  0.0878
 6612POPC   C4B80136   5.312   4.077   5.402 -0.1689 -0.0603  0.2681
 6613POPC   NC380137  27.818  26.678   3.602  0.0311 -0.0624 -0.0007
 6613POPC   PO480138  27.768  26.418   3.883 -0.1379  0.1848  0.0091
 6613POPC   GL180139  27.734  26.325   4.260 -0.0305  0.0461 -0.0213
 6613POPC   GL280140  27.531  26.101   4.309  0.1008  0.0606  0.0607
 6613POPC   C1A80141  27.900  26.432   4.644 -0.1623  0.0120 -0.0620
 6613POPC   D2A80142  28.059  26.616   5.038 -0.2824  0.0226  0.0709
 6613POPC   C3A80143  28.185  27.073   5.117 -0.4038  0.2803 -0.0465
 6613POPC   C4A80144  28.399  27.448   5.279 -0.1927  0.0254 -0.1252
 6613POPC   C1B80145  27.387  26.037   4.770 -0.1841  0.0408 -0.2475
 6613POPC   C2B80146  27.514  25.779   5.101  0.1751 -0.0384 -0.3673
 6613POPC   C3B80147  27.415  25.440   5.414 -0.2130 -0.1250 -0.0108
 6613POPC   C4B80148  27.118  25.242   5.698 -0.2010  0.1519 -0.0547
 6614POPC   NC380149  18.984  18.685   3.067 -0.2855  0.1393  0.0223
 6614POPC   PO480150  18.971  18.571   3.478 -0.1827  0.1726  0.4759
 6614POPC   GL180151  19.112  18.278   3.660  0.0697  0.1726 -0.4189
 6614POPC   GL280152  18.900  18.227   3.835  0.2325 -0.1946 -0.0212
 6614POPC   C1A80153  19.310  17.908   3.934 -0.1387 -0.1332  0.0063
 6614POPC   D2A80154  19.477  17.579   4.158 -0.2375 -0.1199  0.1922
 6614POPC   C3A80155  19.918  17.568   4.323 -0.3241 -0.2159 -0.2781
 6614POPC   C4A80156  20.316  17.794   4.394  0.1828 -0.0712  0.1420
 6614POPC   C1B80157  19.073  18.256   4.257  0.2009  0.0978 -0.3622
 6614POPC   C2B80158  19.239  18.370   4.688 -0.1931  0.2864  0.0332
 6614POPC   C3B80159  19.216  18.267   5.165 -0.0385  0.1612  0.0466
 6614POPC   C4B80160  19.315  18.093   5.594  0.1786 -0.0046 -0.3243
 6615POPC   NC380161  24.353  15.340   4.201 -0.1534 -0.1835 -0.0070
 6615POPC   PO480162  24.619  15.153   4.015  0.0670  0.0170  0.1113
 6615POPC   GL180163  24.516  14.952   4.412  0.0393  0.1511 -0.2111
 6615POPC   GL280164  24.252  14.874   4.377  0.2174 -0.0398  0.1317
 6615POPC   C1A80165  24.567  14.982   4.855 -0.0626  0.2668 -0.0786
 6615POPC   D2A80166  24.370  14.746   5.215 -0.1347  0.0022  0.0052
 6615POPC   C3A80167  24.223  14.790   5.659  0.0698  0.2733  0.1300
 6615POPC   C4A80168  24.427  15.014   5.990  0.0271  0.0525 -0.4059
 6615POPC   C1B80169  23.938  14.904   4.720  0.1036 -0.1460  0.1490
 6615POPC   C2B80170  23.511  14.817   4.882 -0.1279  0.0809 -0.0016
 6615POPC   C3B80171  23.314  15.001   5.285  0.2640 -0.0304 -0.0599
 6615POPC   C4B80172  22.884  15.055   5.157  0.1247  0.0765 -0.1147
 6616POPC   NC380173  21.744   8.782   3.737  0.0046  0.1966  0.0284
 6616POPC   PO480174  21.903   8.464   3.711  0.1843  0.4985  0.0256
 6616POPC   GL180175  22.100   8.687   4.057  0.0128 -0.2405  0.0332
 6616POPC   GL280176  22.392   8.807   4.144  0.1560  0.3597  0.1349
 6616POPC   C1A80177  22.074   8.652   4.520 -0.1839  0.1789  0.0884
 6616POPC   D2A80178  22.192   8.694   4.939 -0.2404 -0.4012  0.1958
 6616POPC   C3A80179  22.386   8.419   5.237 -0.2914  0.1991  0.0188
 6616POPC   C4A80180  22.602   8.053   5.397 -0.2745  0.0412 -0.0811
 6616POPC   C1B80181  22.449   9.008   4.565  0.2551  0.2183 -0.0816
 6616POPC   C2B80182  22.370   9.123   5.015  0.1036  0.2808  0.1721
 6616POPC   C3B80183  22.286   8.902   5.424  0.0849 -0.1146  0.1646
 6616POPC   C4B80184  22.030   8.722   5.758  0.0912  0.2003  0.2105
 6617POPC   NC380185  19.365  25.295   3.812 -0.1964 -0.1168  0.0839
 6617POPC   PO480186  19.283  24.907   3.806 -0.1317 -0.1490  0.1881
 6617POPC   GL180187  19.230  24.863   4.197  0.0468  0.0380 -0.1438
 6617POPC   GL280188  19.285  25.099   4.268  0.2368  0.2797 -0.0792
 6617POPC   C1A80189  19.048  24.754   4.596 -0.3814 -0.0369  0.1502
 6617POPC   D2A80190  18.751  24.805   4.994 -0.1222  0.1385  0.0970
 6617POPC   C3A80191  18.502  25.173   5.148 -0.0622  0.1666 -0.2681
 6617POPC   C4A80192  18.091  25.268   5.290 -0.0736  0.1542 -0.1361
 6617POPC   C1B80193  19.150  25.239   4.674 -0.1237 -0.2954 -0.1745
 6617POPC   C2B80194  19.033  25.362   5.125 -0.0801  0.0356 -0.2354
 6617POPC   C3B80195  19.009  25.520   5.589 -0.0504 -0.2191 -0.2129
 6617POPC   C4B80196  18.862  25.783   5.899 -0.0538 -0.0984  0.0907
 6618POPC   NC380197   7.561  18.453   3.428 -0.0967 -0.1610 -0.1442
 6618POPC   PO480198   7.842  18.190   3.511 -0.2553 -0.3629 -0.2217
 6618POPC   GL180199   7.544  18.106   3.750 -0.3867  0.0096 -0.2949
 6618POPC   GL280200   7.330  17.918   3.687  0.3020 -0.1482  0.2611
 6618POPC   C1A80201   7.409  18.000   4.153  0.0690  0.1056  0.0692
 6618POPC   D2A80202   7.312  17.995   4.577  0.1670 -0.2344  0.0474
 6618POPC   C3A80203   7.505  17.693   4.858  0.1679  0.0987  0.0354
 6618POPC   C4A80204   7.625  17.530   5.279  0.0432  0.3256 -0.0418
 6618POPC   C1B80205   7.186  18.356   3.766  0.1641 -0.1401 -0.3399
 6618POPC   C2B80206   6.900  18.672   4.076  0.2434  0.2277 -0.0945
 6618POPC   C3B80207   6.757  18.678   4.524  0.1024 -0.2606  0.0723
 6618POPC   C4B80208   6.730  18.875   4.989 -0.2130 -0.2233 -0.0712
 6619POPC   NC380209  27.014  18.488   3.457  0.1001 -0.1305 -0.2208
 6619POPC   PO480210  27.223  18.217   3.271 -0.0705  0.0620  0.0401
 6619POPC   GL180211  27.369  18.087   3.610  0.4539 -0.2067  0.1401
 6619POPC   GL280212  27.305  18.268   3.885 -0.1462 -0.0441  0.1034
 6619POPC   C1A80213  27.205  17.759   3.882  0.0096 -0.0263  0.0780
 6619POPC   D2A80214  27.272  17.382   4.124 -0.1670  0.2739 -0.0452
 6619POPC   C3A80215  27.079  17.302   4.567  0.0379 -0.1133  0.1419
 6619POPC   C4A80216  27.105  17.108   4.983 -0.2776  0.2600 -0.0902
 6619POPC   C1B80217  27.242  18.039   4.292  0.1079  0.3658 -0.0025
 6619POPC   C2B80218  27.298  17.702   4.585  0.3152  0.2165  0.1384
 6619POPC   C3B80219  27.117  17.620   5.004  0.0498  0.1759  0.0897
 6619POPC   C4B80220  27.395  17.358   5.292  0.0542  0.0164  0.1509
 6620POPC   NC380221   6.185   0.239   4.030  0.1625  0.3207  0.1567
 6620POPC   PO480222   6.453   0.059   3.773  0.0631 -0.2496  0.0711
 6620POPC   GL180223   6.636   0.016   4.167  0.4173 -0.3887 -0.2522
 6620POPC   GL280224   6.867  -0.040   4.145 -0.2909  0.3790 -0.3334
 6620POPC   C1A80225   6.443   0.264   4.500 -0.4038  0.0732  0.1049
 6620POPC   D2A80226   6.275   0.542   4.863  0.3168 -0.2073 -0.0334
 6620POPC   C3A80227   6.206   0.302   5.249 -0.1488 -0.2438 -0.0300
 6620POPC   C4A80228   6.063   0.422   5.709 -0.1206  0.0608 -0.1666
 6620POPC   C1B80229   6.792  -0.161   4.565 -0.0279  0.1150  0.0887
 6620POPC   C2B80230   6.526   0.011   4.881 -0.3129 -0.2109  0.1237
 6620POPC   C3B80231   6.561   0.027   5.322 -0.1337  0.1439 -0.1773
 6620POPC   C4B80232   6.633   0.339   5.685 -0.0055  0.4087  0.0767
 6621POPC   NC380233  20.569  10.914   3.960 -0.0334 -0.0377  0.2235
 6621POPC   PO480234  20.184  10.770   4.162 -0.1988 -0.2025  0.1989
 6621POPC   GL180235  19.999  10.664   4.498  0.0776 -0.0279  0.0290
 6621POPC   GL280236  19.903  10.938   4.576  0.1585  0.0232 -0.2008
 6621POPC   C1A80237  19.940  10.559   4.948  0.1465  0.1082  0.0794
 6621POPC   D2A80238  19.752  10.333   5.334 -0.1953  0.1452  0.1893
 6621POPC   C3A80239  19.726   9.886   5.433 -0.3240 -0.0558  0.1870
 6621POPC   C4A80240  20.081   9.706   5.593 -0.3280  0.0283 -0.1703
 6621POPC   C1B80241  19.650  10.992   4.988 -0.1588 -0.0796 -0.1763
 6621POPC   C2B80242  19.677  10.833   5.393  0.0055  0.1121  0.2501
 6621POPC   C3B80243  19.546  10.493   5.745  0.0126  0.3348  0.0900
 6621POPC   C4B80244  19.619  10.123   5.979 -0.0038  0.2757 -0.3432
 6622POPC   NC380245  31.207   6.813   3.336  0.4698 -0.0015  0.1208
 6622POPC   PO480246  31.494   6.697   3.529 -0.0258 -0.0634 -0.2320
 6622POPC   GL180247  31.293   6.688   3.936  0.3291  0.0997 -0.1450
 6622POPC   GL280248  31.070   6.632   3.824 -0.1229  0.2876 -0.3116
 6622POPC   C1A80249  31.162   6.815   4.405  0.0848 -0.1895  0.0418
 6622POPC   D2A80250  31.076   6.885   4.846  0.0263  0.1755  0.0989
 6622POPC   C3A80251  30.917   6.616   5.212  0.1703 -0.4312 -0.3728
 6622POPC   C4A80252  30.596   6.431   5.532  0.0407 -0.3529  0.3934
 6622POPC   C1B80253  31.003   6.383   4.200  0.0333  0.3695  0.1267
 6622POPC   C2B80254  31.046   6.325   4.645 -0.1797  0.0839  0.0764
 6622POPC   C3B80255  31.225   6.260   5.072 -0.2435  0.0803  0.0811
 6622POPC   C4B80256  31.331   6.356   5.487 -0.0286 -0.0139  0.3556
 6623POPC   NC380257   9.585  30.448   3.720 -0.1896 -0.1505 -0.0453
 6623POPC   PO480258   9.722  30.749   3.989 -0.2749  0.2050 -0.1528
 6623POPC   GL180259   9.906  30.782   4.365  0.1964  0.0685 -0.0083
 6623POPC   GL280260   9.725  30.755   4.552 -0.2249 -0.2981  0.1050
 6623POPC   C1A80261  10.216  31.080   4.486  0.0038 -0.1225 -0.0224
 6623POPC   D2A80262  10.631  31.231   4.603 -0.4017  0.0986  0.2447
 6623POPC   C3A80263  10.556  31.258   5.032 -0.0023 -0.0513 -0.2604
 6623POPC   C4A80264  10.366  31.435   5.385 -0.1414  0.1639  0.0163
 6623POPC   C1B80265   9.788  30.649   4.950 -0.0449 -0.1118 -0.3184
 6623POPC   C2B80266   9.661  30.541   5.429 -0.1778 -0.2969  0.3521
 6623POPC   C3B80267   9.652  30.767   5.830 -0.0665  0.1595 -0.0678
 6623POPC   C4B80268   9.565  30.958   6.256  0.1286 -0.0415  0.2322
 6624POPC   NC380269  17.599  15.216   3.626  0.0321  0.1886 -0.1100
 6624POPC   PO480270  17.702  15.233   3.979 -0.1357 -0.1008 -0.0442
 6624POPC   GL180271  17.776  15.026   4.352  0.1509  0.1991  0.0232
 6624POPC   GL280272  17.874  15.297   4.435 -0.0085 -0.0099 -0.0465
 6624POPC   C1A80273  17.564  14.699   4.655  0.0095 -0.0979 -0.2043
 6624POPC   D2A80274  17.306  14.664   5.043 -0.1821  0.1997 -0.1099
 6624POPC   C3A80275  17.531  14.449   5.364  0.0238  0.0551 -0.2547
 6624POPC   C4A80276  17.873  14.379   5.657  0.3299 -0.1351 -0.2523
 6624POPC   C1B80277  18.300  15.217   4.519 -0.2450  0.0577 -0.2161
 6624POPC   C2B80278  18.666  15.177   4.753 -0.1070  0.3033  0.0389
 6624POPC   C3B80279  19.001  15.418   4.991  0.0530  0.0548  0.0636
 6624POPC   C4B80280  19.455  15.480   4.943  0.0240 -0.1810  0.4872
 6625POPC   NC380281   0.716   1.730   3.892  0.0582 -0.3376  0.0247
 6625POPC   PO480282   0.922   2.012   3.702 -0.1246 -0.0000  0.0707
 6625POPC   GL180283   1.056   2.048   4.145  0.2747  0.0068 -0.0023
 6625POPC   GL280284   0.923   2.361   4.207 -0.1008 -0.1379  0.1826
 6625POPC   C1A80285   1.070   1.784   4.536  0.1367  0.0698 -0.1356
 6625POPC   D2A80286   1.314   1.926   4.955  0.0705 -0.0096 -0.1929
 6625POPC   C3A80287   1.525   1.967   5.357  0.1841  0.0293  0.1358
 6625POPC   C4A80288   1.452   2.350   5.626  0.0481 -0.0854  0.3109
 6625POPC   C1B80289   1.155   2.265   4.613  0.0482 -0.1423 -0.4652
 6625POPC   C2B80290   1.207   2.389   5.111 -0.2834 -0.1465  0.1246
 6625POPC   C3B80291   1.013   2.178   5.496  0.1163 -0.0246 -0.0342
 6625POPC   C4B80292   1.190   1.815   5.679 -0.2084  0.0578 -0.4690
 6626POPC   NC380293   5.103  18.428   3.657  0.2615  0.0334  0.1384
 6626POPC   PO480294   4.865  18.149   3.485 -0.1042  0.1575 -0.1859
 6626POPC   GL180295   4.771  18.050   3.834 -0.1134 -0.4116 -0.0923
 6626POPC   GL280296   4.657  18.306   3.941 -0.0447 -0.2606 -0.2983
 6626POPC   C1A80297   4.943  17.987   4.242 -0.0385 -0.0290 -0.3416
 6626POPC   D2A80298   5.333  17.895   4.474  0.1589 -0.0022  0.1243
 6626POPC   C3A80299   5.093  17.705   4.786  0.0841 -0.1347 -0.1355
 6626POPC   C4A80300   4.780  17.913   5.116 -0.0045  0.2901 -0.2497
 6626POPC   C1B80301   4.601  18.323   4.369  0.0519 -0.3831 -0.0251
 6626POPC   C2B80302   4.698  18.272   4.761  0.1688  0.1642 -0.0570
 6626POPC   C3B80303   4.684  18.392   5.190  0.0058  0.2665 -0.0693
 6626POPC   C4B80304   4.971  18.229   5.496  0.0757 -0.1277  0.0013
 6627POPC   NC380305  28.629  24.847   3.911  0.2395 -0.0109  0.1764
 6627POPC   PO480306  28.332  24.852   4.183 -0.0455  0.0513  0.2000
 6627POPC   GL180307  28.177  24.812   4.593 -0.1226  0.0352 -0.1764
 6627POPC   GL280308  27.912  24.693   4.586  0.1104 -0.0641 -0.1860
 6627POPC   C1A80309  28.285  24.460   4.890  0.1811 -0.1654  0.0146
 6627POPC   D2A80310  28.328  24.065   5.055  0.1653 -0.1020 -0.0936
 6627POPC   C3A80311  28.679  23.917   5.369 -0.1012 -0.3598 -0.1108
 6627POPC   C4A80312  28.835  24.061   5.757  0.2949 -0.0872  0.0159
 6627POPC   C1B80313  27.871  24.795   5.065  0.1908  0.0834 -0.1377
 6627POPC   C2B80314  27.455  24.635   5.241 -0.1281 -0.1197  0.1622
 6627POPC   C3B80315  27.290  24.739   5.625 -0.0446  0.0384  0.2380
 6627POPC   C4B80316  27.102  24.839   5.982  0.1773  0.0922  0.0676
 6628POPC   NC380317  19.207  23.665   3.696  0.2651  0.1190  0.1227
 6628POPC   PO480318  19.171  23.996   3.824  0.4065 -0.0327 -0.0494
 6628POPC   GL180319  19.161  23.842   4.193  0.2637  0.2710 -0.0796
 6628POPC   GL280320  19.253  23.616   4.256  0.1394 -0.2972 -0.1756
 6628POPC   C1A80321  19.096  23.925   4.651 -0.1109  0.0454  0.1385
 6628POPC   D2A80322  18.961  24.223   5.018  0.1911  0.0533 -0.0963
 6628POPC   C3A80323  18.849  24.408   5.391  0.1390 -0.0269 -0.0372
 6628POPC   C4A80324  18.664  24.534   5.779 -0.1327 -0.3392 -0.0961
 6628POPC   C1B80325  19.090  23.432   4.686  0.0693 -0.1752 -0.0468
 6628POPC   C2B80326  18.914  23.483   5.140  0.1846 -0.1383 -0.0014
 6628POPC   C3B80327  19.028  23.816   5.460 -0.1933  0.1821  0.3387
 6628POPC   C4B80328  19.155  23.741   5.886 -0.0654 -0.2142 -0.1122
 6629POPC   NC380329   9.843   9.663   3.880 -0.1345 -0.4411 -0.1102
 6629POPC   PO480330   9.608   9.395   3.966 -0.0644  0.3381  0.0158
 6629POPC   GL180331   9.534   9.610   4.299  0.2686  0.2810  0.0318
 6629POPC   GL280332   9.688   9.899   4.304 -0.1554 -0.0453 -0.2060
 6629POPC   C1A80333   9.303   9.850   4.627 -0.1310 -0.0532  0.0035
 6629POPC   D2A80334   9.112   9.783   5.023  0.2869 -0.0437  0.0381
 6629POPC   C3A80335   9.035   9.944   5.427 -0.2144 -0.1384  0.0226
 6629POPC   C4A80336   9.097  10.236   5.743  0.0984  0.2165 -0.1149
 6629POPC   C1B80337   9.950  10.113   4.663  0.3535  0.0927  0.3203
 6629POPC   C2B80338   9.925  10.195   5.116  0.1916 -0.1440  0.1468
 6629POPC   C3B80339  10.171  10.310   5.496 -0.0779 -0.1840 -0.0384
 6629POPC   C4B80340  10.494  10.595   5.759  0.0017 -0.1853  0.2720
 6630POPC   NC380341  11.397  30.717   3.538 -0.3747  0.1593 -0.0797
 6630POPC   PO480342  11.449  30.470   3.844 -0.4652 -0.0229 -0.1487
 6630POPC   GL180343  11.570  30.277   4.183 -0.2049 -0.1443 -0.5547
 6630POPC   GL280344  11.381  30.060   4.320  0.0918 -0.2236 -0.1117
 6630POPC   C1A80345  11.656  30.496   4.555 -0.0395 -0.1599 -0.1165
 6630POPC   D2A80346  11.565  30.389   5.015  0.1084 -0.0884 -0.0164
 6630POPC   C3A80347  11.903  30.427   5.350 -0.0977 -0.1625  0.1798
 6630POPC   C4A80348  12.174  30.680   5.600  0.1029 -0.1684  0.0739
 6630POPC   C1B80349  11.435  29.991   4.789 -0.1368  0.4592 -0.1264
 6630POPC   C2B80350  11.468  29.809   5.176 -0.2608 -0.3593 -0.1281
 6630POPC   C3B80351  11.538  30.050   5.544  0.0894 -0.2707 -0.0555
 6630POPC   C4B80352  11.439  30.039   5.967  0.0114 -0.2582 -0.1585
 6631POPC   NC380353  12.475  26.313   3.807  0.3189  0.0334 -0.1973
 6631POPC   PO480354  12.471  26.688   3.701  0.0443  0.0089 -0.0750
 6631POPC   GL180355  12.224  26.676   4.119  0.4298 -0.0120  0.2822
 6631POPC   GL280356  11.983  26.859   4.225 -0.1987 -0.2706 -0.2644
 6631POPC   C1A80357  12.412  26.809   4.506  0.2138 -0.0069 -0.0358
 6631POPC   D2A80358  12.217  26.732   4.942 -0.1732  0.2176  0.2662
 6631POPC   C3A80359  12.569  26.402   5.090  0.1295 -0.0371 -0.0907
 6631POPC   C4A80360  12.567  26.151   5.475  0.1307 -0.1325  0.0338
 6631POPC   C1B80361  12.023  27.120   4.635 -0.1105 -0.1152  0.1781
 6631POPC   C2B80362  11.885  27.358   5.003  0.1419  0.1071 -0.1967
 6631POPC   C3B80363  12.095  27.402   5.462 -0.0703 -0.1875  0.2944
 6631POPC   C4B80364  12.342  27.124   5.742  0.2165 -0.2958 -0.0050
 6632POPC   NC380365  13.231   9.271   3.143  0.1204 -0.0762 -0.1093
 6632POPC   PO480366  13.278   9.622   3.036  0.3102  0.1076  0.2528
 6632POPC   GL180367  13.201   9.645   3.458 -0.3078 -0.0437  0.1552
 6632POPC   GL280368  13.412   9.445   3.571 -0.0334  0.1914 -0.0899
 6632POPC   C1A80369  13.253   9.907   3.812  0.2179  0.3370 -0.2337
 6632POPC   D2A80370  13.345  10.344   3.795  0.1429  0.0102  0.0499
 6632POPC   C3A80371  13.761  10.388   3.784 -0.0549  0.1280 -0.3171
 6632POPC   C4A80372  14.147  10.204   3.912 -0.0693 -0.1143 -0.0334
 6632POPC   C1B80373  13.310   9.431   3.992  0.2648 -0.1920  0.0892
 6632POPC   C2B80374  13.351   9.678   4.388 -0.1687  0.0726 -0.0391
 6632POPC   C3B80375  13.607   9.919   4.649 -0.2045 -0.2398  0.1819
 6632POPC   C4B80376  13.873  10.020   5.001 -0.3073  0.4035 -0.0668
 6633POPC   NC380377  11.614   7.045   3.373  0.3782  0.1089 -0.2215
 6633POPC   PO480378  11.292   7.195   3.474 -0.1501 -0.4633 -0.3402
 6633POPC   GL180379  11.417   7.491   3.812 -0.1222 -0.2409  0.0600
 6633POPC   GL280380  11.340   7.742   3.694 -0.1101  0.1059  0.1652
 6633POPC   C1A80381  11.508   7.380   4.235  0.4863  0.1534  0.0549
 6633POPC   D2A80382  11.643   7.490   4.706  0.0395 -0.0856  0.3628
 6633POPC   C3A80383  11.558   7.936   4.855 -0.1073  0.1092 -0.1121
 6633POPC   C4A80384  11.346   8.150   5.250  0.0815  0.0519  0.1204
 6633POPC   C1B80385  11.488   8.038   4.068  0.1271  0.1782 -0.1592
 6633POPC   C2B80386  11.450   8.337   4.427 -0.1416  0.0226  0.4066
 6633POPC   C3B80387  11.499   8.411   4.830  0.0012  0.1001  0.2610
 6633POPC   C4B80388  11.668   8.724   5.070 -0.2491  0.2618 -0.2589
 6634POPC   NC380389   7.900  11.681   2.727  0.0703 -0.0603  0.0787
 6634POPC   PO480390   7.703  12.034   2.678  0.1829  0.0046 -0.0387
 6634POPC   GL180391   7.322  12.117   2.501 -0.0658  0.1098 -0.0344
 6634POPC   GL280392   7.229  12.164   2.725 -0.0042  0.4895  0.0274
 6634POPC   C1A80393   6.897  11.908   2.484  0.4290 -0.0827 -0.0804
 6634POPC   D2A80394   6.446  11.865   2.683 -0.0873  0.0672 -0.0740
 6634POPC   C3A80395   6.134  11.647   2.867 -0.0847 -0.1827  0.0112
 6634POPC   C4A80396   5.730  11.558   3.044 -0.2050 -0.0757 -0.1715
 6634POPC   C1B80397   6.980  12.365   3.023  0.2283  0.1588  0.1364
 6634POPC   C2B80398   6.722  12.233   3.391 -0.4181 -0.1969 -0.0434
 6634POPC   C3B80399   6.582  11.942   3.723  0.1038  0.3240  0.2002
 6634POPC   C4B80400   6.519  11.929   4.219  0.4048  0.3055  0.0472
 6635POPC   NC380401   9.919   7.678   3.560 -0.0308  0.2927  0.1657
 6635POPC   PO480402  10.194   7.629   3.823  0.1308  0.0883 -0.0972
 6635POPC   GL180403  10.131   7.508   4.150 -0.1024  0.2048 -0.1967
 6635POPC   GL280404   9.978   7.296   4.210 -0.1825  0.3785  0.1656
 6635POPC   C1A80405  10.225   7.549   4.611  0.1760 -0.2670 -0.5074
 6635POPC   D2A80406  10.072   7.488   5.102 -0.0238  0.2236 -0.1664
 6635POPC   C3A80407  10.407   7.352   5.426  0.0616  0.1713 -0.0697
 6635POPC   C4A80408  10.345   7.173   5.839  0.3787  0.2813 -0.3617
 6635POPC   C1B80409   9.746   7.349   4.634 -0.1467 -0.0510 -0.2233
 6635POPC   C2B80410   9.675   7.065   4.965  0.3262 -0.2097 -0.0629
 6635POPC   C3B80411   9.836   7.036   5.403 -0.0810  0.0319 -0.0679
 6635POPC   C4B80412   9.897   7.430   5.730  0.1955 -0.1332  0.0129
 6636POPC   NC380413  16.213  11.232   3.370 -0.1713  0.1810  0.2827
 6636POPC   PO480414  16.177  11.479   3.640 -0.2128  0.1083  0.3009
 6636POPC   GL180415  16.139  11.527   3.994  0.1385 -0.0354  0.2427
 6636POPC   GL280416  15.885  11.328   4.088  0.0905  0.1605  0.0093
 6636POPC   C1A80417  16.270  11.536   4.404  0.4104 -0.1386  0.1484
 6636POPC   D2A80418  16.613  11.570   4.645 -0.2855 -0.0411  0.0407
 6636POPC   C3A80419  16.705  11.805   5.048 -0.2820 -0.1053 -0.0911
 6636POPC   C4A80420  16.725  11.813   5.523 -0.2029  0.2035  0.0865
 6636POPC   C1B80421  15.887  11.202   4.512  0.0364 -0.0639  0.1507
 6636POPC   C2B80422  15.898  11.203   4.924  0.0850 -0.1302 -0.1633
 6636POPC   C3B80423  15.764  11.062   5.373 -0.0449  0.2403  0.2098
 6636POPC   C4B80424  15.629  11.297   5.677 -0.1028  0.0970 -0.0617
 6637POPC   NC380425  25.194   0.525   3.801 -0.2160 -0.2281 -0.1565
 6637POPC   PO480426  24.871   0.308   3.910  0.1110 -0.0416  0.0511
 6637POPC   GL180427  25.051   0.038   4.123  0.1545  0.1247 -0.1033
 6637POPC   GL280428  25.244  -0.104   4.019  0.0129 -0.2027  0.0896
 6637POPC   C1A80429  24.856  -0.124   4.501 -0.1148 -0.1043  0.1014
 6637POPC   D2A80430  24.450  -0.204   4.661 -0.0806 -0.0828 -0.1118
 6637POPC   C3A80431  24.507  -0.152   5.206 -0.1517  0.5166 -0.3239
 6637POPC   C4A80432  24.457   0.241   5.501  0.1651 -0.2452 -0.1125
 6637POPC   C1B80433  25.472  -0.186   4.434  0.1306  0.1372  0.0840
 6637POPC   C2B80434  25.587  -0.319   4.882 -0.1597 -0.0274  0.0214
 6637POPC   C3B80435  25.456  -0.115   5.246 -0.0083  0.1073  0.1727
 6637POPC   C4B80436  25.468   0.194   5.626 -0.0803 -0.1536  0.0228
 6638POPC   NC380437   9.612  27.345   3.482 -0.0837  0.0302  0.1313
 6638POPC   PO480438   9.289  27.560   3.596  0.0400  0.4781  0.2980
 6638POPC   GL180439   9.287  27.256   3.900  0.0469 -0.2294 -0.3213
 6638POPC   GL280440   9.511  27.332   4.033 -0.0939  0.0260  0.2810
 6638POPC   C1A80441   9.196  27.200   4.378  0.3432  0.0104  0.1079
 6638POPC   D2A80442   9.199  26.947   4.750  0.1566 -0.2713  0.1585
 6638POPC   C3A80443   9.460  26.865   5.060 -0.1661 -0.2798  0.1110
 6638POPC   C4A80444   9.579  26.882   5.461 -0.1151  0.1994  0.1721
 6638POPC   C1B80445   9.626  27.437   4.455 -0.2017 -0.0095  0.0766
 6638POPC   C2B80446   9.546  27.363   4.887  0.1576 -0.0903 -0.0747
 6638POPC   C3B80447   9.354  27.354   5.326  0.0536 -0.1603 -0.0498
 6638POPC   C4B80448   8.986  27.258   5.590 -0.1081 -0.1029  0.1037
 6639POPC   NC380449  22.871  20.505   3.326 -0.0318 -0.2794  0.1343
 6639POPC   PO480450  22.874  20.179   3.563  0.2038 -0.1344  0.0275
 6639POPC   GL180451  22.776  20.365   3.928  0.1735  0.1439  0.0050
 6639POPC   GL280452  22.628  20.136   4.083 -0.0453 -0.1056 -0.2601
 6639POPC   C1A80453  22.724  20.677   4.281  0.2117  0.0665 -0.1861
 6639POPC   D2A80454  22.491  20.550   4.637 -0.0080  0.3198 -0.1549
 6639POPC   C3A80455  22.625  20.634   5.104  0.2268 -0.1055  0.5081
 6639POPC   C4A80456  22.704  20.983   5.445 -0.0016  0.0811 -0.2021
 6639POPC   C1B80457  22.827  19.969   4.435 -0.0349  0.1902 -0.2961
 6639POPC   C2B80458  22.901  19.657   4.726 -0.0594 -0.1326  0.2971
 6639POPC   C3B80459  22.806  19.736   5.212 -0.1311 -0.0572 -0.0167
 6639POPC   C4B80460  22.899  20.213   5.352  0.0548 -0.2161 -0.0135
 6640POPC   NC380461   7.888  17.736   3.687 -0.1386  0.3085 -0.1559
 6640POPC   PO480462   7.904  17.353   3.860 -0.2074 -0.1212  0.2185
 6640POPC   GL180463   8.055  17.486   4.264  0.0110 -0.0548  0.1356
 6640POPC   GL280464   8.271  17.687   4.237  0.2282 -0.0543 -0.0202
 6640POPC   C1A80465   7.975  17.446   4.719 -0.0312  0.1322 -0.0973
 6640POPC   D2A80466   8.085  17.453   5.194 -0.2564  0.1236  0.2137
 6640POPC   C3A80467   7.979  17.499   5.682  0.0296  0.2172 -0.4119
 6640POPC   C4A80468   8.334  17.268   5.942 -0.0363 -0.2633 -0.1416
 6640POPC   C1B80469   8.294  17.787   4.708 -0.2993 -0.2870 -0.0426
 6640POPC   C2B80470   8.444  17.800   5.134  0.1458  0.1271 -0.2277
 6640POPC   C3B80471   8.504  17.604   5.493 -0.2255 -0.1650 -0.3152
 6640POPC   C4B80472   8.725  17.263   5.573 -0.2203 -0.0832 -0.0908
 6641POPC   NC380473  15.251   7.138   3.856 -0.2242 -0.0534  0.1182
 6641POPC   PO480474  14.971   7.402   3.785 -0.1043 -0.3698  0.1491
 6641POPC   GL180475  14.952   7.313   4.203  0.0397 -0.2082  0.2373
 6641POPC   GL280476  14.674   7.332   4.282  0.1068  0.1924 -0.2548
 6641POPC   C1A80477  15.046   7.284   4.638 -0.1425 -0.3591 -0.2464
 6641POPC   D2A80478  15.108   7.008   4.970  0.0224 -0.2447 -0.1812
 6641POPC   C3A80479  15.388   7.021   5.374 -0.1061  0.2514  0.2486
 6641POPC   C4A80480  15.653   7.032   5.808  0.0615  0.0155 -0.2046
 6641POPC   C1B80481  14.579   7.189   4.724  0.0197 -0.1536 -0.0573
 6641POPC   C2B80482  14.667   7.221   5.179 -0.1307 -0.3070  0.1883
 6641POPC   C3B80483  14.697   7.337   5.596 -0.1392  0.3180  0.0374
 6641POPC   C4B80484  14.613   7.308   6.075 -0.2331 -0.0432 -0.1077
 6642POPC   NC380485   9.552  21.135   4.217 -0.0262 -0.0402 -0.0614
 6642POPC   PO480486   9.251  21.324   4.052  0.0443  0.3290 -0.0584
 6642POPC   GL180487   9.133  21.111   4.340 -0.0046  0.3207  0.2262
 6642POPC   GL280488   8.944  20.887   4.426  0.0229 -0.2220  0.1460
 6642POPC   C1A80489   8.981  21.229   4.759  0.2721  0.3138  0.1328
 6642POPC   D2A80490   8.928  21.121   5.206 -0.0693  0.2795  0.0679
 6642POPC   C3A80491   8.872  20.669   5.128 -0.0112 -0.1973 -0.0022
 6642POPC   C4A80492   8.894  20.214   5.307  0.0399  0.1362  0.1409
 6642POPC   C1B80493   8.641  20.714   4.693 -0.0971 -0.1882  0.1666
 6642POPC   C2B80494   8.237  20.754   4.974 -0.1992 -0.1614 -0.0074
 6642POPC   C3B80495   8.046  20.834   5.346 -0.1056  0.0297 -0.0411
 6642POPC   C4B80496   8.208  20.677   5.777 -0.0896  0.0313 -0.1239
 6643POPC   NC380497  26.572  24.728   3.725 -0.0343  0.1338  0.3663
 6643POPC   PO480498  26.810  24.689   4.009  0.2988 -0.2104  0.2755
 6643POPC   GL180499  26.978  24.841   4.334 -0.0278  0.1462 -0.0310
 6643POPC   GL280500  26.823  24.653   4.502 -0.4689  0.1111 -0.2164
 6643POPC   C1A80501  27.380  25.074   4.446  0.0313  0.0667  0.0981
 6643POPC   D2A80502  27.840  25.238   4.667  0.1289  0.1203 -0.3292
 6643POPC   C3A80503  27.767  25.298   5.110 -0.0276 -0.1507  0.2456
 6643POPC   C4A80504  27.732  25.042   5.477 -0.0103  0.2521  0.0084
 6643POPC   C1B80505  26.984  24.233   4.789 -0.0435 -0.0013  0.0316
 6643POPC   C2B80506  27.006  23.818   4.958  0.1459 -0.0649 -0.0161
 6643POPC   C3B80507  27.124  23.738   5.412  0.1323  0.1677 -0.0538
 6643POPC   C4B80508  27.200  23.995   5.770  0.2669  0.1158  0.1616
 6644POPC   NC380509  19.040   0.171   3.849  0.1874  0.1334 -0.2073
 6644POPC   PO480510  18.749   0.332   3.699 -0.0934  0.0261 -0.1286
 6644POPC   GL180511  18.724   0.414   4.091  0.0589  0.0097  0.0135
 6644POPC   GL280512  18.588   0.690   4.022 -0.0879  0.2239 -0.1952
 6644POPC   C1A80513  18.985   0.169   4.402 -0.0905 -0.3220 -0.2262
 6644POPC   D2A80514  19.112  -0.102   4.749 -0.0157  0.0651  0.1092
 6644POPC   C3A80515  18.913  -0.157   5.214  0.0458 -0.1055 -0.0851
 6644POPC   C4A80516  18.658  -0.436   5.457 -0.2463  0.1518 -0.1437
 6644POPC   C1B80517  18.664   1.017   4.360  0.1032 -0.2046  0.0895
 6644POPC   C2B80518  18.892   0.967   4.792  0.2135  0.1359 -0.1628
 6644POPC   C3B80519  19.180   0.700   5.037  0.0110  0.1056  0.0454
 6644POPC   C4B80520  19.261   0.227   5.159 -0.1010  0.1586  0.0224
 6645POPC   NC380521   9.002   5.795   3.073  0.1462 -0.0700 -0.1098
 6645POPC   PO480522   8.644   5.682   3.190  0.0332  0.1124  0.0899
 6645POPC   GL180523   8.642   5.646   3.623  0.3714  0.1479  0.1725
 6645POPC   GL280524   8.577   5.396   3.698  0.0456  0.0567 -0.1387
 6645POPC   C1A80525   8.305   5.856   3.911 -0.3867  0.0282  0.2056
 6645POPC   D2A80526   8.117   5.631   4.288 -0.3107 -0.2307  0.0292
 6645POPC   C3A80527   8.373   5.438   4.640  0.1705 -0.0502  0.3904
 6645POPC   C4A80528   8.625   5.162   4.936 -0.3946 -0.2717 -0.1514
 6645POPC   C1B80529   8.533   5.314   4.144 -0.0496 -0.3849  0.0380
 6645POPC   C2B80530   8.632   4.901   4.401 -0.1989  0.1645  0.0349
 6645POPC   C3B80531   8.719   4.546   4.708 -0.1629 -0.2761  0.1043
 6645POPC   C4B80532   8.857   4.686   5.121 -0.0349 -0.2682 -0.1615
 6646POPC   NC380533  22.470  30.008   3.678 -0.1502  0.1205 -0.0045
 6646POPC   PO480534  22.138  29.846   3.512 -0.1879  0.2742 -0.0644
 6646POPC   GL180535  22.035  29.959   3.859  0.0417  0.0921 -0.1980
 6646POPC   GL280536  21.987  29.740   4.011 -0.1098 -0.0371  0.0638
 6646POPC   C1A80537  22.334  30.025   4.225  0.1361 -0.2501  0.1737
 6646POPC   D2A80538  22.336  30.007   4.679 -0.0280  0.0967 -0.3256
 6646POPC   C3A80539  22.506  29.623   4.908 -0.0546  0.1623 -0.0726
 6646POPC   C4A80540  22.690  29.684   5.390 -0.1364 -0.1215  0.0707
 6646POPC   C1B80541  21.891  29.996   4.425  0.1421  0.1933  0.0306
 6646POPC   C2B80542  21.741  29.952   4.799 -0.1220 -0.1053  0.0354
 6646POPC   C3B80543  21.499  29.984   5.211  0.0709 -0.2850  0.0610
 6646POPC   C4B80544  21.053  30.022   5.467 -0.1809  0.0359 -0.0042
 6647POPC   NC380545  12.362  11.315   3.468 -0.0473  0.2342  0.2217
 6647POPC   PO480546  12.367  10.919   3.412 -0.3254  0.0744  0.0866
 6647POPC   GL180547  12.346  10.897   3.750  0.1603 -0.1556  0.1680
 6647POPC   GL280548  12.245  11.073   3.937 -0.1675 -0.0883  0.0726
 6647POPC   C1A80549  12.179  10.653   4.143 -0.0598 -0.0877  0.2881
 6647POPC   D2A80550  12.180  10.318   4.472 -0.2618  0.0601  0.3434
 6647POPC   C3A80551  11.906  10.177   4.810 -0.0643  0.0053 -0.0287
 6647POPC   C4A80552  11.910   9.914   5.212  0.2231  0.2050 -0.1754
 6647POPC   C1B80553  12.562  10.926   4.245 -0.0132 -0.2376 -0.0474
 6647POPC   C2B80554  12.765  10.923   4.700 -0.0388  0.3839 -0.1404
 6647POPC   C3B80555  12.919  11.206   4.995 -0.3061 -0.1492 -0.1218
 6647POPC   C4B80556  12.985  11.511   5.314  0.1792 -0.0021  0.0123
 6648POPC   NC380557  21.951  25.971   4.026 -0.1661 -0.0776  0.0360
 6648POPC   PO480558  21.615  26.053   3.850 -0.1382  0.0876  0.0727
 6648POPC   GL180559  21.345  25.986   4.212 -0.0098 -0.3898  0.1688
 6648POPC   GL280560  21.424  26.237   4.335  0.1440  0.0593 -0.0066
 6648POPC   C1A80561  21.211  25.722   4.529  0.2495  0.3715 -0.3621
 6648POPC   D2A80562  21.359  25.730   4.993  0.1476  0.0176  0.1160
 6648POPC   C3A80563  21.494  25.900   5.383  0.0731  0.1647 -0.2366
 6648POPC   C4A80564  21.748  25.676   5.767  0.0616 -0.1933 -0.0259
 6648POPC   C1B80565  21.472  26.358   4.758 -0.1422 -0.2421 -0.0062
 6648POPC   C2B80566  21.718  26.140   5.055 -0.3158  0.0585 -0.1060
 6648POPC   C3B80567  22.085  26.346   5.284  0.2969  0.2731 -0.0942
 6648POPC   C4B80568  22.427  26.419   5.565 -0.6377 -0.2237 -0.0560
 6649POPC   NC380569  19.179   7.119   4.022 -0.0858  0.2966 -0.0615
 6649POPC   PO480570  19.432   7.205   3.721 -0.0472 -0.3059  0.0397
 6649POPC   GL180571  19.570   7.355   4.051  0.1646  0.0755 -0.1254
 6649POPC   GL280572  19.679   7.128   4.241 -0.2077 -0.3161 -0.3806
 6649POPC   C1A80573  19.281   7.448   4.414 -0.2465  0.2398 -0.3079
 6649POPC   D2A80574  19.120   7.301   4.814  0.0679  0.1400 -0.1320
 6649POPC   C3A80575  19.188   7.293   5.245 -0.0515  0.0646 -0.1587
 6649POPC   C4A80576  19.308   7.490   5.622 -0.1812 -0.2208  0.1590
 6649POPC   C1B80577  19.665   7.057   4.724 -0.2518 -0.0394  0.2918
 6649POPC   C2B80578  19.514   6.818   5.032  0.1732 -0.2150 -0.2329
 6649POPC   C3B80579  19.198   6.766   5.392  0.1007 -0.0841  0.2084
 6649POPC   C4B80580  18.896   6.930   5.680 -0.0514  0.0579  0.0546
 6650POPC   NC380581  30.275   2.406   3.943 -0.1998 -0.2340  0.0019
 6650POPC   PO480582  29.909   2.538   3.796 -0.0593 -0.0943  0.4293
 6650POPC   GL180583  29.664   2.660   4.122 -0.1086  0.0285  0.2078
 6650POPC   GL280584  29.534   2.875   4.199  0.0302  0.2031  0.2076
 6650POPC   C1A80585  29.907   2.658   4.540  0.1816  0.2528 -0.0716
 6650POPC   D2A80586  30.147   2.471   4.935 -0.3248 -0.1299 -0.0378
 6650POPC   C3A80587  29.915   2.476   5.356 -0.0699  0.0430 -0.3824
 6650POPC   C4A80588  29.832   2.592   5.851 -0.0671  0.0118 -0.3889
 6650POPC   C1B80589  29.515   3.048   4.593  0.0489  0.2879 -0.3086
 6650POPC   C2B80590  29.346   3.125   5.027 -0.2288  0.1238  0.0378
 6650POPC   C3B80591  29.341   3.377   5.375 -0.0972 -0.0592 -0.1994
 6650POPC   C4B80592  29.789   3.398   5.562 -0.0123  0.1960 -0.1208
 6651POPC   NC380593  13.764   0.555   3.776  0.0339 -0.1574 -0.2333
 6651POPC   PO480594  13.642   0.227   3.598 -0.3937  0.3546  0.0308
 6651POPC   GL180595  13.489   0.005   3.854  0.0505 -0.1761 -0.1851
 6651POPC   GL280596  13.377   0.219   4.044  0.2165  0.0037 -0.1758
 6651POPC   C1A80597  13.547  -0.234   4.237  0.0173 -0.1000  0.2271
 6651POPC   D2A80598  13.751  -0.551   4.524 -0.4673  0.2854  0.0779
 6651POPC   C3A80599  13.590  -0.745   4.885  0.1421  0.2043 -0.3276
 6651POPC   C4A80600  13.239  -1.055   4.772  0.1992  0.0520 -0.2908
 6651POPC   C1B80601  13.580   0.209   4.452 -0.1136 -0.1994 -0.0512
 6651POPC   C2B80602  13.640  -0.122   4.761  0.4105  0.0421 -0.0279
 6651POPC   C3B80603  13.780  -0.402   5.174 -0.1111  0.1844  0.2678
 6651POPC   C4B80604  14.023  -0.440   5.603 -0.1689  0.1012 -0.1529
 6652POPC   NC380605  27.562  27.517   3.308 -0.0277 -0.3167  0.1414
 6652POPC   PO480606  27.560  27.268   3.651 -0.5357  0.1161  0.0673
 6652POPC   GL180607  27.673  27.432   3.979 -0.1576 -0.3271 -0.0204
 6652POPC   GL280608  27.874  27.621   4.086 -0.0765  0.3381 -0.0392
 6652POPC   C1A80609  27.521  27.220   4.362 -0.2526 -0.3952 -0.1179
 6652POPC   D2A80610  27.647  26.887   4.683  0.1796  0.2011  0.1793
 6652POPC   C3A80611  27.598  26.940   5.147 -0.0088  0.1146  0.0061
 6652POPC   C4A80612  27.693  27.076   5.618  0.1245  0.0012  0.2915
 6652POPC   C1B80613  27.826  28.016   4.383 -0.0576 -0.0588 -0.0089
 6652POPC   C2B80614  28.040  28.254   4.725  0.0554 -0.0114 -0.1565
 6652POPC   C3B80615  28.148  28.683   4.887  0.0468 -0.0537  0.1712
 6652POPC   C4B80616  28.139  28.866   5.311  0.1262 -0.0719 -0.1689
 6653POPC   NC380617   7.716  26.783   3.839 -0.0811 -0.0242  0.0862
 6653POPC   PO480618   7.455  27.045   3.919  0.0675 -0.1232  0.0185
 6653POPC   GL180619   7.638  27.130   4.347  0.0180 -0.1729  0.4378
 6653POPC   GL280620   7.909  27.198   4.302  0.3549 -0.0124  0.0094
 6653POPC   C1A80621   7.620  27.159   4.823 -0.2696  0.0662 -0.0730
 6653POPC   D2A80622   7.735  27.242   5.301 -0.0462 -0.1654  0.0868
 6653POPC   C3A80623   7.351  27.478   5.549  0.0989 -0.1194 -0.0954
 6653POPC   C4A80624   6.961  27.351   5.735  0.0071  0.1135 -0.1702
 6653POPC   C1B80625   8.187  27.271   4.642 -0.3741 -0.0977 -0.1588
 6653POPC   C2B80626   8.480  27.450   4.879  0.1228 -0.0962  0.0333
 6653POPC   C3B80627   8.637  27.686   5.271 -0.3229 -0.0014  0.0002
 6653POPC   C4B80628   8.384  28.008   5.407 -0.0340  0.2836  0.0290
 6654POPC   NC380629   3.996  17.728   3.220 -0.2143  0.2030 -0.4682
 6654POPC   PO480630   3.648  17.543   3.322 -0.2931  0.0846  0.0138
 6654POPC   GL180631   3.752  17.923   3.653 -0.0933 -0.0884  0.1262
 6654POPC   GL280632   3.509  17.902   3.708  0.3292 -0.0675 -0.1948
 6654POPC   C1A80633   3.712  18.113   4.102  0.1304 -0.0593  0.0347
 6654POPC   D2A80634   3.738  18.467   4.453 -0.1233  0.1469  0.1379
 6654POPC   C3A80635   3.799  18.609   4.899  0.0438 -0.1635  0.0309
 6654POPC   C4A80636   4.163  18.788   5.206  0.0758  0.1593  0.1967
 6654POPC   C1B80637   3.422  17.694   4.112  0.1328  0.0102  0.1264
 6654POPC   C2B80638   3.432  17.884   4.498 -0.3722 -0.3998 -0.0680
 6654POPC   C3B80639   3.343  18.265   4.792  0.1903  0.0857  0.1153
 6654POPC   C4B80640   3.334  18.547   5.075 -0.1033 -0.0204 -0.2822
 6655POPC   NC380641  25.079  28.786   3.866  0.2607 -0.0820  0.2341
 6655POPC   PO480642  25.206  28.455   3.777 -0.3159  0.1570  0.1445
 6655POPC   GL180643  25.290  28.366   4.189  0.2525 -0.2836 -0.2384
 6655POPC   GL280644  25.357  28.110   4.192  0.2174 -0.0734 -0.1592
 6655POPC   C1A80645  25.232  28.381   4.657 -0.1974 -0.2022  0.1027
 6655POPC   D2A80646  25.238  28.494   5.158 -0.0901 -0.0683  0.2257
 6655POPC   C3A80647  25.235  28.919   5.388 -0.0099 -0.0947 -0.1763
 6655POPC   C4A80648  25.432  29.164   5.722  0.0399 -0.2040 -0.1328
 6655POPC   C1B80649  25.592  28.004   4.553  0.0325  0.0312 -0.0697
 6655POPC   C2B80650  25.628  27.998   4.959 -0.1340  0.0314 -0.2152
 6655POPC   C3B80651  25.771  27.880   5.404 -0.0829 -0.2614  0.2751
 6655POPC   C4B80652  25.786  27.782   5.863 -0.1705  0.1734  0.1712
 6656POPC   NC380653   6.488  14.030   3.895  0.1690  0.0265 -0.3046
 6656POPC   PO480654   6.849  14.180   3.878  0.2570 -0.2519  0.3209
 6656POPC   GL180655   6.903  13.984   4.190  0.0772  0.0592  0.3649
 6656POPC   GL280656   6.831  14.331   4.384 -0.0717  0.3671  0.2479
 6656POPC   C1A80657   6.709  13.908   4.630 -0.3525 -0.4665 -0.3572
 6656POPC   D2A80658   6.599  13.724   5.031 -0.1773  0.3435 -0.3845
 6656POPC   C3A80659   6.617  13.724   5.482  0.1979  0.5011  0.0332
 6656POPC   C4A80660   6.588  13.940   5.868 -0.2632  0.2078  0.0583
 6656POPC   C1B80661   6.792  14.412   4.834 -0.1782  0.0334  0.1123
 6656POPC   C2B80662   6.617  14.182   5.200 -0.0673 -0.2728  0.1041
 6656POPC   C3B80663   6.124  14.123   5.271 -0.0535  0.2055  0.4001
 6656POPC   C4B80664   5.973  13.831   4.965 -0.0498  0.1416  0.1382
 6657POPC   NC380665   1.851   2.832   3.841  0.4441  0.2200  0.1692
 6657POPC   PO480666   1.533   2.999   3.979 -0.1009  0.4985  0.0163
 6657POPC   GL180667   1.687   2.820   4.292 -0.2320  0.2121  0.1128
 6657POPC   GL280668   1.601   2.959   4.478 -0.0356 -0.2817  0.1252
 6657POPC   C1A80669   1.634   2.480   4.594 -0.1419  0.2101  0.3536
 6657POPC   D2A80670   1.699   2.282   5.009  0.3281  0.1498 -0.0079
 6657POPC   C3A80671   1.921   2.299   5.426 -0.0810 -0.0216 -0.1750
 6657POPC   C4A80672   2.121   2.163   5.874 -0.0367  0.0043  0.3611
 6657POPC   C1B80673   1.659   3.200   4.801 -0.0070  0.1104 -0.0293
 6657POPC   C2B80674   1.547   3.360   5.214 -0.0206 -0.1169  0.0487
 6657POPC   C3B80675   1.751   3.367   5.631  0.0217 -0.0289 -0.2331
 6657POPC   C4B80676   1.684   3.450   6.114 -0.3596  0.1329 -0.0989
 6658POPC   NC380677   5.598  17.400   3.610  0.3567 -0.0012  0.1046
 6658POPC   PO480678   5.563  17.155   3.901  0.1125  0.1480 -0.2269
 6658POPC   GL180679   5.335  17.239   4.190 -0.2201 -0.1921 -0.2832
 6658POPC   GL280680   5.334  17.560   4.149 -0.0246 -0.0043  0.0217
 6658POPC   C1A80681   5.201  17.049   4.585  0.0361  0.2538  0.1479
 6658POPC   D2A80682   5.144  16.867   4.965  0.2062 -0.2391  0.3166
 6658POPC   C3A80683   4.954  16.764   5.320  0.1516  0.1538  0.2111
 6658POPC   C4A80684   4.898  16.558   5.737 -0.0094  0.0388  0.1120
 6658POPC   C1B80685   5.508  17.471   4.602 -0.1849  0.3089 -0.3342
 6658POPC   C2B80686   5.292  17.371   5.030 -0.2693 -0.1464  0.2269
 6658POPC   C3B80687   5.298  17.385   5.509 -0.0476  0.2209 -0.0985
 6658POPC   C4B80688   5.562  17.133   5.759 -0.0670  0.1066 -0.2612
 6659POPC   NC380689   9.157  10.779   3.714 -0.2782 -0.3087 -0.6176
 6659POPC   PO480690   8.946  10.532   3.970  0.1213 -0.1338  0.0347
 6659POPC   GL180691   8.847  10.694   4.187 -0.1140 -0.2568  0.0725
 6659POPC   GL280692   8.838  10.506   4.433 -0.0110 -0.0166 -0.1480
 6659POPC   C1A80693   8.469  10.867   4.415  0.4785 -0.1175 -0.0915
 6659POPC   D2A80694   8.173  11.010   4.778  0.0004  0.2519  0.1143
 6659POPC   C3A80695   7.973  11.405   4.723 -0.1206 -0.3260  0.0364
 6659POPC   C4A80696   7.695  11.705   5.027  0.2105  0.0124  0.0282
 6659POPC   C1B80697   8.656  10.503   4.855 -0.1311 -0.2060 -0.0937
 6659POPC   C2B80698   8.267  10.522   5.033  0.0959 -0.1514  0.2401
 6659POPC   C3B80699   7.931  10.751   5.317  0.0578  0.0460  0.0481
 6659POPC   C4B80700   7.909  11.013   5.663 -0.0619 -0.0761 -0.0212
 6660POPC   NC380701  15.176  25.025   4.023  0.1024  0.1029 -0.1091
 6660POPC   PO480702  14.815  25.238   4.059 -0.0426 -0.1274  0.0962
 6660POPC   GL180703  14.896  25.128   4.441 -0.0148  0.0710  0.0599
 6660POPC   GL280704  15.215  25.141   4.524 -0.1013 -0.0621 -0.1928
 6660POPC   C1A80705  14.736  24.813   4.707  0.1330 -0.0385  0.0145
 6660POPC   D2A80706  14.761  24.796   5.174 -0.0164  0.1329 -0.1813
 6660POPC   C3A80707  14.436  24.688   5.549 -0.1416 -0.1740 -0.0296
 6660POPC   C4A80708  14.078  24.712   5.797  0.2710  0.1133  0.0213
 6660POPC   C1B80709  14.971  25.281   4.896  0.1349  0.3877 -0.0281
 6660POPC   C2B80710  14.612  25.260   5.212  0.0129  0.4121 -0.0893
 6660POPC   C3B80711  14.753  25.054   5.620  0.0666 -0.0625  0.1929
 6660POPC   C4B80712  14.969  24.792   5.935 -0.2127  0.3858  0.1780
 6661POPC   NC380713  13.997  12.021   2.966 -0.2036 -0.3049 -0.2585
 6661POPC   PO480714  13.801  11.721   2.993 -0.1656 -0.2105 -0.0723
 6661POPC   GL180715  13.815  11.726   3.412  0.0445  0.2116 -0.0996
 6661POPC   GL280716  13.688  11.472   3.540  0.1894 -0.2106 -0.0660
 6661POPC   C1A80717  14.154  11.705   3.713 -0.1492 -0.1205 -0.1956
 6661POPC   D2A80718  14.563  11.787   3.893  0.4120  0.0564 -0.0800
 6661POPC   C3A80719  14.497  11.923   4.311  0.1995 -0.2890  0.1766
 6661POPC   C4A80720  14.717  11.924   4.656 -0.1370  0.1909 -0.3314
 6661POPC   C1B80721  13.732  11.523   3.991 -0.0656  0.0510 -0.0320
 6661POPC   C2B80722  13.647  11.355   4.411 -0.3340  0.1534 -0.2392
 6661POPC   C3B80723  13.686  10.932   4.700  0.2183 -0.1992  0.1617
 6661POPC   C4B80724  13.718  10.446   4.718  0.0904 -0.0154 -0.0104
 6662POPC   NC380725   0.214  24.878   2.902 -0.2573  0.0191  0.1123
 6662POPC   PO480726   0.204  24.608   3.198 -0.1233  0.2202  0.0195
 6662POPC   GL180727   0.271  24.329   3.509  0.4195 -0.0071 -0.3296
 6662POPC   GL280728  -0.064  24.385   3.541 -0.0805 -0.0149  0.5075
 6662POPC   C1A80729   0.218  24.322   3.970 -0.0467  0.1048  0.0750
 6662POPC   D2A80730   0.027  24.057   4.334  0.0843  0.1641 -0.2705
 6662POPC   C3A80731  -0.292  24.231   4.669 -0.2188 -0.3055  0.2195
 6662POPC   C4A80732  -0.240  24.518   4.994  0.0018 -0.2495 -0.3469
 6662POPC   C1B80733  -0.243  24.717   3.795 -0.0019 -0.1494 -0.0127
 6662POPC   C2B80734  -0.662  24.937   3.966 -0.3105  0.1146 -0.2776
 6662POPC   C3B80735  -0.896  25.068   4.270 -0.0290 -0.2829 -0.0730
 6662POPC   C4B80736  -0.998  25.235   4.711 -0.1049  0.3205 -0.3822
 6663POPC   NC380737   6.505   6.514   3.777  0.1585 -0.0905  0.1555
 6663POPC   PO480738   6.183   6.761   3.685  0.1026 -0.1704 -0.1052
 6663POPC   GL180739   6.234   6.908   4.100 -0.1366 -0.0179 -0.0598
 6663POPC   GL280740   6.526   6.871   4.109  0.2961  0.2038 -0.1176
 6663POPC   C1A80741   6.123   7.020   4.514  0.2076 -0.1471  0.0298
 6663POPC   D2A80742   6.001   7.243   4.934  0.1533  0.0272 -0.2124
 6663POPC   C3A80743   5.950   7.190   5.406 -0.0742  0.1674  0.1321
 6663POPC   C4A80744   5.883   7.068   5.843 -0.5025  0.2085 -0.0744
 6663POPC   C1B80745   6.672   6.774   4.530 -0.0678 -0.1625 -0.4108
 6663POPC   C2B80746   7.043   6.909   4.681  0.0436  0.5026  0.1589
 6663POPC   C3B80747   7.131   7.073   5.050  0.0730  0.2078 -0.0192
 6663POPC   C4B80748   7.117   7.324   5.489 -0.0088  0.0748  0.1089
 6664POPC   NC380749   2.988   9.478   3.821 -0.0209  0.0049 -0.2938
 6664POPC   PO480750   3.373   9.490   3.917 -0.3545 -0.2428  0.1687
 6664POPC   GL180751   3.310   9.444   4.328 -0.4066 -0.2457  0.0472
 6664POPC   GL280752   3.608   9.387   4.392 -0.1462 -0.2957 -0.5657
 6664POPC   C1A80753   3.374   9.741   4.660  0.0266 -0.1701 -0.0125
 6664POPC   D2A80754   3.204   9.806   5.047 -0.1274 -0.2876 -0.0941
 6664POPC   C3A80755   3.018   9.473   5.313  0.1202  0.1909 -0.0364
 6664POPC   C4A80756   2.809   9.151   5.474 -0.2932  0.0963  0.2767
 6664POPC   C1B80757   3.411   9.070   4.579  0.0837  0.4873 -0.0947
 6664POPC   C2B80758   3.446   8.733   4.940  0.1087  0.2242  0.1987
 6664POPC   C3B80759   3.537   8.387   5.232 -0.0364 -0.1561  0.0902
 6664POPC   C4B80760   3.458   8.039   5.508 -0.0138  0.1538 -0.2470
 6665POPC   NC380761  25.970  10.185   3.848 -0.0823 -0.4292 -0.3010
 6665POPC   PO480762  25.751   9.980   3.658  0.1494 -0.0006  0.2249
 6665POPC   GL180763  25.848   9.795   4.063 -0.0795  0.2133  0.0554
 6665POPC   GL280764  25.706   9.533   4.117 -0.1980 -0.0753  0.0273
 6665POPC   C1A80765  26.036  10.000   4.434 -0.1644  0.0071 -0.1547
 6665POPC   D2A80766  26.262   9.914   4.864 -0.2438  0.0543  0.3217
 6665POPC   C3A80767  26.136   9.788   5.283 -0.0783  0.4516  0.0423
 6665POPC   C4A80768  26.044   9.756   5.717 -0.0622  0.0813  0.2312
 6665POPC   C1B80769  25.595   9.820   4.474  0.1942 -0.0300  0.1554
 6665POPC   C2B80770  25.371   9.884   4.844 -0.2136 -0.2072  0.2957
 6665POPC   C3B80771  25.248  10.203   5.132  0.0442 -0.1695  0.0725
 6665POPC   C4B80772  25.117  10.607   5.402 -0.0274  0.0182 -0.1325
 6666POPC   NC380773  15.738  19.987   3.127  0.0128 -0.1015  0.0377
 6666POPC   PO480774  15.991  19.897   3.447  0.1671 -0.0012  0.4563
 6666POPC   GL180775  15.863  19.883   3.776  0.3047 -0.3758 -0.0633
 6666POPC   GL280776  16.088  19.697   3.878 -0.1859  0.1586 -0.2567
 6666POPC   C1A80777  15.774  19.993   4.244 -0.0788  0.0185  0.0954
 6666POPC   D2A80778  15.571  20.051   4.690  0.0648 -0.1350 -0.3842
 6666POPC   C3A80779  15.804  20.133   5.071  0.1319 -0.2971 -0.2912
 6666POPC   C4A80780  15.776  20.315   5.445  0.1036  0.0277 -0.0408
 6666POPC   C1B80781  16.220  19.761   4.305  0.5026  0.2372  0.2628
 6666POPC   C2B80782  16.218  19.758   4.765  0.2001  0.0062  0.0815
 6666POPC   C3B80783  16.256  19.749   5.279  0.0919  0.0072 -0.1672
 6666POPC   C4B80784  16.256  19.815   5.739  0.2285 -0.1778  0.0639
 6667POPC   NC380785  22.701  18.751   3.676 -0.0861 -0.2262  0.5244
 6667POPC   PO480786  22.900  19.033   3.842 -0.0025  0.0910  0.1715
 6667POPC   GL180787  22.564  18.973   4.080 -0.3744  0.3614 -0.1896
 6667POPC   GL280788  22.431  18.703   4.201 -0.1059  0.0151  0.0845
 6667POPC   C1A80789  22.242  19.149   4.395  0.0352  0.1115 -0.0494
 6667POPC   D2A80790  21.867  19.311   4.636 -0.2570  0.3110 -0.1715
 6667POPC   C3A80791  21.984  19.717   4.840 -0.2137  0.0102 -0.1150
 6667POPC   C4A80792  21.748  19.860   5.168  0.0021  0.4876 -0.0794
 6667POPC   C1B80793  22.081  18.492   4.281  0.1253  0.0013  0.1046
 6667POPC   C2B80794  21.691  18.427   4.523 -0.2153 -0.1509  0.0439
 6667POPC   C3B80795  21.346  18.495   4.811  0.0896 -0.1394 -0.0895
 6667POPC   C4B80796  21.043  18.241   4.952 -0.0098  0.0426 -0.0129
 6668POPC   NC380797  13.355  23.761   4.124  0.0522  0.3500  0.0237
 6668POPC   PO480798  13.422  24.017   3.834 -0.0220 -0.1445  0.0002
 6668POPC   GL180799  13.392  24.227   4.198  0.1142  0.0731 -0.1604
 6668POPC   GL280800  13.146  24.364   4.057 -0.0482 -0.1990 -0.1970
 6668POPC   C1A80801  13.440  24.275   4.696  0.0750 -0.0373 -0.0004
 6668POPC   D2A80802  13.218  24.326   5.102  0.1256  0.0320 -0.1609
 6668POPC   C3A80803  13.556  24.261   5.371  0.0398  0.1439 -0.0234
 6668POPC   C4A80804  13.749  24.031   5.745 -0.4948  0.1216  0.1159
 6668POPC   C1B80805  12.950  24.128   4.385 -0.0253  0.0181 -0.0417
 6668POPC   C2B80806  12.789  24.023   4.739  0.1660  0.0217 -0.1997
 6668POPC   C3B80807  12.716  24.030   5.214 -0.1090 -0.1753  0.1794
 6668POPC   C4B80808  12.581  24.279   5.540  0.2125 -0.0859 -0.2717
 6669POPC   NC380809   8.366   2.763   3.913  0.2381 -0.1880 -0.0507
 6669POPC   PO480810   8.683   2.558   3.754 -0.0695  0.0351 -0.3301
 6669POPC   GL180811   8.773   2.587   4.137 -0.2989  0.1267  0.0743
 6669POPC   GL280812   8.607   2.506   4.294 -0.0767  0.0490  0.2144
 6669POPC   C1A80813   8.795   2.957   4.439  0.2595 -0.1870  0.2640
 6669POPC   D2A80814   8.864   3.126   4.823  0.1403 -0.1515  0.1727
 6669POPC   C3A80815   8.759   3.114   5.227  0.1816 -0.1249  0.0654
 6669POPC   C4A80816   8.924   3.076   5.653 -0.0798  0.0961  0.0496
 6669POPC   C1B80817   8.582   2.583   4.703  0.3961 -0.0615  0.1747
 6669POPC   C2B80818   8.554   2.669   5.190 -0.0503  0.0961  0.1574
 6669POPC   C3B80819   8.481   2.890   5.572  0.1162  0.1559 -0.1357
 6669POPC   C4B80820   8.288   3.273   5.657 -0.1259  0.0585 -0.0895
 6670POPC   NC380821   8.057  11.781   3.526  0.3172 -0.2157 -0.2045
 6670POPC   PO480822   7.850  11.552   3.209  0.1747  0.1103 -0.1242
 6670POPC   GL180823   7.493  11.645   3.562  0.1200  0.0797  0.2158
 6670POPC   GL280824   7.614  11.957   3.611 -0.2552 -0.2681  0.0632
 6670POPC   C1A80825   7.147  11.282   3.732 -0.1671 -0.2051  0.0614
 6670POPC   D2A80826   6.809  11.043   3.916 -0.3241  0.1938 -0.0563
 6670POPC   C3A80827   6.492  11.078   4.292  0.2074 -0.2693 -0.0904
 6670POPC   C4A80828   6.047  11.064   4.530 -0.1186  0.0243  0.1673
 6670POPC   C1B80829   7.258  12.130   3.873  0.0079 -0.4251 -0.1629
 6670POPC   C2B80830   7.087  12.011   4.296 -0.0261 -0.2447  0.2631
 6670POPC   C3B80831   6.898  11.830   4.688  0.1080  0.1069 -0.1024
 6670POPC   C4B80832   6.744  11.963   5.109  0.1090  0.1644  0.2485
 6671POPC   NC380833  15.124  20.547   3.550  0.0138 -0.0333 -0.1720
 6671POPC   PO480834  15.434  20.729   3.393  0.0660 -0.0355  0.1531
 6671POPC   GL180835  15.549  20.637   3.729  0.0320 -0.2918  0.0049
 6671POPC   GL280836  15.789  20.769   3.832 -0.0984  0.0899  0.5875
 6671POPC   C1A80837  15.437  20.396   4.136 -0.2366 -0.1404 -0.1273
 6671POPC   D2A80838  15.248  19.991   4.198  0.0737 -0.2250  0.0603
 6671POPC   C3A80839  14.814  19.998   4.433 -0.1507 -0.0848 -0.0373
 6671POPC   C4A80840  14.477  20.155   4.709  0.0420  0.0739  0.3676
 6671POPC   C1B80841  15.609  20.973   4.172 -0.0626  0.0145 -0.0692
 6671POPC   C2B80842  15.586  21.141   4.583  0.0479  0.0552 -0.0935
 6671POPC   C3B80843  15.490  21.180   5.068  0.1765  0.2246 -0.1169
 6671POPC   C4B80844  15.311  21.368   5.489 -0.0651  0.0110  0.0385
 6672POPC   NC380845  13.973  17.579   2.787 -0.0542  0.3273 -0.0395
 6672POPC   PO480846  13.661  17.628   3.008  0.1142 -0.3356  0.2200
 6672POPC   GL180847  13.566  17.659   3.377 -0.2834  0.1559  0.0602
 6672POPC   GL280848  13.556  17.289   3.411 -0.2981  0.1016  0.1641
 6672POPC   C1A80849  13.187  17.866   3.525 -0.0180  0.1588  0.2320
 6672POPC   D2A80850  13.116  18.312   3.688 -0.1779  0.0366  0.0642
 6672POPC   C3A80851  12.775  18.584   3.559  0.2145  0.0276  0.2623
 6672POPC   C4A80852  12.487  18.534   3.150  0.2147  0.2259 -0.0422
 6672POPC   C1B80853  13.550  17.501   3.826 -0.0376 -0.1514  0.0692
 6672POPC   C2B80854  13.355  17.553   4.271  0.2509  0.0201  0.0422
 6672POPC   C3B80855  13.163  17.762   4.626 -0.0871  0.0570  0.0425
 6672POPC   C4B80856  13.152  17.800   5.031  0.0421  0.2345 -0.0596
 6673POPC   NC380857   7.443   2.142   4.058 -0.2982  0.4640  0.1592
 6673POPC   PO480858   7.527   1.906   3.752 -0.2539  0.3822 -0.0868
 6673POPC   GL180859   7.823   1.739   4.040 -0.0919 -0.3636  0.1006
 6673POPC   GL280860   7.552   1.667   4.191  0.0666  0.0508 -0.0300
 6673POPC   C1A80861   7.948   1.658   4.500  0.3414  0.1607 -0.2486
 6673POPC   D2A80862   8.204   1.684   4.852 -0.0541 -0.1049 -0.2815
 6673POPC   C3A80863   7.934   1.641   5.227 -0.1282  0.1315  0.0878
 6673POPC   C4A80864   7.815   1.727   5.645 -0.0361  0.0415  0.2391
 6673POPC   C1B80865   7.455   1.787   4.608  0.1299  0.0560 -0.0537
 6673POPC   C2B80866   7.384   1.641   5.049 -0.2355 -0.0748 -0.0088
 6673POPC   C3B80867   7.280   1.619   5.520  0.0862 -0.2125 -0.1562
 6673POPC   C4B80868   6.884   1.705   5.737  0.1457 -0.2121  0.0958
 6674POPC   NC380869  27.726  22.761   3.454  0.3460 -0.2506 -0.5127
 6674POPC   PO480870  27.399  22.993   3.523  0.2970 -0.1324 -0.2453
 6674POPC   GL180871  27.474  22.963   3.900 -0.3314 -0.3926  0.2163
 6674POPC   GL280872  27.477  22.619   3.991  0.0836  0.0949 -0.1540
 6674POPC   C1A80873  27.275  22.936   4.307  0.1406  0.3623 -0.0347
 6674POPC   D2A80874  27.473  23.013   4.704  0.0715 -0.3637  0.0428
 6674POPC   C3A80875  27.341  22.973   5.113 -0.2155 -0.2540  0.3859
 6674POPC   C4A80876  27.079  22.817   5.430  0.0398 -0.1974 -0.2630
 6674POPC   C1B80877  27.751  22.715   4.373 -0.1459  0.0003  0.1530
 6674POPC   C2B80878  27.791  22.670   4.823 -0.0974 -0.1121  0.2111
 6674POPC   C3B80879  27.926  22.771   5.199 -0.2833 -0.1167  0.1254
 6674POPC   C4B80880  27.954  22.439   5.552  0.0950  0.0984  0.1510
 6675POPC   NC380881  12.862   6.402   3.588 -0.0637 -0.0425 -0.1173
 6675POPC   PO480882  12.478   6.489   3.636  0.1262  0.1913 -0.2918
 6675POPC   GL180883  12.594   6.458   3.961 -0.1057 -0.2715  0.1062
 6675POPC   GL280884  12.575   6.133   4.021  0.3028 -0.1448 -0.2341
 6675POPC   C1A80885  12.267   6.592   4.321  0.2984 -0.0150  0.1181
 6675POPC   D2A80886  12.033   6.659   4.695 -0.0962  0.0057 -0.2281
 6675POPC   C3A80887  12.281   6.754   5.076  0.1502 -0.2441  0.2724
 6675POPC   C4A80888  12.416   7.081   5.393 -0.0502 -0.1021 -0.3745
 6675POPC   C1B80889  12.677   6.305   4.448  0.3293 -0.0519 -0.3171
 6675POPC   C2B80890  12.669   6.216   4.909  0.0339 -0.1618 -0.2498
 6675POPC   C3B80891  12.605   6.293   5.338 -0.1663  0.2670  0.7299
 6675POPC   C4B80892  12.651   6.691   5.586 -0.1799 -0.1869 -0.0218
 6676POPC   NC380893   0.022  22.423   3.819  0.1838  0.1327 -0.0816
 6676POPC   PO480894  -0.315  22.620   3.627  0.2005 -0.1312  0.1031
 6676POPC   GL180895  -0.075  22.856   3.858 -0.0050 -0.0019  0.1846
 6676POPC   GL280896   0.141  22.966   3.987  0.0838  0.3586 -0.0538
 6676POPC   C1A80897  -0.266  23.197   4.063  0.2480  0.0436 -0.3263
 6676POPC   D2A80898  -0.632  23.274   4.327  0.2364  0.0985 -0.0386
 6676POPC   C3A80899  -0.652  23.280   4.789 -0.1222  0.0962  0.0432
 6676POPC   C4A80900  -0.694  23.040   5.194  0.1358  0.0208  0.1939
 6676POPC   C1B80901   0.107  23.167   4.369  0.0701 -0.0296 -0.0553
 6676POPC   C2B80902   0.237  23.593   4.575  0.0475  0.0412 -0.0331
 6676POPC   C3B80903   0.122  23.957   4.839 -0.0484  0.3969 -0.1552
 6676POPC   C4B80904   0.043  24.168   5.260  0.0840 -0.1644  0.0978
 6677POPC   NC380905  30.542  23.017   3.359 -0.1903 -0.0516 -0.0954
 6677POPC   PO480906  30.756  22.721   3.494 -0.0094  0.3045 -0.0352
 6677POPC   GL180907  30.474  22.731   3.798  0.0239 -0.0712 -0.2179
 6677POPC   GL280908  30.460  22.983   3.884  0.0590  0.0363 -0.0170
 6677POPC   C1A80909  30.746  22.750   4.188 -0.0213  0.0013  0.0455
 6677POPC   D2A80910  31.046  22.817   4.488  0.0087  0.3878  0.1229
 6677POPC   C3A80911  30.782  22.738   4.879  0.0858 -0.2393 -0.1688
 6677POPC   C4A80912  30.510  22.783   5.309 -0.0358  0.3254  0.0520
 6677POPC   C1B80913  30.263  22.976   4.314 -0.1604  0.0000  0.2023
 6677POPC   C2B80914  30.216  22.748   4.761 -0.0171  0.0670  0.2279
 6677POPC   C3B80915  29.991  22.645   5.156 -0.1658 -0.1841  0.0270
 6677POPC   C4B80916  29.920  22.451   5.639 -0.1347  0.2123  0.1209
 6678POPC   NC380917  18.665  19.836   4.156  0.0375 -0.0249  0.1980
 6678POPC   PO480918  19.042  19.989   4.082  0.0370 -0.2164  0.5098
 6678POPC   GL180919  19.088  20.002   4.478  0.1224  0.5057  0.2143
 6678POPC   GL280920  19.331  19.847   4.475 -0.0477  0.0393 -0.0828
 6678POPC   C1A80921  18.878  19.836   4.865  0.1927 -0.2384 -0.4344
 6678POPC   D2A80922  18.976  19.724   5.349 -0.1192  0.2602  0.1850
 6678POPC   C3A80923  19.258  19.914   5.659 -0.3365  0.3361  0.3842
 6678POPC   C4A80924  19.236  19.814   6.145  0.0967  0.0359  0.1723
 6678POPC   C1B80925  19.422  19.666   4.928 -0.1711 -0.2238 -0.0122
 6678POPC   C2B80926  19.489  19.491   5.336 -0.0669  0.0088 -0.1391
 6678POPC   C3B80927  19.172  19.396   5.684  0.0598 -0.0230 -0.2555
 6678POPC   C4B80928  19.338  19.289   6.165  0.1773 -0.1340  0.0473
 6679POPC   NC380929  28.436  23.344   3.519  0.0331  0.1285  0.0693
 6679POPC   PO480930  28.761  23.090   3.536 -0.0520 -0.0886  0.1863
 6679POPC   GL180931  28.704  23.311   3.863 -0.2836 -0.0554 -0.2091
 6679POPC   GL280932  28.885  23.106   4.088  0.2050 -0.1056 -0.0826
 6679POPC   C1A80933  28.684  23.423   4.350 -0.1347  0.0297 -0.2524
 6679POPC   D2A80934  28.420  23.362   4.716 -0.1042 -0.1906  0.1041
 6679POPC   C3A80935  28.273  23.519   5.186 -0.4788 -0.1229 -0.0819
 6679POPC   C4A80936  28.145  23.870   5.468 -0.3451  0.3658  0.2286
 6679POPC   C1B80937  28.883  23.056   4.572  0.3061  0.1117  0.1526
 6679POPC   C2B80938  28.878  23.053   5.035 -0.1708 -0.2934  0.3622
 6679POPC   C3B80939  28.948  22.808   5.435  0.4588  0.0879  0.0210
 6679POPC   C4B80940  29.173  22.722   5.839 -0.3373  0.0267 -0.1306
 6680POPC   NC380941  17.505   9.025   3.704  0.0949 -0.2537 -0.1759
 6680POPC   PO480942  17.426   9.214   4.025  0.0368  0.3144 -0.0514
 6680POPC   GL180943  17.192   9.316   4.320  0.3542 -0.0487  0.1544
 6680POPC   GL280944  17.289   9.574   4.385  0.0513 -0.2440  0.0935
 6680POPC   C1A80945  16.931   9.324   4.723 -0.0749 -0.0957  0.1316
 6680POPC   D2A80946  16.800   9.244   5.162 -0.1972 -0.2476 -0.0818
 6680POPC   C3A80947  16.397   9.418   5.297 -0.1459  0.3017  0.0778
 6680POPC   C4A80948  16.007   9.584   5.410 -0.3115  0.0060  0.3353
 6680POPC   C1B80949  17.377   9.461   4.840 -0.0719  0.1452  0.1284
 6680POPC   C2B80950  17.140   9.585   5.212 -0.2537  0.2144  0.0006
 6680POPC   C3B80951  16.848   9.623   5.570 -0.0615 -0.1402 -0.0865
 6680POPC   C4B80952  16.839   9.715   6.012 -0.1990 -0.1701  0.1605
 6681POPC   NC380953   1.848  30.433   3.362 -0.1849  0.1490  0.1459
 6681POPC   PO480954   2.041  30.102   3.438 -0.0290  0.0099 -0.0720
 6681POPC   GL180955   1.966  30.101   3.782 -0.1812 -0.0996  0.0417
 6681POPC   GL280956   1.781  30.352   3.834  0.0590 -0.0444 -0.0609
 6681POPC   C1A80957   1.820  29.966   4.209 -0.2117  0.0395  0.0860
 6681POPC   D2A80958   1.828  30.052   4.640  0.0054 -0.1728  0.1526
 6681POPC   C3A80959   2.140  30.081   4.950 -0.0728 -0.2887 -0.0529
 6681POPC   C4A80960   2.251  30.464   5.197  0.1292 -0.0009 -0.2781
 6681POPC   C1B80961   1.556  30.498   4.275  0.2552 -0.1523  0.2313
 6681POPC   C2B80962   1.550  30.423   4.697  0.1637  0.0430 -0.2163
 6681POPC   C3B80963   1.733  30.330   5.124  0.0268  0.1073  0.0031
 6681POPC   C4B80964   1.954  30.075   5.400 -0.0672 -0.0088 -0.0473
 6682POPC   NC380965  21.424  23.731   3.933 -0.0600 -0.2677 -0.1641
 6682POPC   PO480966  21.448  24.140   4.011 -0.4364 -0.1100 -0.2438
 6682POPC   GL180967  21.470  24.066   4.323 -0.2946 -0.0334  0.2409
 6682POPC   GL280968  21.497  23.762   4.444 -0.1387  0.1171  0.0404
 6682POPC   C1A80969  21.363  24.320   4.700  0.0818 -0.1596 -0.0262
 6682POPC   D2A80970  21.299  24.535   5.161 -0.0457  0.0870  0.1022
 6682POPC   C3A80971  21.498  24.393   5.557  0.0050  0.3174 -0.1170
 6682POPC   C4A80972  21.677  24.595   5.919 -0.0390  0.1889  0.1237
 6682POPC   C1B80973  21.380  23.479   4.797 -0.1176 -0.1049 -0.2346
 6682POPC   C2B80974  21.389  23.516   5.261 -0.2044  0.0293  0.2327
 6682POPC   C3B80975  21.332  23.244   5.669 -0.0512  0.0568 -0.0986
 6682POPC   C4B80976  21.220  23.179   6.092  0.0821 -0.0224 -0.1099
 6683POPC   NC380977  16.995  29.943   3.689 -0.0319 -0.2801  0.2766
 6683POPC   PO480978  16.995  30.339   3.736  0.1492  0.0787  0.0424
 6683POPC   GL180979  16.945  30.332   4.111  0.0747  0.5844 -0.1615
 6683POPC   GL280980  17.190  30.498   4.180  0.1262 -0.0490 -0.0361
 6683POPC   C1A80981  16.695  30.499   4.507  0.1039  0.2421  0.0806
 6683POPC   D2A80982  16.701  30.737   4.880  0.2315 -0.0696 -0.1706
 6683POPC   C3A80983  16.899  30.588   5.292 -0.0323 -0.0475  0.0170
 6683POPC   C4A80984  17.196  30.489   5.627 -0.1170 -0.1486  0.1143
 6683POPC   C1B80985  17.167  30.487   4.672  0.0324  0.0865 -0.2458
 6683POPC   C2B80986  17.383  30.254   5.043  0.1618 -0.0549  0.0215
 6683POPC   C3B80987  17.624  30.132   5.428  0.1084 -0.2043  0.0346
 6683POPC   C4B80988  17.947  29.992   5.694  0.1990 -0.2772 -0.0275
 6684POPC   NC380989   6.269  21.272   3.875 -0.3469  0.1641 -0.1131
 6684POPC   PO480990   6.290  20.928   3.672  0.0095 -0.2495 -0.0922
 6684POPC   GL180991   6.076  20.790   3.955 -0.0597 -0.2264 -0.1535
 6684POPC   GL280992   5.871  20.892   4.000  0.0571 -0.1976  0.1044
 6684POPC   C1A80993   6.245  20.718   4.384 -0.0198 -0.0407  0.0476
 6684POPC   D2A80994   6.345  20.349   4.640  0.0059  0.1488  0.1027
 6684POPC   C3A80995   6.397  20.196   5.091 -0.0514  0.0033  0.1589
 6684POPC   C4A80996   6.286  20.404   5.511  0.0088  0.2943 -0.0931
 6684POPC   C1B80997   5.821  20.985   4.457 -0.0415  0.2706 -0.2003
 6684POPC   C2B80998   5.449  21.216   4.618  0.1979  0.0939  0.0078
 6684POPC   C3B80999   5.414  21.326   5.103 -0.2496 -0.0076  0.1159
 6684POPC   C4B81000   5.656  21.366   5.443  0.0941 -0.0309  0.0174
 6685POPC   NC381001   5.990  24.957   3.861  0.1646 -0.2133 -0.2374
 6685POPC   PO481002   6.169  24.588   3.876 -0.2152 -0.2429  0.1286
 6685POPC   GL181003   6.487  24.523   4.148 -0.2888  0.3659 -0.2932
 6685POPC   GL281004   6.425  24.761   4.291 -0.1168 -0.0177  0.0415
 6685POPC   C1A81005   6.617  24.315   4.585  0.2350  0.1986  0.0864
 6685POPC   D2A81006   6.326  24.052   4.818  0.3717 -0.0428  0.0166
 6685POPC   C3A81007   6.290  23.974   5.236  0.0732  0.0452 -0.0687
 6685POPC   C4A81008   6.125  24.046   5.688  0.0121  0.1783  0.2412
 6685POPC   C1B81009   6.238  24.651   4.680 -0.1287 -0.2545 -0.3631
 6685POPC   C2B81010   5.940  24.808   4.986  0.2690 -0.1021 -0.0977
 6685POPC   C3B81011   5.871  24.642   5.388  0.1732  0.1885 -0.0573
 6685POPC   C4B81012   5.855  24.669   5.826 -0.0710  0.1329 -0.0542
 6686POPC   NC381013   5.753  20.370   3.292 -0.1428 -0.2209  0.2836
 6686POPC   PO481014   5.951  20.505   3.590  0.3830  0.0842 -0.1006
 6686POPC   GL181015   5.859  20.209   3.876 -0.1688  0.0097  0.3753
 6686POPC   GL281016   6.139  20.245   4.017  0.1906  0.0693  0.3038
 6686POPC   C1A81017   5.592  20.008   4.172  0.1871  0.3896 -0.1443
 6686POPC   D2A81018   5.616  19.924   4.643  0.0480  0.2958 -0.3681
 6686POPC   C3A81019   5.541  20.115   5.045 -0.3445  0.3880  0.3910
 6686POPC   C4A81020   5.877  20.249   5.278  0.0809 -0.2522  0.2050
 6686POPC   C1B81021   5.754  20.420   4.263 -0.1106  0.0029  0.0909
 6686POPC   C2B81022   5.842  20.514   4.725 -0.5004 -0.0888 -0.2121
 6686POPC   C3B81023   6.152  20.650   5.076 -0.1208 -0.1016 -0.0992
 6686POPC   C4B81024   6.627  20.695   5.218 -0.0627 -0.0795  0.0344
 6687POPC   NC381025  19.465  15.082   3.340 -0.0844  0.1655  0.0939
 6687POPC   PO481026  19.484  15.374   3.086 -0.2064 -0.1307 -0.0966
 6687POPC   GL181027  19.830  15.385   3.423 -0.1183 -0.0858  0.0920
 6687POPC   GL281028  19.979  15.528   3.201  0.1992 -0.1022  0.0411
 6687POPC   C1A81029  20.134  15.281   3.721  0.1635 -0.1922  0.0733
 6687POPC   D2A81030  20.419  15.514   4.041 -0.1541  0.0380 -0.1695
 6687POPC   C3A81031  20.482  15.340   4.450  0.2243  0.1275 -0.0385
 6687POPC   C4A81032  20.735  15.015   4.730 -0.0093  0.0334  0.2831
 6687POPC   C1B81033  20.296  15.775   3.435 -0.3735  0.2040 -0.1917
 6687POPC   C2B81034  20.547  16.147   3.363  0.0207 -0.1724  0.3104
 6687POPC   C3B81035  20.771  16.425   3.088  0.0005 -0.3887 -0.0349
 6687POPC   C4B81036  21.202  16.418   2.994 -0.2442 -0.0149  0.2008
 6688POPC   NC381037   5.887   8.026   3.573  0.0909  0.0117 -0.0368
 6688POPC   PO481038   6.148   8.231   3.755  0.0289 -0.1095  0.1120
 6688POPC   GL181039   6.424   8.208   4.097  0.0593 -0.2075 -0.3035
 6688POPC   GL281040   6.444   8.461   4.143  0.3438 -0.0243  0.2062
 6688POPC   C1A81041   6.487   8.182   4.562 -0.4014  0.1222 -0.2396
 6688POPC   D2A81042   6.756   8.460   4.809 -0.1807 -0.0947 -0.0322
 6688POPC   C3A81043   6.713   8.543   5.234  0.1327  0.0885  0.4298
 6688POPC   C4A81044   6.937   8.882   5.544  0.3657  0.1136  0.1687
 6688POPC   C1B81045   6.391   8.681   4.566  0.1501 -0.0811  0.0011
 6688POPC   C2B81046   6.288   8.878   4.955  0.0941 -0.3561  0.1155
 6688POPC   C3B81047   6.135   9.055   5.360  0.0404 -0.0227 -0.0639
 6688POPC   C4B81048   6.028   8.854   5.733  0.0523 -0.0867 -0.2920
 6689POPC   NC381049  23.908  15.758   4.698 -0.0911 -0.0272 -0.0397
 6689POPC   PO481050  24.140  15.762   4.364  0.0584  0.0175 -0.0295
 6689POPC   GL181051  24.316  15.965   4.732  0.0875  0.0152  0.0508
 6689POPC   GL281052  24.496  15.795   4.765  0.0245 -0.0266  0.0788
 6689POPC   C1A81053  24.184  15.737   5.148 -0.0217  0.0187 -0.1540
 6689POPC   D2A81054  24.176  15.564   5.561  0.0831  0.2679 -0.1787
 6689POPC   C3A81055  23.895  15.168   5.582 -0.1790 -0.1844  0.2089
 6689POPC   C4A81056  23.578  14.872   5.662 -0.1641  0.3554 -0.0108
 6689POPC   C1B81057  24.664  15.576   5.098  0.0574  0.1032 -0.1453
 6689POPC   C2B81058  24.747  15.675   5.508 -0.4011 -0.3467 -0.0957
 6689POPC   C3B81059  24.593  15.714   5.957 -0.2304 -0.0056 -0.1869
 6689POPC   C4B81060  24.910  15.733   6.354 -0.2983  0.2337 -0.1317
 6690POPC   NC381061  18.937  13.135   3.445 -0.0077  0.3076  0.4050
 6690POPC   PO481062  18.832  12.763   3.582 -0.2714 -0.0152  0.0240
 6690POPC   GL181063  18.946  12.916   3.923  0.0230  0.3493  0.0502
 6690POPC   GL281064  18.809  13.161   3.954  0.0945 -0.3974  0.1219
 6690POPC   C1A81065  18.958  13.003   4.381 -0.2769 -0.1986 -0.1776
 6690POPC   D2A81066  19.057  13.054   4.843 -0.1059  0.2490 -0.5130
 6690POPC   C3A81067  19.222  12.977   5.234 -0.2254  0.2306 -0.2153
 6690POPC   C4A81068  19.643  12.974   5.453  0.0081 -0.1227 -0.0814
 6690POPC   C1B81069  18.512  13.194   4.338  0.1484  0.0543 -0.0790
 6690POPC   C2B81070  18.489  13.157   4.785  0.6202  0.4204 -0.0530
 6690POPC   C3B81071  18.594  13.222   5.188 -0.0436 -0.2220 -0.2269
 6690POPC   C4B81072  18.789  13.316   5.586  0.0862 -0.0128 -0.0809
 6691POPC   NC381073  31.299  29.656   4.006  0.1577  0.0739  0.0827
 6691POPC   PO481074  31.597  29.408   3.901  0.1688 -0.1651  0.1091
 6691POPC   GL181075  31.658  29.316   4.201 -0.0078  0.1825 -0.1515
 6691POPC   GL281076  31.417  29.224   4.317  0.2757 -0.1530  0.1560
 6691POPC   C1A81077  31.817  29.284   4.662 -0.1225  0.3173  0.4455
 6691POPC   D2A81078  31.912  29.444   5.092 -0.0571  0.0244 -0.2492
 6691POPC   C3A81079  32.336  29.565   5.184 -0.0583 -0.2577  0.1700
 6691POPC   C4A81080  32.744  29.640   5.287  0.1480  0.0460  0.1918
 6691POPC   C1B81081  31.393  29.444   4.771  0.0199 -0.2497 -0.1763
 6691POPC   C2B81082  31.357  29.401   5.207  0.2815  0.0829 -0.2811
 6691POPC   C3B81083  31.683  29.131   5.483  0.1743 -0.0983  0.0501
 6691POPC   C4B81084  31.985  29.067   5.805  0.0301  0.1850 -0.0526
 6692POPC   NC381085  28.770   1.651   3.594  0.0657 -0.1851 -0.1288
 6692POPC   PO481086  28.932   1.326   3.705 -0.1294 -0.2741  0.2629
 6692POPC   GL181087  28.775   1.267   4.067 -0.1181  0.2560  0.1503
 6692POPC   GL281088  29.017   1.177   4.202 -0.2502  0.2394  0.2121
 6692POPC   C1A81089  28.483   1.011   4.331  0.0137  0.0401  0.2155
 6692POPC   D2A81090  28.202   0.623   4.448 -0.1360  0.0730  0.0948
 6692POPC   C3A81091  28.404   0.474   4.835 -0.0007 -0.1607  0.0819
 6692POPC   C4A81092  28.312   0.509   5.279 -0.1424  0.0096  0.0680
 6692POPC   C1B81093  28.866   0.931   4.574 -0.0090 -0.3620  0.0321
 6692POPC   C2B81094  28.764   0.789   5.013 -0.0212 -0.1366  0.0818
 6692POPC   C3B81095  28.832   0.757   5.447  0.3503 -0.0030 -0.0984
 6692POPC   C4B81096  28.890   0.756   5.927  0.3578 -0.0091  0.2408
 6693POPC   NC381097  26.871  20.595   4.133  0.1485  0.1164 -0.2848
 6693POPC   PO481098  26.446  20.612   4.100  0.1773 -0.1273  0.0246
 6693POPC   GL181099  26.476  20.485   4.453  0.3965  0.2096  0.2677
 6693POPC   GL281100  26.709  20.586   4.611 -0.0880 -0.2606 -0.2462
 6693POPC   C1A81101  26.623  20.057   4.619  0.0103 -0.0137  0.0316
 6693POPC   D2A81102  26.709  19.560   4.770  0.0622  0.3519 -0.3736
 6693POPC   C3A81103  26.735  19.437   4.321 -0.1340 -0.2322  0.0633
 6693POPC   C4A81104  26.470  19.094   4.102  0.0177  0.1084 -0.0460
 6693POPC   C1B81105  26.974  20.782   4.932  0.2018  0.0665 -0.0848
 6693POPC   C2B81106  27.038  21.182   5.193  0.0535  0.1457  0.1722
 6693POPC   C3B81107  26.982  21.540   5.495  0.3382  0.0527  0.0545
 6693POPC   C4B81108  27.131  21.892   5.750  0.3251  0.0714  0.1217
 6694POPC   NC381109  16.649   0.170   3.450  0.2248 -0.1929 -0.3049
 6694POPC   PO481110  16.519   0.545   3.594  0.0818 -0.0117  0.1951
 6694POPC   GL181111  16.417   0.474   3.939 -0.1816  0.0879 -0.0007
 6694POPC   GL281112  16.246   0.714   3.952  0.0312  0.0979  0.0164
 6694POPC   C1A81113  16.482   0.650   4.370  0.1296  0.2240  0.2824
 6694POPC   D2A81114  16.868   0.757   4.562  0.0660 -0.0285 -0.0238
 6694POPC   C3A81115  16.712   0.998   4.852  0.2416  0.1003 -0.2479
 6694POPC   C4A81116  16.756   1.093   5.297  0.4508  0.0972 -0.0426
 6694POPC   C1B81117  15.965   0.698   4.293  0.1423 -0.0016 -0.1301
 6694POPC   C2B81118  15.661   0.794   4.690 -0.1000  0.0900 -0.2628
 6694POPC   C3B81119  15.400   0.990   5.062 -0.1834  0.2273 -0.0452
 6694POPC   C4B81120  15.396   1.358   5.382 -0.0003  0.2000 -0.3077
 6695POPC   NC381121  16.990  25.625   3.393  0.2650  0.2733 -0.0029
 6695POPC   PO481122  16.654  25.385   3.464 -0.1949 -0.2023  0.1762
 6695POPC   GL181123  16.779  25.480   3.810  0.2076  0.1309  0.2698
 6695POPC   GL281124  16.645  25.212   3.952  0.2130  0.0368 -0.2764
 6695POPC   C1A81125  16.992  25.894   3.957  0.2970  0.1096 -0.0912
 6695POPC   D2A81126  17.205  26.207   4.150  0.1925  0.1527 -0.1603
 6695POPC   C3A81127  17.331  26.232   4.580  0.0469 -0.4876  0.1097
 6695POPC   C4A81128  17.279  26.337   5.027  0.0108  0.1256 -0.0022
 6695POPC   C1B81129  16.915  25.292   4.321 -0.0961 -0.1798 -0.1081
 6695POPC   C2B81130  16.771  25.452   4.772  0.3322  0.3724  0.2164
 6695POPC   C3B81131  16.858  25.384   5.216 -0.1209 -0.0974  0.4767
 6695POPC   C4B81132  16.904  25.542   5.643 -0.1389  0.2333 -0.6147
 6696POPC   NC381133  29.198   9.161   3.643 -0.2270  0.0724 -0.2450
 6696POPC   PO481134  29.281   8.757   3.645  0.0246  0.1110 -0.2261
 6696POPC   GL181135  29.587   8.753   3.952  0.1223 -0.3695 -0.3512
 6696POPC   GL281136  29.588   9.048   4.000  0.2004  0.2267  0.0906
 6696POPC   C1A81137  29.530   8.680   4.419 -0.0689  0.5172 -0.2215
 6696POPC   D2A81138  29.694   8.724   4.849  0.0189 -0.1138  0.0521
 6696POPC   C3A81139  29.771   8.830   5.273 -0.1191 -0.1901 -0.1669
 6696POPC   C4A81140  29.757   8.640   5.678 -0.1864  0.1846 -0.2759
 6696POPC   C1B81141  29.931   9.040   4.262  0.0172 -0.0480 -0.0754
 6696POPC   C2B81142  30.189   8.976   4.646  0.2361 -0.2022 -0.1105
 6696POPC   C3B81143  30.186   9.044   5.099  0.0406  0.1995 -0.0442
 6696POPC   C4B81144  30.326   8.676   5.382 -0.2101  0.0558  0.1475
 6697POPC   NC381145  13.001  30.271   3.456 -0.0454  0.1550  0.2533
 6697POPC   PO481146  12.672  30.514   3.489  0.1968  0.0181  0.0351
 6697POPC   GL181147  12.778  30.699   3.763 -0.1091  0.3016 -0.1603
 6697POPC   GL281148  12.969  30.537   3.889  0.2626  0.1738 -0.0316
 6697POPC   C1A81149  12.929  31.072   4.007 -0.1693 -0.1354 -0.1727
 6697POPC   D2A81150  12.915  31.545   4.054  0.0356 -0.0333  0.0669
 6697POPC   C3A81151  13.106  31.701   4.443 -0.2064  0.0199  0.3212
 6697POPC   C4A81152  13.188  31.810   4.868 -0.3329 -0.0622 -0.2266
 6697POPC   C1B81153  13.043  30.669   4.330 -0.2391  0.2045  0.1676
 6697POPC   C2B81154  12.815  30.949   4.612 -0.1377  0.0612  0.0423
 6697POPC   C3B81155  12.478  31.258   4.837  0.0556 -0.2814 -0.2547
 6697POPC   C4B81156  11.990  31.289   4.972 -0.2911  0.1954  0.1201
 6698POPC   NC381157  26.498  29.702   3.123  0.2602  0.0178  0.2228
 6698POPC   PO481158  26.860  29.773   3.186  0.2350 -0.1443 -0.2455
 6698POPC   GL181159  26.988  29.804   3.495  0.1603 -0.2744  0.2402
 6698POPC   GL281160  27.182  29.959   3.547  0.0101  0.2647  0.0791
 6698POPC   C1A81161  26.849  29.894   3.917  0.3641 -0.3789  0.1499
 6698POPC   D2A81162  26.765  30.169   4.261 -0.1560  0.0577  0.0210
 6698POPC   C3A81163  27.136  30.233   4.514  0.0371  0.0557  0.2224
 6698POPC   C4A81164  27.588  30.404   4.438 -0.0517 -0.1137  0.0665
 6698POPC   C1B81165  27.247  30.214   3.964 -0.0359 -0.3785  0.3448
 6698POPC   C2B81166  27.312  30.646   4.146  0.1257  0.0240  0.2344
 6698POPC   C3B81167  27.560  30.959   4.120 -0.2046 -0.0675 -0.1989
 6698POPC   C4B81168  28.001  31.103   4.148 -0.3124 -0.0730  0.0821
 6699POPC   NC381169  19.433   5.666   3.203 -0.0766 -0.0057 -0.2681
 6699POPC   PO481170  19.577   5.277   3.286  0.1884 -0.4337 -0.0124
 6699POPC   GL181171  19.267   5.286   3.543 -0.1824 -0.5826 -0.4532
 6699POPC   GL281172  19.308   5.068   3.678 -0.3980  0.0769 -0.0088
 6699POPC   C1A81173  18.807   5.215   3.759  0.0428 -0.0062  0.0202
 6699POPC   D2A81174  18.399   5.092   3.980 -0.2015 -0.4429 -0.1487
 6699POPC   C3A81175  18.189   5.328   4.284  0.1216  0.1264  0.0012
 6699POPC   C4A81176  17.789   5.352   4.323  0.0708  0.0225  0.3126
 6699POPC   C1B81177  19.157   5.193   4.083  0.4559 -0.0294 -0.0828
 6699POPC   C2B81178  18.771   5.077   4.353 -0.2614 -0.0242 -0.4571
 6699POPC   C3B81179  18.510   5.149   4.730 -0.3709 -0.0330  0.0993
 6699POPC   C4B81180  18.321   5.228   5.162  0.1786  0.0977  0.0342
 6700POPC   NC381181  12.860   4.685   3.141 -0.1112  0.1677  0.0009
 6700POPC   PO481182  12.635   4.497   3.419  0.2461  0.0116  0.2348
 6700POPC   GL181183  12.427   4.663   3.766 -0.1478 -0.0888 -0.0018
 6700POPC   GL281184  12.517   4.976   3.916 -0.1368  0.0405  0.0894
 6700POPC   C1A81185  12.062   4.674   4.061 -0.1785  0.3301 -0.1052
 6700POPC   D2A81186  11.692   4.854   4.071 -0.0666 -0.2265 -0.4461
 6700POPC   C3A81187  11.379   4.700   4.434  0.0743  0.2242  0.1400
 6700POPC   C4A81188  10.970   4.720   4.657 -0.4860 -0.0051 -0.1770
 6700POPC   C1B81189  12.177   5.172   4.200 -0.1997  0.1251  0.3168
 6700POPC   C2B81190  12.281   5.080   4.700  0.0926 -0.2358  0.0034
 6700POPC   C3B81191  12.047   4.844   5.010 -0.0421 -0.0956  0.0056
 6700POPC   C4B81192  11.657   4.580   5.028  0.2705 -0.0225  0.2065
 6701POPC   NC381193  30.767  14.137   4.185  0.1197 -0.1177  0.2400
 6701POPC   PO481194  30.386  14.066   4.022 -0.3448 -0.0147  0.0518
 6701POPC   GL181195  30.328  14.114   4.461  0.0445 -0.2499 -0.0247
 6701POPC   GL281196  30.306  13.878   4.528 -0.1749  0.0339 -0.1309
 6701POPC   C1A81197  30.191  14.423   4.766  0.1132 -0.0033 -0.2177
 6701POPC   D2A81198  29.890  14.499   5.084 -0.1681  0.0488 -0.1822
 6701POPC   C3A81199  29.524  14.414   5.391 -0.1430  0.1345  0.1502
 6701POPC   C4A81200  29.137  14.607   5.530 -0.0234  0.0766 -0.2482
 6701POPC   C1B81201  30.515  14.053   4.880 -0.1456 -0.0250  0.4434
 6701POPC   C2B81202  30.445  14.210   5.280 -0.0816 -0.0464  0.0876
 6701POPC   C3B81203  30.496  14.548   5.626  0.0642 -0.3661  0.3586
 6701POPC   C4B81204  30.532  14.650   6.108 -0.2544  0.0809 -0.0909
 6702POPC   NC381205   7.922   9.624   3.923  0.0482  0.0582  0.3158
 6702POPC   PO481206   7.697   9.927   3.757 -0.0440  0.0014 -0.0066
 6702POPC   GL181207   7.634  10.014   4.164 -0.0914 -0.0630 -0.1326
 6702POPC   GL281208   7.427   9.784   4.145 -0.1987  0.1617 -0.0810
 6702POPC   C1A81209   7.560  10.196   4.618 -0.0664  0.1149  0.0422
 6702POPC   D2A81210   7.578  10.564   4.903  0.0937 -0.2388 -0.0870
 6702POPC   C3A81211   7.289  10.537   5.301  0.0429  0.1557  0.2793
 6702POPC   C4A81212   7.189  10.201   5.615  0.1903  0.0622 -0.2483
 6702POPC   C1B81213   7.756   9.758   4.506 -0.0342  0.2551  0.0461
 6702POPC   C2B81214   7.664   9.687   4.919 -0.2093 -0.1132  0.1280
 6702POPC   C3B81215   7.351   9.692   5.249 -0.0287 -0.1348  0.0977
 6702POPC   C4B81216   7.360   9.713   5.706 -0.0407  0.0292 -0.2870
 6703POPC   NC381217  14.290  14.985   3.432 -0.0756 -0.0317 -0.0349
 6703POPC   PO481218  13.897  14.983   3.541  0.0454  0.0485 -0.0117
 6703POPC   GL181219  13.991  14.731   3.866 -0.2267  0.3614  0.2523
 6703POPC   GL281220  14.250  14.845   3.951  0.1504 -0.2447  0.0300
 6703POPC   C1A81221  13.888  14.635   4.287 -0.2079 -0.1966 -0.4175
 6703POPC   D2A81222  13.595  14.379   4.559  0.0236  0.3251  0.1300
 6703POPC   C3A81223  13.291  14.585   4.761 -0.2013 -0.2986 -0.4198
 6703POPC   C4A81224  13.250  14.714   5.184 -0.2011 -0.1119 -0.0690
 6703POPC   C1B81225  14.467  14.640   4.302  0.0124  0.3779 -0.2018
 6703POPC   C2B81226  14.342  14.682   4.738 -0.1206 -0.1889  0.0022
 6703POPC   C3B81227  14.044  14.642   5.076  0.0550 -0.0171 -0.1075
 6703POPC   C4B81228  13.700  14.852   5.346 -0.2993  0.0391 -0.1394
 6704POPC   NC381229   6.632  22.194   3.578 -0.3335  0.1473 -0.0873
 6704POPC   PO481230   6.288  22.224   3.781 -0.0304  0.3544 -0.1546
 6704POPC   GL181231   6.104  22.322   4.090  0.0655 -0.1120 -0.4676
 6704POPC   GL281232   5.854  22.392   4.166  0.4540 -0.1231 -0.3449
 6704POPC   C1A81233   5.976  21.912   4.363 -0.3325  0.2658  0.3077
 6704POPC   D2A81234   5.790  21.612   4.681  0.0559 -0.0338 -0.0404
 6704POPC   C3A81235   5.879  21.794   5.089 -0.0136 -0.1578  0.4323
 6704POPC   C4A81236   5.889  21.921   5.490  0.1087  0.0245 -0.1368
 6704POPC   C1B81237   6.010  22.351   4.569 -0.0149 -0.0394  0.4458
 6704POPC   C2B81238   6.289  22.539   4.878 -0.0477  0.2512 -0.0826
 6704POPC   C3B81239   6.619  22.462   5.187  0.0125  0.0121  0.2650
 6704POPC   C4B81240   7.053  22.556   5.336  0.0446 -0.1575  0.0018
 6705POPC   NC381241   1.122  14.357   3.463 -0.0720 -0.0700 -0.0492
 6705POPC   PO481242   0.890  14.455   3.721 -0.0216 -0.0544 -0.0970
 6705POPC   GL181243   1.039  14.323   4.039  0.0091  0.1696 -0.0986
 6705POPC   GL281244   0.775  14.263   4.239  0.0782 -0.0439  0.1286
 6705POPC   C1A81245   1.194  14.397   4.454 -0.2056 -0.2693 -0.1301
 6705POPC   D2A81246   1.065  14.571   4.902 -0.0163  0.1607 -0.3138
 6705POPC   C3A81247   1.239  14.607   5.292  0.2585  0.1680 -0.3885
 6705POPC   C4A81248   1.626  14.444   5.473 -0.1077  0.3635 -0.1644
 6705POPC   C1B81249   0.804  14.165   4.720  0.2477 -0.2500  0.0196
 6705POPC   C2B81250   0.758  13.873   5.119 -0.0869  0.1553 -0.2898
 6705POPC   C3B81251   0.583  13.493   5.328 -0.2359 -0.3029  0.4024
 6705POPC   C4B81252   0.812  13.171   5.533 -0.1833  0.0118  0.1640
 6706POPC   NC381253  27.194  23.323   3.840  0.0785 -0.0534 -0.1857
 6706POPC   PO481254  27.578  23.490   3.689  0.4353 -0.0731 -0.0087
 6706POPC   GL181255  27.787  23.366   3.983 -0.0374 -0.2190 -0.1124
 6706POPC   GL281256  27.560  23.316   4.222 -0.0133  0.3771 -0.0083
 6706POPC   C1A81257  27.969  23.652   4.270  0.2058 -0.1412 -0.0134
 6706POPC   D2A81258  28.051  23.766   4.715 -0.0374  0.1723 -0.0139
 6706POPC   C3A81259  27.833  23.758   5.072  0.2204  0.2203 -0.1187
 6706POPC   C4A81260  27.707  23.681   5.490  0.5424 -0.0947 -0.1700
 6706POPC   C1B81261  27.625  23.539   4.624 -0.1403  0.2029  0.2501
 6706POPC   C2B81262  27.433  23.518   5.075 -0.0929  0.0228 -0.2937
 6706POPC   C3B81263  27.321  23.294   5.509 -0.0988 -0.0835  0.1256
 6706POPC   C4B81264  27.262  23.069   5.944  0.1166  0.0994 -0.0423
 6707POPC   NC381265  14.187  12.237   3.693  0.0701  0.2175  0.0463
 6707POPC   PO481266  13.938  12.451   3.491  0.0150 -0.0933 -0.0814
 6707POPC   GL181267  13.801  12.673   3.814 -0.1778  0.2035  0.0435
 6707POPC   GL281268  13.848  12.526   4.016 -0.0783 -0.0994 -0.1021
 6707POPC   C1A81269  13.703  12.990   4.097 -0.1766  0.2404  0.0664
 6707POPC   D2A81270  13.842  13.258   4.440  0.1330 -0.4090 -0.0062
 6707POPC   C3A81271  13.559  13.344   4.809 -0.1278 -0.2929 -0.1392
 6707POPC   C4A81272  13.443  13.402   5.240 -0.1287 -0.0036 -0.0967
 6707POPC   C1B81273  13.660  12.299   4.380 -0.0989  0.0252 -0.2286
 6707POPC   C2B81274  13.868  12.392   4.784  0.0158 -0.0089  0.2330
 6707POPC   C3B81275  14.019  12.544   5.151 -0.0429 -0.1094  0.1385
 6707POPC   C4B81276  14.077  12.345   5.513  0.1170  0.2792  0.1885
 6708POPC   NC381277   1.222  17.655   3.688 -0.1701 -0.2762  0.0528
 6708POPC   PO481278   0.804  17.596   3.742 -0.1931 -0.3362 -0.0434
 6708POPC   GL181279   1.057  17.516   4.153  0.2580  0.1461  0.0564
 6708POPC   GL281280   1.157  17.265   4.016  0.1622  0.0749  0.1549
 6708POPC   C1A81281   0.840  17.480   4.553 -0.2269  0.2495 -0.3043
 6708POPC   D2A81282   1.067  17.392   4.916 -0.2794 -0.2538  0.0498
 6708POPC   C3A81283   0.899  17.078   5.220 -0.1981 -0.0993  0.0441
 6708POPC   C4A81284   1.106  16.846   5.589  0.1095  0.1223 -0.0265
 6708POPC   C1B81285   1.219  17.197   4.458  0.1963 -0.0354 -0.0835
 6708POPC   C2B81286   1.272  16.896   4.840 -0.2120 -0.1041  0.3866
 6708POPC   C3B81287   1.441  16.883   5.230 -0.2421  0.4088 -0.5153
 6708POPC   C4B81288   1.785  16.845   5.539 -0.0571 -0.2817 -0.0207
 6709POPC   NC381289  22.491  17.584   2.254  0.1277 -0.4066  0.0205
 6709POPC   PO481290  22.402  17.386   2.564  0.1638 -0.1027 -0.1277
 6709POPC   GL181291  22.103  17.594   2.720 -0.2402  0.1967  0.2033
 6709POPC   GL281292  22.237  17.812   2.743  0.3824  0.0792  0.2800
 6709POPC   C1A81293  21.804  17.987   2.575 -0.0679  0.1854 -0.1095
 6709POPC   D2A81294  21.387  18.177   2.500 -0.1629  0.0617 -0.0646
 6709POPC   C3A81295  20.963  18.003   2.418 -0.3212 -0.3423  0.1311
 6709POPC   C4A81296  20.572  17.740   2.403 -0.1286 -0.2473 -0.1998
 6709POPC   C1B81297  21.956  17.997   3.042  0.1030 -0.0869 -0.1260
 6709POPC   C2B81298  21.535  18.144   2.989 -0.2515  0.2863 -0.0308
 6709POPC   C3B81299  21.103  18.175   2.908  0.2840 -0.0016  0.1291
 6709POPC   C4B81300  20.737  17.881   2.886 -0.0576  0.2718 -0.0002
 6710POPC   NC381301  23.401   4.208   3.054  0.3619 -0.0432 -0.2775
 6710POPC   PO481302  23.343   4.346   3.405 -0.1764 -0.0601 -0.0549
 6710POPC   GL181303  23.398   4.529   3.764  0.7194 -0.0217 -0.1290
 6710POPC   GL281304  23.682   4.512   3.819  0.4725 -0.0781 -0.1567
 6710POPC   C1A81305  23.239   4.395   4.157 -0.3095 -0.0200 -0.0799
 6710POPC   D2A81306  23.293   4.166   4.577 -0.0276  0.1289  0.0201
 6710POPC   C3A81307  23.435   3.738   4.620 -0.0777  0.1995 -0.1280
 6710POPC   C4A81308  23.629   3.478   4.903 -0.0047 -0.2424  0.0046
 6710POPC   C1B81309  23.724   4.367   4.264  0.0470 -0.0642 -0.1291
 6710POPC   C2B81310  23.571   4.579   4.666 -0.0689  0.2992 -0.0775
 6710POPC   C3B81311  23.570   4.472   5.124  0.2584 -0.0311 -0.1009
 6710POPC   C4B81312  23.555   4.332   5.549 -0.1135 -0.5413  0.2950
 6711POPC   NC381313  16.066   6.406   3.123  0.3662 -0.1042  0.0937
 6711POPC   PO481314  15.893   6.322   3.455  0.0919 -0.0402 -0.0649
 6711POPC   GL181315  16.066   6.009   3.564  0.1812 -0.0367  0.1540
 6711POPC   GL281316  16.253   5.957   3.349 -0.0511 -0.1208  0.1157
 6711POPC   C1A81317  16.186   5.744   3.921 -0.0204  0.2308  0.0424
 6711POPC   D2A81318  16.580   5.620   4.030  0.0579 -0.0235 -0.2225
 6711POPC   C3A81319  16.579   5.486   4.451 -0.0575 -0.0916 -0.0063
 6711POPC   C4A81320  16.824   5.251   4.714  0.0323 -0.2657  0.0703
 6711POPC   C1B81321  16.562   5.661   3.375  0.0217 -0.0103  0.0015
 6711POPC   C2B81322  16.948   5.635   3.112 -0.1634  0.1106 -0.1448
 6711POPC   C3B81323  17.347   5.471   3.200  0.2169  0.0020 -0.0724
 6711POPC   C4B81324  17.677   5.501   3.475 -0.1091  0.1277 -0.1527
 6712POPC   NC381325   5.763  18.158   3.692 -0.2220 -0.2250 -0.1542
 6712POPC   PO481326   5.792  17.782   3.879  0.3005  0.2519  0.2059
 6712POPC   GL181327   5.777  18.075   4.203  0.0184 -0.4198 -0.2006
 6712POPC   GL281328   6.050  18.201   4.144 -0.0052 -0.1068 -0.0117
 6712POPC   C1A81329   5.703  18.348   4.599  0.0636 -0.1465  0.3768
 6712POPC   D2A81330   5.865  18.463   4.971  0.0523 -0.4571  0.0727
 6712POPC   C3A81331   5.549  18.645   5.284 -0.0849 -0.1622  0.1295
 6712POPC   C4A81332   5.081  18.735   5.369  0.0734  0.3308 -0.2953
 6712POPC   C1B81333   6.186  18.421   4.555 -0.0256  0.1232 -0.1467
 6712POPC   C2B81334   6.402  18.510   4.998  0.0510  0.1222 -0.2094
 6712POPC   C3B81335   6.679  18.589   5.370 -0.0705 -0.0296  0.0443
 6712POPC   C4B81336   7.060  18.628   5.584 -0.0822  0.3580 -0.0119
 6713POPC   NC381337   4.949  13.088   3.577 -0.0576  0.2680  0.0336
 6713POPC   PO481338   4.861  13.401   3.817 -0.0312 -0.0343 -0.2249
 6713POPC   GL181339   4.877  13.143   4.035  0.0547  0.0613 -0.1112
 6713POPC   GL281340   4.729  12.882   3.985  0.2929  0.0800  0.0806
 6713POPC   C1A81341   4.833  13.226   4.489  0.0202 -0.1052 -0.2403
 6713POPC   D2A81342   4.579  13.229   4.885  0.0493 -0.0802  0.2355
 6713POPC   C3A81343   4.582  13.128   5.351 -0.1598  0.2268  0.2954
 6713POPC   C4A81344   4.460  13.248   5.799  0.1840  0.0170  0.2257
 6713POPC   C1B81345   4.913  12.686   4.338 -0.1516  0.0372 -0.0918
 6713POPC   C2B81346   4.997  12.467   4.691 -0.0686 -0.3389 -0.0002
 6713POPC   C3B81347   4.997  12.446   5.165 -0.1514  0.0875  0.3074
 6713POPC   C4B81348   4.750  12.106   5.358  0.1210  0.2166  0.1447
 6714POPC   NC381349  22.386  22.880   2.977  0.2540  0.1011 -0.5257
 6714POPC   PO481350  22.459  22.999   3.368 -0.1082 -0.3254 -0.0323
 6714POPC   GL181351  22.672  23.152   3.704  0.1986  0.0036  0.4847
 6714POPC   GL281352  22.578  22.969   3.868  0.1661  0.1793  0.0280
 6714POPC   C1A81353  23.084  23.231   3.757  0.1896  0.1723 -0.0851
 6714POPC   D2A81354  23.433  22.992   3.959 -0.0364  0.1113 -0.0889
 6714POPC   C3A81355  23.510  23.051   4.454 -0.1586 -0.1876 -0.4229
 6714POPC   C4A81356  23.783  23.027   4.794  0.1711  0.0743  0.2600
 6714POPC   C1B81357  22.932  23.104   4.209 -0.0476  0.1620  0.1284
 6714POPC   C2B81358  23.001  23.137   4.664 -0.5219 -0.1942  0.2700
 6714POPC   C3B81359  23.345  23.239   4.914 -0.5322  0.4342 -0.0218
 6714POPC   C4B81360  23.610  23.077   5.272  0.4943  0.0407  0.2325
 6715POPC   NC381361  28.192  31.471   2.993 -0.1541  0.2220 -0.1494
 6715POPC   PO481362  28.096  31.590   3.360  0.1560  0.0290  0.0592
 6715POPC   GL181363  27.943  31.712   3.737 -0.3514  0.0852 -0.1035
 6715POPC   GL281364  28.174  31.631   3.861 -0.1728 -0.0495  0.0195
 6715POPC   C1A81365  27.857  31.853   4.172  0.1195 -0.1370  0.1593
 6715POPC   D2A81366  27.624  31.972   4.609  0.1913  0.0055  0.3608
 6715POPC   C3A81367  27.639  31.622   4.918 -0.0156  0.0824 -0.2582
 6715POPC   C4A81368  27.487  31.567   5.388  0.2010  0.3378  0.0530
 6715POPC   C1B81369  28.438  31.423   4.211  0.0581 -0.1551  0.1565
 6715POPC   C2B81370  28.235  31.316   4.554 -0.0134  0.0121 -0.3423
 6715POPC   C3B81371  28.298  31.329   4.987  0.1983 -0.0613 -0.2671
 6715POPC   C4B81372  27.983  31.350   5.348  0.0656 -0.1057 -0.2559
 6716POPC   NC381373   8.167  22.142   3.586 -0.2016  0.0717  0.1371
 6716POPC   PO481374   8.427  22.004   3.832 -0.2632  0.1970 -0.0489
 6716POPC   GL181375   8.343  21.872   4.138  0.2476  0.0495  0.2858
 6716POPC   GL281376   8.124  21.734   4.253  0.2167  0.0472  0.1073
 6716POPC   C1A81377   8.384  22.117   4.557  0.0226  0.0592  0.4061
 6716POPC   D2A81378   8.394  22.492   4.824 -0.3620  0.0672 -0.2673
 6716POPC   C3A81379   8.471  22.763   5.135 -0.0402 -0.3187  0.0726
 6716POPC   C4A81380   8.831  22.992   5.345  0.3427 -0.1881  0.7485
 6716POPC   C1B81381   8.081  21.756   4.728 -0.0158  0.3330 -0.4460
 6716POPC   C2B81382   8.269  21.829   5.133 -0.2700 -0.4205  0.1858
 6716POPC   C3B81383   8.319  21.783   5.604  0.2500 -0.0463 -0.1599
 6716POPC   C4B81384   8.159  21.680   5.997  0.2379 -0.0821  0.2905
 6717POPC   NC381385  25.316  15.767   3.962 -0.2070 -0.2425  0.0079
 6717POPC   PO481386  25.031  15.429   4.011 -0.1839  0.2226  0.1909
 6717POPC   GL181387  25.063  15.320   4.263  0.1103 -0.2571 -0.2259
 6717POPC   GL281388  24.971  15.011   4.369  0.1584  0.1458 -0.2520
 6717POPC   C1A81389  24.740  15.388   4.652  0.1298 -0.0533 -0.0596
 6717POPC   D2A81390  24.274  15.346   4.811  0.1299 -0.1868  0.1249
 6717POPC   C3A81391  24.304  15.224   5.237 -0.0874 -0.0543 -0.1383
 6717POPC   C4A81392  24.547  15.248   5.597  0.3193  0.0507  0.1095
 6717POPC   C1B81393  24.940  14.699   4.641  0.0505 -0.0993  0.0058
 6717POPC   C2B81394  25.165  14.660   5.016 -0.2051 -0.0389 -0.0401
 6717POPC   C3B81395  25.221  14.634   5.460 -0.0561  0.0994 -0.0772
 6717POPC   C4B81396  25.136  14.504   5.907 -0.0473 -0.1317  0.4818
 6718POPC   NC381397  28.761   3.581   3.636 -0.4410  0.2303  0.1281
 6718POPC   PO481398  28.411   3.423   3.778  0.0857  0.1460 -0.1761
 6718POPC   GL181399  28.518   3.422   4.150 -0.2452 -0.3471  0.2425
 6718POPC   GL281400  28.809   3.521   4.153  0.3020 -0.2267 -0.0307
 6718POPC   C1A81401  28.451   3.848   4.366  0.0763 -0.0154 -0.1398
 6718POPC   D2A81402  28.155   4.083   4.707  0.4226  0.1354  0.3500
 6718POPC   C3A81403  28.181   4.186   5.146 -0.0228 -0.3301 -0.0150
 6718POPC   C4A81404  27.847   4.398   5.382  0.2771 -0.0735  0.0103
 6718POPC   C1B81405  28.758   3.495   4.618 -0.0019  0.3338 -0.2049
 6718POPC   C2B81406  28.874   3.363   5.138 -0.1310 -0.0325  0.1423
 6718POPC   C3B81407  28.947   3.179   5.605 -0.3806 -0.1901  0.0688
 6718POPC   C4B81408  29.057   2.958   6.000  0.0229  0.0940  0.0307
 6719POPC   NC381409  19.814  23.071   3.725 -0.1922 -0.0125  0.2974
 6719POPC   PO481410  20.206  23.062   3.567 -0.0732 -0.0263 -0.2480
 6719POPC   GL181411  20.364  23.122   3.930  0.4109  0.0695 -0.3952
 6719POPC   GL281412  20.096  23.267   4.065  0.0171 -0.3252  0.1687
 6719POPC   C1A81413  20.469  22.872   4.332  0.0428  0.2454  0.0777
 6719POPC   D2A81414  20.857  22.593   4.310 -0.0253  0.1273 -0.0345
 6719POPC   C3A81415  20.934  22.269   4.608  0.1805  0.1107  0.3672
 6719POPC   C4A81416  20.951  22.080   5.020  0.0910 -0.2583  0.3204
 6719POPC   C1B81417  20.164  23.283   4.455  0.0104  0.0637 -0.0308
 6719POPC   C2B81418  20.416  23.078   4.843 -0.0527  0.0600 -0.0052
 6719POPC   C3B81419  20.346  22.924   5.233 -0.0264 -0.0090 -0.0913
 6719POPC   C4B81420  20.318  22.963   5.642 -0.1238 -0.1983  0.2032
 6720POPC   NC381421  29.318  20.416   3.958 -0.1021 -0.3321  0.1366
 6720POPC   PO481422  29.627  20.170   3.882  0.2361  0.0281 -0.1454
 6720POPC   GL181423  29.719  20.292   4.298  0.1227 -0.2899  0.4144
 6720POPC   GL281424  29.575  19.976   4.373  0.0038 -0.1257 -0.1754
 6720POPC   C1A81425  29.433  20.434   4.601 -0.0642  0.2818 -0.0276
 6720POPC   D2A81426  29.375  20.275   5.019 -0.0476 -0.3461 -0.1305
 6720POPC   C3A81427  29.667  20.328   5.361 -0.0683  0.0802  0.1915
 6720POPC   C4A81428  29.853  20.590   5.655 -0.0398 -0.0512 -0.0250
 6720POPC   C1B81429  29.379  19.809   4.748 -0.2149  0.1407 -0.2470
 6720POPC   C2B81430  29.377  19.789   5.241 -0.5311 -0.0075  0.0629
 6720POPC   C3B81431  29.389  19.961   5.646 -0.2954 -0.0601  0.1067
 6720POPC   C4B81432  29.646  20.244   5.960  0.2300 -0.1720  0.3407
 6721POPC   NC381433  19.572  14.991   2.598 -0.3878  0.2526  0.0054
 6721POPC   PO481434  19.524  14.785   2.950 -0.2072 -0.0802  0.0654
 6721POPC   GL181435  19.856  15.018   2.966 -0.0266  0.0407  0.3588
 6721POPC   GL281436  19.929  15.245   2.748 -0.1032  0.0399  0.0023
 6721POPC   C1A81437  20.195  15.050   3.269  0.0709  0.2656  0.0408
 6721POPC   D2A81438  20.332  14.817   3.633  0.1354 -0.3954 -0.2011
 6721POPC   C3A81439  20.386  14.976   4.100  0.1727  0.0940 -0.2306
 6721POPC   C4A81440  20.253  14.858   4.538  0.2883  0.0472 -0.0893
 6721POPC   C1B81441  20.298  14.967   2.781 -0.1826 -0.2820 -0.1051
 6721POPC   C2B81442  20.726  14.977   2.716  0.0860  0.0079  0.0510
 6721POPC   C3B81443  21.122  15.174   2.729  0.0422  0.5067  0.0863
 6721POPC   C4B81444  21.450  15.392   2.473 -0.2390 -0.0052 -0.0938
 6722POPC   NC381445  20.192  11.629   4.060  0.1256  0.0568 -0.0264
 6722POPC   PO481446  20.429  11.823   3.887 -0.0203 -0.1130 -0.1206
 6722POPC   GL181447  20.524  11.901   4.239 -0.0397 -0.1924  0.1486
 6722POPC   GL281448  20.781  11.877   4.288  0.3654 -0.1378  0.2329
 6722POPC   C1A81449  20.321  11.632   4.572  0.2229  0.0524  0.1457
 6722POPC   D2A81450  20.329  11.589   5.019  0.2397 -0.0390 -0.1524
 6722POPC   C3A81451  20.134  11.191   5.134 -0.0707 -0.1610  0.0295
 6722POPC   C4A81452  20.142  10.962   5.485  0.1672 -0.3160  0.1576
 6722POPC   C1B81453  20.629  11.951   4.713  0.0996 -0.1565 -0.0482
 6722POPC   C2B81454  20.613  11.936   5.158  0.1494  0.1658  0.0176
 6722POPC   C3B81455  20.635  11.966   5.630 -0.0752  0.0660  0.0469
 6722POPC   C4B81456  20.492  12.298   5.889 -0.1891  0.3112 -0.1405
 6723POPC   NC381457   4.482   4.172   4.026 -0.1814  0.1375  0.2767
 6723POPC   PO481458   4.497   4.552   4.128 -0.2326 -0.0366 -0.2134
 6723POPC   GL181459   4.694   4.822   4.296 -0.0112 -0.0864  0.0839
 6723POPC   GL281460   4.508   5.076   4.321  0.4744 -0.1607  0.1763
 6723POPC   C1A81461   4.842   4.730   4.736 -0.1459 -0.0999  0.0271
 6723POPC   D2A81462   5.025   4.458   5.076 -0.0801  0.2187 -0.1502
 6723POPC   C3A81463   5.491   4.489   5.177  0.1883 -0.0325 -0.0545
 6723POPC   C4A81464   5.940   4.481   5.357  0.1157 -0.0808  0.1713
 6723POPC   C1B81465   4.477   5.074   4.783  0.0203  0.1014  0.1474
 6723POPC   C2B81466   4.532   5.023   5.262  0.0248  0.1514 -0.0438
 6723POPC   C3B81467   4.905   5.264   5.411  0.2124 -0.2909 -0.2870
 6723POPC   C4B81468   5.155   5.193   5.749 -0.0552  0.0339 -0.1069
 6724POPC   NC381469   1.896  18.021   3.626 -0.0720  0.4978  0.2414
 6724POPC   PO481470   1.564  17.908   3.453 -0.0178 -0.1799  0.1144
 6724POPC   GL181471   1.447  18.025   3.838  0.4793 -0.0812  0.1316
 6724POPC   GL281472   1.510  18.302   3.768 -0.0706 -0.3036 -0.1427
 6724POPC   C1A81473   1.284  17.933   4.249  0.0801 -0.4799  0.0560
 6724POPC   D2A81474   1.312  17.781   4.679  0.1268  0.1890 -0.0304
 6724POPC   C3A81475   1.613  17.930   5.008  0.1016 -0.0155 -0.3560
 6724POPC   C4A81476   2.040  17.956   5.192  0.4115  0.0438 -0.0456
 6724POPC   C1B81477   1.405  18.478   4.185 -0.0880 -0.1012 -0.0157
 6724POPC   C2B81478   1.274  18.336   4.617  0.0649  0.1604 -0.0265
 6724POPC   C3B81479   1.179  18.206   5.029  0.2360  0.1076  0.1783
 6724POPC   C4B81480   1.210  17.870   5.293 -0.1667  0.1290 -0.2571
 6725POPC   NC381481   5.503   0.924   3.939  0.0865  0.0291  0.0484
 6725POPC   PO481482   5.829   0.711   4.078  0.1741 -0.0104  0.0266
 6725POPC   GL181483   5.755   0.497   4.396  0.2498 -0.1956  0.3515
 6725POPC   GL281484   6.004   0.406   4.489 -0.0407 -0.1832  0.5169
 6725POPC   C1A81485   5.593   0.493   4.861  0.0703  0.0112  0.0123
 6725POPC   D2A81486   5.722   0.368   5.267  0.0120 -0.1595 -0.1960
 6725POPC   C3A81487   5.486   0.264   5.633 -0.3224 -0.2478 -0.1346
 6725POPC   C4A81488   5.461  -0.122   5.874  0.1777 -0.2269 -0.2425
 6725POPC   C1B81489   5.958   0.137   4.837  0.0571 -0.3801  0.1187
 6725POPC   C2B81490   6.103  -0.155   5.160 -0.2569  0.0398 -0.0975
 6725POPC   C3B81491   5.843  -0.527   5.299 -0.1390 -0.0711 -0.0507
 6725POPC   C4B81492   6.004  -0.905   5.449 -0.1632 -0.2732 -0.1058
 6726POPC   NC381493  26.094  21.732   3.792  0.0107 -0.0414  0.0123
 6726POPC   PO481494  26.310  22.019   3.939  0.0179  0.1327 -0.0810
 6726POPC   GL181495  26.291  22.143   4.231  0.1992 -0.0295 -0.0125
 6726POPC   GL281496  26.437  21.917   4.478 -0.5621  0.1178  0.0366
 6726POPC   C1A81497  26.003  22.403   4.459 -0.0261  0.1858  0.1656
 6726POPC   D2A81498  25.898  22.717   4.711  0.0134 -0.2492 -0.0894
 6726POPC   C3A81499  25.703  22.815   5.121  0.1493  0.1985  0.1067
 6726POPC   C4A81500  25.725  22.874   5.593  0.0315  0.0582  0.2017
 6726POPC   C1B81501  26.359  22.128   4.889  0.1423 -0.0960 -0.1746
 6726POPC   C2B81502  26.288  22.156   5.323  0.0862 -0.1655 -0.1272
 6726POPC   C3B81503  26.019  21.977   5.644 -0.2647  0.1031 -0.0590
 6726POPC   C4B81504  25.799  21.868   6.065 -0.0093 -0.0496 -0.3004
 6727POPC   NC381505  12.939   8.418   3.924  0.1358  0.2382  0.0092
 6727POPC   PO481506  12.726   8.622   3.649  0.2067  0.0948  0.0206
 6727POPC   GL181507  12.712   8.879   3.887  0.1549  0.1101  0.2315
 6727POPC   GL281508  12.531   9.118   3.813 -0.1778 -0.0561  0.5429
 6727POPC   C1A81509  12.817   8.734   4.337 -0.2773  0.0787  0.0309
 6727POPC   D2A81510  12.860   8.882   4.789  0.3597  0.1856 -0.2283
 6727POPC   C3A81511  12.852   9.256   5.147  0.2145 -0.0896 -0.0996
 6727POPC   C4A81512  12.818   9.672   5.401 -0.2140  0.0048 -0.2061
 6727POPC   C1B81513  12.777   9.242   4.187 -0.1107  0.1402  0.1605
 6727POPC   C2B81514  12.961   9.413   4.584 -0.1545  0.0173 -0.1126
 6727POPC   C3B81515  13.316   9.532   4.870  0.2594  0.0111 -0.0354
 6727POPC   C4B81516  13.313   9.783   5.278 -0.1071  0.0750 -0.2384
 6728POPC   NC381517  21.001   5.800   3.679 -0.3304 -0.3281  0.3361
 6728POPC   PO481518  20.722   5.996   3.912  0.1293  0.3347  0.0153
 6728POPC   GL181519  20.650   5.677   4.235  0.0005 -0.1042 -0.2551
 6728POPC   GL281520  20.763   5.813   4.440  0.2799 -0.1361 -0.1093
 6728POPC   C1A81521  20.378   5.345   4.436 -0.0053  0.1431  0.0013
 6728POPC   D2A81522  20.079   5.113   4.708 -0.0509 -0.3640  0.0183
 6728POPC   C3A81523  19.971   4.962   5.105 -0.2027  0.1007  0.0756
 6728POPC   C4A81524  19.999   4.732   5.450  0.1175  0.1459  0.0822
 6728POPC   C1B81525  20.441   5.654   4.767 -0.1956 -0.1377 -0.1103
 6728POPC   C2B81526  20.637   5.596   5.203  0.0606  0.0375  0.0824
 6728POPC   C3B81527  20.524   5.349   5.578 -0.2188 -0.3382  0.0096
 6728POPC   C4B81528  20.186   5.109   5.740 -0.0158 -0.1963  0.0585
 6729POPC   NC381529   0.670  22.942   3.613 -0.1777  0.2918  0.2165
 6729POPC   PO481530   0.962  22.707   3.605  0.2918  0.0810 -0.0126
 6729POPC   GL181531   1.095  22.728   3.897 -0.1068  0.1001 -0.3555
 6729POPC   GL281532   1.430  22.764   3.886 -0.2239 -0.0460  0.1813
 6729POPC   C1A81533   1.201  22.578   4.342  0.1348  0.0465  0.1195
 6729POPC   D2A81534   1.198  22.458   4.780 -0.3254 -0.0911 -0.0743
 6729POPC   C3A81535   1.218  22.030   4.840 -0.1458  0.0700  0.0081
 6729POPC   C4A81536   1.373  21.650   5.013  0.0059 -0.0168 -0.0151
 6729POPC   C1B81537   1.561  22.928   4.274 -0.0422  0.3605  0.2218
 6729POPC   C2B81538   1.501  22.855   4.663 -0.1161  0.2058  0.1088
 6729POPC   C3B81539   1.381  22.845   5.072 -0.0648 -0.0060 -0.0454
 6729POPC   C4B81540   1.440  22.877   5.535  0.2998 -0.2486 -0.1737
 6730POPC   NC381541  13.635  20.551   3.569  0.0743  0.0122  0.0705
 6730POPC   PO481542  13.431  20.809   3.337  0.0848  0.2293 -0.1539
 6730POPC   GL181543  13.160  20.562   3.639  0.1617 -0.2735  0.1374
 6730POPC   GL281544  13.156  20.279   3.612  0.1642  0.2523  0.1365
 6730POPC   C1A81545  13.178  20.446   4.058  0.1649  0.1205 -0.0564
 6730POPC   D2A81546  12.958  20.250   4.403 -0.1722  0.2573  0.0963
 6730POPC   C3A81547  12.814  20.210   4.830 -0.0558  0.0622  0.4322
 6730POPC   C4A81548  12.585  20.106   5.167 -0.0995  0.0871  0.3244
 6730POPC   C1B81549  12.814  20.065   3.930 -0.1163  0.5375  0.2523
 6730POPC   C2B81550  12.476  19.959   4.257 -0.3622  0.1634 -0.2205
 6730POPC   C3B81551  12.341  19.879   4.685  0.0038 -0.1386 -0.0545
 6730POPC   C4B81552  12.097  20.076   5.005  0.0220  0.2327  0.1143
 6731POPC   NC381553  31.580   2.485   3.871 -0.0042  0.1860 -0.0190
 6731POPC   PO481554  31.193   2.380   3.921  0.0553  0.1916  0.2982
 6731POPC   GL181555  31.256   2.562   4.234 -0.1435 -0.1484  0.2370
 6731POPC   GL281556  31.470   2.395   4.380  0.2868 -0.1406 -0.0923
 6731POPC   C1A81557  31.046   2.801   4.574 -0.0162  0.1133 -0.2194
 6731POPC   D2A81558  30.694   3.108   4.426 -0.0868  0.0574  0.2325
 6731POPC   C3A81559  30.535   3.413   4.639 -0.0265 -0.0617  0.0348
 6731POPC   C4A81560  30.196   3.648   4.814 -0.1492  0.0881 -0.2505
 6731POPC   C1B81561  31.278   2.432   4.855  0.1734  0.3607  0.1200
 6731POPC   C2B81562  31.171   2.466   5.307 -0.0937 -0.1345  0.0079
 6731POPC   C3B81563  30.807   2.405   5.584  0.2154  0.0539 -0.1514
 6731POPC   C4B81564  30.406   2.255   5.369  0.1527 -0.2335 -0.2541
 6732POPC   NC381565  31.218   7.122   3.769  0.0414  0.2443  0.0576
 6732POPC   PO481566  30.808   7.065   3.663  0.0397  0.2368  0.0486
 6732POPC   GL181567  30.749   7.268   3.941 -0.1223  0.2025 -0.0058
 6732POPC   GL281568  30.854   7.250   4.257 -0.1318 -0.2524  0.0628
 6732POPC   C1A81569  30.420   7.375   4.266 -0.5478 -0.0626  0.0681
 6732POPC   D2A81570  30.178   7.548   4.628  0.0055 -0.2919 -0.0800
 6732POPC   C3A81571  30.307   7.727   5.050  0.0794  0.0995 -0.3896
 6732POPC   C4A81572  30.540   8.105   5.109  0.0247 -0.3864 -0.3236
 6732POPC   C1B81573  30.713   7.168   4.661 -0.3368  0.1804 -0.0261
 6732POPC   C2B81574  30.698   7.195   5.102 -0.1188  0.3098 -0.1412
 6732POPC   C3B81575  30.678   6.993   5.517  0.1530  0.1625 -0.0644
 6732POPC   C4B81576  30.768   7.056   5.962  0.2022 -0.0211 -0.0760
 6733POPC   NC381577  11.763  13.716   3.493  0.3497  0.0193  0.1913
 6733POPC   PO481578  12.112  13.737   3.683 -0.5421  0.2814  0.0261
 6733POPC   GL181579  12.274  14.107   3.905  0.1647 -0.2328 -0.2728
 6733POPC   GL281580  12.426  13.889   4.065 -0.0760  0.0914  0.2057
 6733POPC   C1A81581  12.618  14.352   4.107 -0.1084 -0.1799 -0.2133
 6733POPC   D2A81582  12.738  14.451   4.522 -0.1225 -0.0704 -0.0098
 6733POPC   C3A81583  12.803  14.584   4.935 -0.0768  0.1101 -0.2560
 6733POPC   C4A81584  12.811  14.541   5.392  0.0471 -0.0749  0.0210
 6733POPC   C1B81585  12.428  14.032   4.518  0.1405 -0.0052  0.3187
 6733POPC   C2B81586  12.499  13.757   4.894 -0.0660  0.0975  0.0666
 6733POPC   C3B81587  12.706  13.713   5.294 -0.2855  0.1596 -0.3555
 6733POPC   C4B81588  12.816  13.642   5.733  0.0788  0.0568 -0.3073
 6734POPC   NC381589  12.469  29.386   3.797  0.1292  0.3182 -0.1470
 6734POPC   PO481590  12.838  29.542   3.846 -0.0853 -0.0869  0.0524
 6734POPC   GL181591  12.896  29.773   4.236 -0.1901  0.0883  0.1025
 6734POPC   GL281592  12.712  29.536   4.309 -0.2777  0.2254 -0.1936
 6734POPC   C1A81593  13.204  29.896   4.537  0.3531 -0.4120 -0.1921
 6734POPC   D2A81594  13.212  30.172   4.944  0.1734 -0.2256 -0.1748
 6734POPC   C3A81595  13.403  29.970   5.261 -0.0216 -0.0628 -0.1316
 6734POPC   C4A81596  13.630  29.886   5.655  0.0878  0.0221 -0.2125
 6734POPC   C1B81597  12.798  29.688   4.721  0.0191 -0.3680 -0.0616
 6734POPC   C2B81598  13.030  29.712   5.057  0.1524  0.0602  0.0127
 6734POPC   C3B81599  12.948  29.969   5.416  0.2158  0.1875 -0.2972
 6734POPC   C4B81600  13.154  30.023   5.862 -0.2681 -0.0887  0.1937
 6735POPC   NC381601  26.841  21.289   3.709 -0.0318  0.0814 -0.4365
 6735POPC   PO481602  27.023  21.397   4.049  0.0771 -0.3022 -0.1152
 6735POPC   GL181603  26.820  21.650   4.427 -0.0708  0.3401 -0.4860
 6735POPC   GL281604  26.963  21.771   4.644  0.2422  0.2051  0.0291
 6735POPC   C1A81605  26.581  21.604   4.827 -0.0710 -0.3798 -0.0280
 6735POPC   D2A81606  26.658  21.812   5.242 -0.0921  0.0002  0.3634
 6735POPC   C3A81607  26.661  22.032   5.634 -0.3540  0.1964  0.0123
 6735POPC   C4A81608  26.730  21.968   6.136  0.0499  0.0462 -0.0970
 6735POPC   C1B81609  27.247  21.569   4.984 -0.0791  0.1085 -0.1949
 6735POPC   C2B81610  27.471  21.686   5.338  0.2123  0.2900  0.3559
 6735POPC   C3B81611  27.699  21.576   5.771  0.0304 -0.0198 -0.1864
 6735POPC   C4B81612  27.598  21.557   6.268  0.1912 -0.1138  0.2600
 6736POPC   NC381613  11.917  10.766   3.593  0.0329  0.0792  0.2067
 6736POPC   PO481614  11.559  10.652   3.712  0.2694  0.0802  0.3125
 6736POPC   GL181615  11.498  10.673   4.140 -0.1453 -0.3188  0.2439
 6736POPC   GL281616  11.235  10.510   4.163 -0.0077 -0.4566  0.1719
 6736POPC   C1A81617  11.794  10.639   4.544  0.5669 -0.1959  0.1726
 6736POPC   D2A81618  11.845  10.737   5.000 -0.0738 -0.0572  0.1740
 6736POPC   C3A81619  12.038  10.414   5.212 -0.1864 -0.4185 -0.0679
 6736POPC   C4A81620  12.462  10.546   5.082  0.0109  0.2222 -0.0609
 6736POPC   C1B81621  11.106  10.627   4.611 -0.2445  0.3186 -0.0923
 6736POPC   C2B81622  11.169  10.593   5.020 -0.1228 -0.0199 -0.0256
 6736POPC   C3B81623  11.409  10.837   5.390 -0.0158 -0.0969  0.0180
 6736POPC   C4B81624  11.775  10.628   5.620  0.1897  0.3746 -0.0461
 6737POPC   NC381625  26.194  14.517   3.835 -0.1896  0.1059 -0.0746
 6737POPC   PO481626  25.910  14.298   3.686 -0.0082  0.2067  0.0792
 6737POPC   GL181627  25.927  14.130   4.037  0.2492 -0.0841 -0.0264
 6737POPC   GL281628  25.647  14.208   4.096 -0.0448 -0.3380  0.0953
 6737POPC   C1A81629  25.890  14.341   4.473  0.2239 -0.0494  0.0081
 6737POPC   D2A81630  26.068  14.667   4.747 -0.2880 -0.1016  0.2782
 6737POPC   C3A81631  26.152  14.699   5.156  0.0220 -0.1346 -0.2492
 6737POPC   C4A81632  26.043  14.999   5.523 -0.1652 -0.0037  0.2188
 6737POPC   C1B81633  25.455  13.973   4.423 -0.0751 -0.2532  0.1590
 6737POPC   C2B81634  25.341  13.756   4.790 -0.0229 -0.4138  0.0351
 6737POPC   C3B81635  25.493  13.471   5.174  0.0922 -0.1741 -0.4200
 6737POPC   C4B81636  25.771  13.136   5.407  0.0354 -0.1174  0.1077
 6738POPC   NC381637  23.950  22.240   3.422  0.2128 -0.0928  0.3169
 6738POPC   PO481638  23.602  22.366   3.337  0.0334 -0.0063  0.0744
 6738POPC   GL181639  23.627  22.361   3.746 -0.0814  0.1582  0.2148
 6738POPC   GL281640  23.780  22.646   3.808 -0.0444  0.2915 -0.0077
 6738POPC   C1A81641  23.390  22.079   4.103  0.1880  0.5239  0.0979
 6738POPC   D2A81642  23.520  21.810   4.505 -0.0213  0.1527  0.0486
 6738POPC   C3A81643  23.554  21.952   4.968  0.0208 -0.0526 -0.1219
 6738POPC   C4A81644  23.396  22.134   5.377 -0.3113 -0.0417  0.1464
 6738POPC   C1B81645  24.032  22.365   4.088  0.1649 -0.1676  0.1588
 6738POPC   C2B81646  24.302  22.415   4.441  0.2677  0.1813 -0.3901
 6738POPC   C3B81647  24.435  22.420   4.886  0.1259  0.4332 -0.1493
 6738POPC   C4B81648  24.435  22.456   5.344 -0.1958  0.0869  0.2696
 6739POPC   NC381649  28.167  19.203   3.114  0.4792  0.0718  0.0776
 6739POPC   PO481650  28.324  19.049   3.427  0.2333  0.1019 -0.0516
 6739POPC   GL181651  28.286  18.930   3.722 -0.1349  0.0475  0.1010
 6739POPC   GL281652  28.092  18.752   3.791  0.2316  0.2425  0.1476
 6739POPC   C1A81653  28.158  19.215   4.122  0.1557 -0.1939  0.0681
 6739POPC   D2A81654  28.319  19.358   4.553  0.0345  0.0866  0.2289
 6739POPC   C3A81655  28.053  19.283   4.944 -0.2261  0.1315 -0.0974
 6739POPC   C4A81656  27.772  19.041   5.267 -0.1235 -0.0649 -0.1926
 6739POPC   C1B81657  28.172  18.737   4.257  0.0065  0.2223  0.2577
 6739POPC   C2B81658  28.131  18.873   4.721  0.1540 -0.2407 -0.0159
 6739POPC   C3B81659  28.562  18.915   4.965  0.5075 -0.1652 -0.0114
 6739POPC   C4B81660  28.850  18.636   5.105  0.2064  0.2283  0.0016
 6740POPC   NC381661  30.929   5.938   3.284 -0.4485  0.0969  0.1652
 6740POPC   PO481662  31.178   5.792   3.598  0.2115 -0.1325 -0.5956
 6740POPC   GL181663  30.876   5.675   3.892  0.1743 -0.1348 -0.2957
 6740POPC   GL281664  31.013   5.702   4.123  0.0153  0.0621  0.1524
 6740POPC   C1A81665  30.544   5.823   4.145  0.0215  0.1432  0.2592
 6740POPC   D2A81666  30.600   6.187   4.421 -0.2526 -0.0517 -0.0075
 6740POPC   C3A81667  30.276   6.324   4.747 -0.2303  0.3575 -0.0969
 6740POPC   C4A81668  30.075   6.156   5.105  0.5206 -0.4654 -0.0703
 6740POPC   C1B81669  30.930   5.585   4.524 -0.0503  0.0766 -0.0178
 6740POPC   C2B81670  30.515   5.797   4.704 -0.1215  0.2696  0.3486
 6740POPC   C3B81671  30.306   5.739   5.137 -0.0079  0.0927  0.3122
 6740POPC   C4B81672  30.026   5.738   5.490  0.1177 -0.1618 -0.2642
 6741POPC   NC381673   1.082  12.216   4.141 -0.0188 -0.4411 -0.2614
 6741POPC   PO481674   1.426  12.099   3.980  0.2181 -0.0212 -0.1540
 6741POPC   GL181675   1.450  11.981   4.367 -0.1043 -0.4246 -0.0985
 6741POPC   GL281676   1.712  12.123   4.437  0.1942 -0.0825 -0.0134
 6741POPC   C1A81677   1.473  11.980   4.852  0.1670  0.2759  0.1022
 6741POPC   D2A81678   1.443  11.893   5.281 -0.1554  0.0365  0.1751
 6741POPC   C3A81679   1.288  11.673   5.665  0.0297  0.0430  0.0789
 6741POPC   C4A81680   0.965  11.431   5.895  0.2228  0.0523 -0.1113
 6741POPC   C1B81681   1.818  12.278   4.823  0.0470 -0.1039 -0.1742
 6741POPC   C2B81682   1.878  12.244   5.300 -0.2305  0.0357 -0.1415
 6741POPC   C3B81683   1.800  12.107   5.706  0.1149 -0.0674  0.2468
 6741POPC   C4B81684   1.590  12.105   6.067  0.3113 -0.0644  0.1271
 6742POPC   NC381685  25.363  30.216   3.802  0.0985 -0.3415  0.1703
 6742POPC   PO481686  25.601  30.143   3.519 -0.3958 -0.0928 -0.0071
 6742POPC   GL181687  25.919  30.161   3.791  0.0892 -0.0409 -0.3704
 6742POPC   GL281688  25.994  29.898   3.874  0.0660  0.3969 -0.0337
 6742POPC   C1A81689  26.099  30.362   4.168 -0.3376  0.0115 -0.2486
 6742POPC   D2A81690  26.434  30.553   4.333 -0.0301 -0.3513 -0.0017
 6742POPC   C3A81691  26.493  30.531   4.832 -0.0108  0.1854  0.1573
 6742POPC   C4A81692  26.869  30.433   5.124 -0.0039 -0.1139 -0.1381
 6742POPC   C1B81693  26.237  29.892   4.240  0.4388 -0.1198  0.2229
 6742POPC   C2B81694  26.429  30.025   4.630  0.1590 -0.0713 -0.1648
 6742POPC   C3B81695  26.325  30.034   5.071  0.0981  0.2568  0.1399
 6742POPC   C4B81696  26.042  30.161   5.401  0.0908 -0.1693 -0.1640
 6743POPC   NC381697  25.604   2.611   4.120  0.2019  0.0066  0.0153
 6743POPC   PO481698  25.989   2.673   4.017  0.0801  0.1029 -0.1380
 6743POPC   GL181699  25.899   2.589   4.420 -0.3278  0.1802  0.4030
 6743POPC   GL281700  25.998   2.790   4.542 -0.2653  0.0908 -0.2687
 6743POPC   C1A81701  26.054   2.388   4.810 -0.0602 -0.2457  0.0712
 6743POPC   D2A81702  26.058   2.232   5.227  0.0790  0.0859 -0.2111
 6743POPC   C3A81703  25.706   1.902   5.403 -0.0398  0.3183  0.0293
 6743POPC   C4A81704  25.421   2.048   5.706 -0.0617  0.1670  0.1920
 6743POPC   C1B81705  25.642   2.691   4.799 -0.0304  0.2827  0.1222
 6743POPC   C2B81706  25.599   2.414   5.180  0.0765 -0.3131  0.0369
 6743POPC   C3B81707  25.736   2.393   5.572  0.0442 -0.2450 -0.0083
 6743POPC   C4B81708  26.134   2.261   5.765 -0.2989 -0.0933 -0.1901
 6744POPC   NC381709  12.814   5.025   3.497  0.2549  0.2794  0.2417
 6744POPC   PO481710  12.578   5.343   3.562 -0.1756  0.1631 -0.1566
 6744POPC   GL181711  12.520   5.467   3.843 -0.2200 -0.0235 -0.0100
 6744POPC   GL281712  12.728   5.684   3.873 -0.2797 -0.0386 -0.4868
 6744POPC   C1A81713  12.666   5.302   4.274 -0.2059  0.3501 -0.4074
 6744POPC   D2A81714  12.743   5.218   4.720 -0.1523 -0.0743 -0.3384
 6744POPC   C3A81715  13.154   5.061   4.887 -0.0528 -0.1943  0.0152
 6744POPC   C4A81716  13.350   4.998   5.304  0.1751  0.0671  0.1375
 6744POPC   C1B81717  12.950   5.834   4.249  0.0277  0.2527 -0.1106
 6744POPC   C2B81718  13.088   6.062   4.638 -0.4100  0.2358  0.0227
 6744POPC   C3B81719  13.140   6.157   5.102 -0.1353 -0.0833 -0.3249
 6744POPC   C4B81720  13.043   6.459   5.470 -0.2718  0.1899  0.2317
 6745POPC   NC381721  14.765  15.967   3.643  0.0368 -0.0396  0.1072
 6745POPC   PO481722  14.533  16.263   3.525  0.1161  0.0860 -0.1869
 6745POPC   GL181723  14.306  16.215   3.773  0.1787 -0.2012  0.2973
 6745POPC   GL281724  14.303  15.989   3.923 -0.2448  0.1803 -0.0338
 6745POPC   C1A81725  14.229  16.470   4.155  0.1842  0.0210 -0.0341
 6745POPC   D2A81726  14.263  16.495   4.644 -0.0096 -0.0005  0.0256
 6745POPC   C3A81727  14.440  16.487   5.074 -0.3452 -0.1869  0.0220
 6745POPC   C4A81728  14.807  16.358   5.326 -0.1830  0.2417  0.0078
 6745POPC   C1B81729  14.352  16.001   4.391 -0.0117 -0.0239  0.1059
 6745POPC   C2B81730  14.465  16.055   4.851 -0.0424  0.1379  0.0287
 6745POPC   C3B81731  14.535  15.953   5.313  0.1196  0.1785  0.0320
 6745POPC   C4B81732  14.435  16.076   5.752  0.0039  0.3230 -0.0211
 6746POPC   NC381733   3.083  16.447   3.172 -0.1488 -0.2663 -0.0864
 6746POPC   PO481734   3.230  16.828   3.283  0.0089 -0.0530 -0.2190
 6746POPC   GL181735   3.149  16.899   3.728 -0.1062  0.4373  0.2601
 6746POPC   GL281736   2.860  16.901   3.726 -0.4374  0.0746  0.0630
 6746POPC   C1A81737   3.084  16.555   4.041 -0.1324  0.2569 -0.2905
 6746POPC   D2A81738   2.949  16.143   4.136 -0.0414  0.0030  0.2914
 6746POPC   C3A81739   2.918  16.157   4.606  0.3490  0.0314  0.0361
 6746POPC   C4A81740   2.886  16.248   5.042 -0.2801  0.0946 -0.3386
 6746POPC   C1B81741   2.725  16.881   4.178 -0.1944 -0.2682 -0.0893
 6746POPC   C2B81742   2.701  16.947   4.638  0.1562  0.1004 -0.0584
 6746POPC   C3B81743   2.731  16.949   5.134 -0.0245 -0.3301 -0.0149
 6746POPC   C4B81744   2.679  16.885   5.598 -0.1523  0.0598 -0.2036
 6747POPC   NC381745  26.921  28.305   3.567 -0.1722 -0.3606  0.1180
 6747POPC   PO481746  27.292  28.160   3.479 -0.2116  0.0532  0.0812
 6747POPC   GL181747  27.250  28.184   3.845 -0.4684 -0.0423 -0.4527
 6747POPC   GL281748  27.108  28.395   4.006 -0.3283  0.0077 -0.1407
 6747POPC   C1A81749  27.399  27.828   4.151 -0.1301 -0.0163  0.2617
 6747POPC   D2A81750  27.545  27.667   4.530  0.1277  0.1078  0.0658
 6747POPC   C3A81751  27.295  27.440   4.908  0.0419 -0.1161 -0.0698
 6747POPC   C4A81752  27.285  27.317   5.326 -0.1997  0.3796  0.0495
 6747POPC   C1B81753  27.364  28.262   4.372  0.0997 -0.3293  0.3507
 6747POPC   C2B81754  27.594  28.491   4.738  0.0917 -0.1047  0.0304
 6747POPC   C3B81755  27.835  28.403   5.147 -0.1970 -0.2361  0.0454
 6747POPC   C4B81756  27.990  28.430   5.614  0.0006 -0.2997  0.1621
 6748POPC   NC381757  24.905  26.644   3.656 -0.2199  0.0783  0.0375
 6748POPC   PO481758  24.530  26.458   3.614  0.2114  0.0130 -0.3464
 6748POPC   GL181759  24.624  26.078   3.704  0.2990 -0.4223  0.1704
 6748POPC   GL281760  24.491  25.818   3.638 -0.2172  0.1548 -0.2388
 6748POPC   C1A81761  24.794  25.747   4.004  0.0307 -0.1383  0.0846
 6748POPC   D2A81762  24.600  25.580   4.407 -0.2431 -0.2273  0.0821
 6748POPC   C3A81763  24.368  25.608   4.749  0.1761  0.1395  0.1424
 6748POPC   C4A81764  24.320  25.382   5.126  0.0065 -0.0198  0.1810
 6748POPC   C1B81765  24.379  25.962   4.076  0.2190 -0.0397  0.2598
 6748POPC   C2B81766  24.422  26.073   4.540  0.2550 -0.0940 -0.0256
 6748POPC   C3B81767  24.440  26.072   4.975 -0.0950 -0.1277 -0.2031
 6748POPC   C4B81768  24.298  25.937   5.340 -0.0809  0.0767  0.0073
 6749POPC   NC381769   8.030  24.014   3.891 -0.1494 -0.0361 -0.0502
 6749POPC   PO481770   7.850  24.339   3.799 -0.2026 -0.4391 -0.1372
 6749POPC   GL181771   7.887  24.436   4.201  0.0778 -0.1562 -0.2431
 6749POPC   GL281772   7.783  24.129   4.283 -0.0261  0.1420 -0.1754
 6749POPC   C1A81773   7.895  24.417   4.669 -0.0805 -0.0681 -0.0152
 6749POPC   D2A81774   7.840  24.453   5.129 -0.0994 -0.1874  0.0445
 6749POPC   C3A81775   7.957  24.492   5.600 -0.0331  0.2502 -0.3504
 6749POPC   C4A81776   8.267  24.314   5.919 -0.1363  0.1244  0.2782
 6749POPC   C1B81777   8.117  23.959   4.544  0.1424  0.1714 -0.0484
 6749POPC   C2B81778   8.158  23.820   4.979  0.2266  0.1165 -0.1272
 6749POPC   C3B81779   8.203  24.130   5.318  0.0430  0.0874 -0.1291
 6749POPC   C4B81780   8.606  24.258   5.538 -0.1814  0.0666  0.1859
 6750POPC   NC381781  18.115   3.286   3.143 -0.0320 -0.0627  0.0214
 6750POPC   PO481782  17.744   3.390   3.102 -0.1026  0.0195  0.3264
 6750POPC   GL181783  17.573   3.662   3.415 -0.2003  0.1418 -0.1617
 6750POPC   GL281784  17.725   3.848   3.346  0.0545  0.1778  0.2227
 6750POPC   C1A81785  17.422   3.591   3.867 -0.1253 -0.0456 -0.2073
 6750POPC   D2A81786  17.230   3.780   4.286  0.0172 -0.1984 -0.1231
 6750POPC   C3A81787  17.398   4.200   4.536 -0.0736 -0.1430  0.1320
 6750POPC   C4A81788  17.504   4.528   4.838 -0.0619 -0.1436 -0.3723
 6750POPC   C1B81789  17.830   3.851   3.807 -0.0068  0.1351 -0.1551
 6750POPC   C2B81790  18.033   3.967   4.215 -0.1140  0.0766  0.1672
 6750POPC   C3B81791  18.420   4.116   4.379  0.2592  0.1739  0.0576
 6750POPC   C4B81792  18.842   4.239   4.376 -0.4124  0.1329  0.0695
 6751POPC   NC381793  22.918   4.587   3.815  0.4004  0.3445 -0.1480
 6751POPC   PO481794  22.533   4.740   3.886  0.0074  0.1870  0.1610
 6751POPC   GL181795  22.614   4.478   4.173 -0.1373  0.2742  0.3607
 6751POPC   GL281796  22.757   4.171   4.099 -0.1635 -0.0174  0.0876
 6751POPC   C1A81797  22.421   4.453   4.606  0.1141  0.1716  0.0888
 6751POPC   D2A81798  22.641   4.544   4.918  0.3638 -0.0083  0.3607
 6751POPC   C3A81799  22.616   4.617   5.398  0.5238 -0.1339  0.1337
 6751POPC   C4A81800  22.680   4.886   5.822  0.0573  0.0709 -0.0209
 6751POPC   C1B81801  22.829   4.187   4.572  0.0320 -0.1057  0.0074
 6751POPC   C2B81802  23.025   4.118   5.019 -0.4701 -0.2656 -0.0566
 6751POPC   C3B81803  23.430   3.950   5.171 -0.0118  0.2665 -0.2354
 6751POPC   C4B81804  23.695   3.683   5.481  0.0915  0.1373 -0.0646
 6752POPC   NC381805  23.887   7.690   4.046 -0.0978  0.0280 -0.0153
 6752POPC   PO481806  23.589   7.558   3.847 -0.0472 -0.3205 -0.2213
 6752POPC   GL181807  23.596   7.408   4.215 -0.3731  0.2198 -0.2317
 6752POPC   GL281808  23.777   7.205   4.308 -0.2453 -0.0442  0.0428
 6752POPC   C1A81809  23.763   7.586   4.617  0.2521  0.0687 -0.2585
 6752POPC   D2A81810  23.823   7.536   5.014 -0.3273 -0.2003 -0.0979
 6752POPC   C3A81811  23.650   7.731   5.440 -0.0498  0.1821 -0.1254
 6752POPC   C4A81812  23.417   7.587   5.865 -0.0778  0.2061  0.4039
 6752POPC   C1B81813  23.424   7.102   4.551 -0.2254 -0.0036  0.0768
 6752POPC   C2B81814  22.993   7.162   4.742 -0.1822  0.2705 -0.1992
 6752POPC   C3B81815  22.781   7.356   5.049 -0.3979  0.1362 -0.1446
 6752POPC   C4B81816  22.518   7.526   5.423 -0.1003 -0.0971 -0.0131
 6753POPC   NC381817   0.187  18.187   3.453  0.0105  0.2440  0.0836
 6753POPC   PO481818  -0.174  18.019   3.518 -0.0148  0.2026  0.3163
 6753POPC   GL181819  -0.074  17.944   3.938 -0.4316 -0.3045  0.2988
 6753POPC   GL281820   0.192  18.116   3.971 -0.0488 -0.1431 -0.2620
 6753POPC   C1A81821  -0.046  17.899   4.351  0.0616  0.0979 -0.2511
 6753POPC   D2A81822  -0.156  17.939   4.843  0.0627 -0.0347  0.0800
 6753POPC   C3A81823  -0.104  17.618   5.150  0.0815  0.2596  0.1058
 6753POPC   C4A81824  -0.240  17.247   5.321 -0.2386 -0.0128 -0.0243
 6753POPC   C1B81825   0.381  18.194   4.418 -0.0059 -0.1801  0.0527
 6753POPC   C2B81826   0.369  18.176   4.903  0.2659  0.0944  0.0950
 6753POPC   C3B81827   0.284  17.922   5.301 -0.0909 -0.0526  0.2218
 6753POPC   C4B81828   0.211  17.509   5.545  0.1108  0.1034 -0.1557
 6754POPC   NC381829   5.463   9.522   3.170  0.1655  0.0578 -0.1379
 6754POPC   PO481830   5.843   9.643   3.067  0.0099 -0.0407  0.1806
 6754POPC   GL181831   5.872   9.794   3.434  0.0659  0.2675 -0.1471
 6754POPC   GL281832   6.062   9.890   3.545 -0.1409  0.2914  0.0384
 6754POPC   C1A81833   5.621   9.943   3.765  0.0319  0.2751 -0.1647
 6754POPC   D2A81834   5.325  10.279   3.731 -0.1383 -0.1441  0.2614
 6754POPC   C3A81835   5.605  10.593   3.840 -0.2813  0.1285 -0.3443
 6754POPC   C4A81836   5.664  11.053   3.965 -0.1774 -0.0769 -0.1053
 6754POPC   C1B81837   6.059  10.046   3.974  0.1362  0.1075  0.1831
 6754POPC   C2B81838   6.106  10.053   4.413  0.0736 -0.0499 -0.2092
 6754POPC   C3B81839   6.162   9.968   4.856  0.1091 -0.0312 -0.2426
 6754POPC   C4B81840   6.355  10.099   5.321 -0.0762 -0.3129  0.1071
 6755POPC   NC381841   4.009   4.959   4.185  0.0681  0.0023  0.1745
 6755POPC   PO481842   4.031   4.612   4.050  0.1397  0.0093  0.1523
 6755POPC   GL181843   3.936   4.641   4.495 -0.1742 -0.0213  0.0038
 6755POPC   GL281844   4.106   4.451   4.546 -0.0470 -0.0436  0.2347
 6755POPC   C1A81845   3.646   4.519   4.874  0.0197  0.3182  0.2938
 6755POPC   D2A81846   3.876   4.306   5.228  0.3721  0.1149 -0.3006
 6755POPC   C3A81847   3.806   3.923   5.465  0.0186 -0.0058  0.3552
 6755POPC   C4A81848   3.721   3.446   5.433 -0.1164 -0.1423  0.1090
 6755POPC   C1B81849   4.504   4.286   4.789  0.0831 -0.1478 -0.0349
 6755POPC   C2B81850   4.572   4.394   5.238  0.0468 -0.0533  0.3766
 6755POPC   C3B81851   4.687   4.059   5.534 -0.1362 -0.2780  0.1756
 6755POPC   C4B81852   4.969   3.723   5.722 -0.0322 -0.0123 -0.2692
 6756POPC   NC381853   7.559  30.290   3.489 -0.0660 -0.0527  0.1269
 6756POPC   PO481854   7.270  30.078   3.294  0.2568 -0.2616 -0.1202
 6756POPC   GL181855   6.960  30.220   3.548  0.0644 -0.1122  0.1040
 6756POPC   GL281856   7.097  30.170   3.888 -0.0532 -0.1006  0.1591
 6756POPC   C1A81857   6.593  30.285   3.856  0.1449 -0.1501  0.0053
 6756POPC   D2A81858   6.701  30.447   4.221 -0.0057 -0.1081 -0.0543
 6756POPC   C3A81859   6.325  30.289   4.358 -0.1673  0.0704  0.0485
 6756POPC   C4A81860   5.955  30.473   4.559 -0.1429  0.2757 -0.0635
 6756POPC   C1B81861   6.717  29.803   4.015  0.1691 -0.3810  0.0405
 6756POPC   C2B81862   6.482  29.617   4.340 -0.1989 -0.2205 -0.0572
 6756POPC   C3B81863   6.112  29.783   4.462  0.5074  0.0245  0.0572
 6756POPC   C4B81864   5.697  30.013   4.449  0.2659  0.1551 -0.2457
 6757POPC   NC381865  11.931  29.784   3.447  0.1755  0.0361 -0.1975
 6757POPC   PO481866  11.972  29.608   3.803 -0.1982 -0.0171 -0.0718
 6757POPC   GL181867  12.018  29.464   4.200  0.0840 -0.2330  0.2694
 6757POPC   GL281868  12.221  29.521   4.384 -0.0386 -0.2149  0.1180
 6757POPC   C1A81869  11.733  29.513   4.590  0.2942 -0.4021 -0.1072
 6757POPC   D2A81870  11.808  29.358   5.052 -0.0150 -0.0231  0.2052
 6757POPC   C3A81871  12.123  29.350   5.420 -0.1003  0.2253  0.0158
 6757POPC   C4A81872  12.262  29.648   5.728  0.1043  0.3233 -0.0049
 6757POPC   C1B81873  12.241  29.608   4.853  0.1639  0.0457  0.1457
 6757POPC   C2B81874  12.475  29.633   5.251  0.1630 -0.2032  0.0086
 6757POPC   C3B81875  12.672  29.441   5.554 -0.2464  0.0998 -0.2019
 6757POPC   C4B81876  12.732  29.404   5.954  0.4036  0.1421  0.1971
 6758POPC   NC381877   5.445  16.677   3.944  0.0092 -0.1665  0.0186
 6758POPC   PO481878   5.808  16.669   3.883 -0.0455  0.2512 -0.1018
 6758POPC   GL181879   5.761  16.665   4.311 -0.0341 -0.1225 -0.3765
 6758POPC   GL281880   5.664  16.925   4.335 -0.2302  0.0157  0.1133
 6758POPC   C1A81881   5.981  16.456   4.657 -0.0428 -0.3056 -0.0219
 6758POPC   D2A81882   5.786  16.450   5.095 -0.2766 -0.3302  0.2937
 6758POPC   C3A81883   6.167  16.469   5.390  0.1061 -0.0065 -0.1442
 6758POPC   C4A81884   6.531  16.223   5.621  0.0800 -0.2872  0.0837
 6758POPC   C1B81885   5.609  16.798   4.750 -0.2211 -0.3440  0.3459
 6758POPC   C2B81886   5.578  16.907   5.226  0.0566 -0.3011  0.0184
 6758POPC   C3B81887   5.884  16.859   5.548 -0.2212  0.5948 -0.5633
 6758POPC   C4B81888   6.140  17.119   5.806 -0.1960  0.0135  0.0582
 6759POPC   NC381889  29.490  31.614   3.450 -0.1499 -0.1307 -0.2581
 6759POPC   PO481890  29.164  31.768   3.635  0.0605  0.3041 -0.0447
 6759POPC   GL181891  29.120  31.888   4.001  0.4350  0.4838 -0.1325
 6759POPC   GL281892  29.020  32.116   4.082  0.2446 -0.1387  0.1282
 6759POPC   C1A81893  28.801  31.784   4.323 -0.2484  0.0879 -0.1797
 6759POPC   D2A81894  28.658  31.547   4.693 -0.0417 -0.3091  0.2268
 6759POPC   C3A81895  28.730  31.578   5.144  0.1136 -0.1447 -0.1515
 6759POPC   C4A81896  28.955  31.327   5.414 -0.2407  0.1532 -0.1605
 6759POPC   C1B81897  29.169  32.386   4.382  0.2538 -0.1075 -0.2232
 6759POPC   C2B81898  29.355  32.403   4.783 -0.3169  0.3110 -0.0476
 6759POPC   C3B81899  29.242  32.343   5.274 -0.1319  0.1774 -0.2115
 6759POPC   C4B81900  29.310  32.252   5.701  0.2255  0.3924  0.3844
 6760POPC   NC381901   7.241  28.416   3.782 -0.0996 -0.0240  0.0987
 6760POPC   PO481902   7.413  28.777   3.721 -0.0689 -0.1360 -0.0070
 6760POPC   GL181903   7.339  28.761   4.061 -0.1884 -0.2119  0.5970
 6760POPC   GL281904   7.123  28.941   4.093 -0.3681  0.4269  0.1348
 6760POPC   C1A81905   7.555  28.671   4.410 -0.1142  0.5434  0.3132
 6760POPC   D2A81906   7.687  28.462   4.804  0.0268  0.0199 -0.1739
 6760POPC   C3A81907   7.462  28.152   5.069  0.0206  0.0147  0.2101
 6760POPC   C4A81908   7.360  27.972   5.475 -0.1569  0.1256 -0.0258
 6760POPC   C1B81909   7.028  28.847   4.533  0.0803  0.2680  0.1164
 6760POPC   C2B81910   6.808  28.678   4.946  0.2606 -0.0063 -0.0859
 6760POPC   C3B81911   6.577  28.569   5.321 -0.0414 -0.2337  0.0913
 6760POPC   C4B81912   6.365  28.441   5.748 -0.1180 -0.2454 -0.0644
 6761POPC   NC381913  16.122   6.888   3.522  0.1511 -0.0939  0.0412
 6761POPC   PO481914  16.349   6.892   3.819  0.4314  0.1015  0.0236
 6761POPC   GL181915  16.526   6.610   4.049  0.3130  0.1325 -0.0651
 6761POPC   GL281916  16.329   6.599   4.271 -0.0163  0.0496 -0.1721
 6761POPC   C1A81917  16.766   6.332   4.339  0.1396  0.2865 -0.1331
 6761POPC   D2A81918  17.094   6.115   4.596  0.0212 -0.0047 -0.1631
 6761POPC   C3A81919  17.048   5.724   4.833  0.1623 -0.3421  0.0724
 6761POPC   C4A81920  16.941   5.582   5.284 -0.2081  0.3269 -0.1738
 6761POPC   C1B81921  16.307   6.906   4.630 -0.1361 -0.0251 -0.0083
 6761POPC   C2B81922  16.286   6.547   4.905  0.1184 -0.3245  0.0253
 6761POPC   C3B81923  16.045   6.471   5.301 -0.0753 -0.2667 -0.0381
 6761POPC   C4B81924  16.011   6.132   5.554 -0.1602  0.0199  0.2724
 6762POPC   NC381925   9.680   3.897   3.208  0.2252  0.0471  0.2974
 6762POPC   PO481926   9.577   4.181   3.484 -0.0355  0.2764 -0.0320
 6762POPC   GL181927   9.454   4.552   3.589 -0.1949 -0.3412  0.1650
 6762POPC   GL281928   9.632   4.691   3.449 -0.0061  0.2692 -0.0945
 6762POPC   C1A81929   9.287   4.665   3.982  0.1073 -0.1168 -0.2099
 6762POPC   D2A81930   9.110   4.806   4.371  0.1068  0.1574  0.3383
 6762POPC   C3A81931   9.060   5.032   4.727 -0.0237  0.2288  0.1503
 6762POPC   C4A81932   9.222   5.353   5.018 -0.0683 -0.1778 -0.1727
 6762POPC   C1B81933   9.672   4.919   3.803  0.2472  0.0211 -0.2567
 6762POPC   C2B81934   9.594   4.928   4.225 -0.1344 -0.1319  0.1145
 6762POPC   C3B81935   9.532   4.971   4.696 -0.1440  0.0223  0.0333
 6762POPC   C4B81936   9.669   5.112   5.171  0.0770  0.3434 -0.2231
 6763POPC   NC381937  14.656   1.278   3.809 -0.0314 -0.2487 -0.2221
 6763POPC   PO481938  14.357   1.041   3.725  0.0528 -0.1338  0.0141
 6763POPC   GL181939  14.435   0.719   3.916 -0.0154 -0.0502 -0.0606
 6763POPC   GL281940  14.268   0.660   4.086  0.1762 -0.5114  0.1566
 6763POPC   C1A81941  14.674   0.847   4.363  0.2558 -0.1194  0.1556
 6763POPC   D2A81942  14.740   1.110   4.759 -0.1231 -0.3507 -0.0457
 6763POPC   C3A81943  14.564   0.994   5.154  0.2707 -0.0163 -0.0996
 6763POPC   C4A81944  14.484   0.824   5.602 -0.1449  0.1629 -0.1910
 6763POPC   C1B81945  14.461   0.413   4.520 -0.0860  0.1735  0.0209
 6763POPC   C2B81946  14.342   0.104   4.852  0.3991  0.0726 -0.0009
 6763POPC   C3B81947  14.154  -0.009   5.255 -0.0863 -0.1214 -0.2484
 6763POPC   C4B81948  13.827  -0.013   5.572 -0.0096 -0.2640 -0.0604
 6764POPC   NC381949  31.318  14.774   3.466  0.1029 -0.1121  0.0083
 6764POPC   PO481950  30.964  14.807   3.585  0.0885 -0.1794  0.0176
 6764POPC   GL181951  31.034  14.703   3.882  0.2429 -0.2157  0.3171
 6764POPC   GL281952  31.153  14.486   3.984 -0.2573 -0.3314 -0.0970
 6764POPC   C1A81953  30.884  14.867   4.299  0.0349  0.0738  0.1193
 6764POPC   D2A81954  31.026  14.844   4.790  0.0362 -0.3629 -0.1269
 6764POPC   C3A81955  30.854  15.113   5.149  0.0111  0.2652  0.1622
 6764POPC   C4A81956  30.810  15.374   5.555  0.0766  0.2913 -0.1003
 6764POPC   C1B81957  31.313  14.448   4.423  0.2301  0.3055 -0.1064
 6764POPC   C2B81958  31.457  14.513   4.858 -0.2070 -0.0743  0.1107
 6764POPC   C3B81959  31.283  14.508   5.257 -0.1208  0.0252  0.1869
 6764POPC   C4B81960  31.419  14.344   5.659 -0.0999 -0.0535 -0.4412
 6765POPC   NC381961   8.895  13.043   3.379 -0.3362 -0.0154  0.0267
 6765POPC   PO481962   8.819  12.778   3.616 -0.1415  0.1939 -0.0558
 6765POPC   GL181963   8.741  12.967   3.984  0.1362 -0.1338 -0.4508
 6765POPC   GL281964   8.489  12.780   4.047  0.0514  0.2918 -0.1710
 6765POPC   C1A81965   9.007  12.882   4.363 -0.0829  0.0435 -0.0159
 6765POPC   D2A81966   9.110  12.812   4.804 -0.2050 -0.2380 -0.1205
 6765POPC   C3A81967   9.111  12.872   5.228 -0.1643  0.0646 -0.1427
 6765POPC   C4A81968   8.833  13.047   5.483 -0.0594  0.0798  0.0663
 6765POPC   C1B81969   8.101  12.553   4.216 -0.5003  0.0786  0.1058
 6765POPC   C2B81970   7.795  12.698   4.509 -0.0188 -0.0591 -0.1213
 6765POPC   C3B81971   7.706  12.586   4.943  0.2040  0.2891 -0.1106
 6765POPC   C4B81972   7.912  12.893   5.263  0.1984  0.0584 -0.0087
 6766POPC   NC381973  29.382  27.459   3.701  0.0464  0.0204  0.0658
 6766POPC   PO481974  29.543  27.094   3.736  0.2464 -0.0538  0.3906
 6766POPC   GL181975  29.533  27.079   4.090  0.2159 -0.1479 -0.1075
 6766POPC   GL281976  29.355  27.259   4.181  0.2924  0.0246 -0.2194
 6766POPC   C1A81977  29.505  26.633   4.282  0.0137 -0.1314  0.1754
 6766POPC   D2A81978  29.794  26.323   4.311 -0.0699 -0.0794 -0.2078
 6766POPC   C3A81979  29.801  25.988   4.662  0.0667 -0.1410  0.1671
 6766POPC   C4A81980  30.128  25.834   5.041 -0.2325 -0.0608  0.3987
 6766POPC   C1B81981  29.467  27.046   4.603 -0.0901  0.1747 -0.0442
 6766POPC   C2B81982  29.777  26.995   4.938 -0.0230 -0.1051  0.0796
 6766POPC   C3B81983  29.855  26.877   5.435 -0.1808  0.3444  0.2383
 6766POPC   C4B81984  29.944  26.632   5.848  0.1063 -0.2166 -0.0717
 6767POPC   NC381985  12.850  29.081   4.063 -0.0107  0.0388  0.2969
 6767POPC   PO481986  12.562  28.931   3.884  0.1264 -0.0833  0.2164
 6767POPC   GL181987  12.389  29.167   4.184 -0.1061  0.0118 -0.2309
 6767POPC   GL281988  12.244  28.906   4.300  0.2722 -0.1261 -0.2686
 6767POPC   C1A81989  12.523  29.204   4.614 -0.3491 -0.2905  0.1927
 6767POPC   D2A81990  12.495  29.188   5.042  0.0723  0.0931 -0.1613
 6767POPC   C3A81991  12.415  28.987   5.423 -0.0283 -0.1269  0.0545
 6767POPC   C4A81992  12.431  28.969   5.848  0.1025  0.1990  0.0673
 6767POPC   C1B81993  12.325  28.649   4.738  0.0479 -0.2708  0.2424
 6767POPC   C2B81994  12.622  28.617   5.110  0.4454 -0.1222  0.0336
 6767POPC   C3B81995  12.755  28.669   5.583 -0.0072  0.0425  0.0749
 6767POPC   C4B81996  12.815  28.647   6.047 -0.3592  0.2233 -0.0258
 6768POPC   NC381997   1.896  17.605   3.182 -0.0882  0.0925  0.4464
 6768POPC   PO481998   1.879  17.497   3.544  0.3295  0.2008 -0.1978
 6768POPC   GL181999   1.727  17.719   3.872 -0.0369  0.3732  0.3981
 6768POPC   GL282000   2.024  17.680   3.972  0.0540 -0.2198  0.2969
 6768POPC   C1A82001   1.603  17.555   4.281 -0.2371  0.0806  0.0776
 6768POPC   D2A82002   1.834  17.639   4.706  0.1239  0.1456  0.3042
 6768POPC   C3A82003   1.532  17.406   4.991 -0.0305  0.3765 -0.0698
 6768POPC   C4A82004   1.320  17.324   5.402 -0.0770  0.0903  0.0881
 6768POPC   C1B82005   2.150  17.449   4.342  0.2584 -0.1673  0.1395
 6768POPC   C2B82006   2.164  17.274   4.771  0.0187 -0.0430 -0.0378
 6768POPC   C3B82007   1.995  17.445   5.136  0.0035 -0.2269 -0.2416
 6768POPC   C4B82008   1.785  17.608   5.465  0.1325 -0.1262 -0.0517
 6769POPC   NC382009   7.090   1.660   3.521 -0.0984 -0.2267 -0.1305
 6769POPC   PO482010   7.071   1.761   3.936 -0.0948  0.3456 -0.1682
 6769POPC   GL182011   6.975   1.993   4.217 -0.3689 -0.0507  0.2026
 6769POPC   GL282012   6.754   2.105   4.185 -0.0182  0.4076 -0.1121
 6769POPC   C1A82013   6.994   1.961   4.675 -0.0241 -0.0574  0.0696
 6769POPC   D2A82014   7.020   2.028   5.166  0.2962 -0.0159 -0.0087
 6769POPC   C3A82015   6.620   1.981   5.401  0.2055  0.1644  0.0828
 6769POPC   C4A82016   6.245   2.177   5.538  0.0835  0.0260  0.1123
 6769POPC   C1B82017   6.737   2.364   4.535  0.0116  0.0062  0.2203
 6769POPC   C2B82018   6.888   2.672   4.848 -0.1376 -0.2183 -0.1773
 6769POPC   C3B82019   7.238   2.845   5.091  0.2504  0.1550  0.3339
 6769POPC   C4B82020   7.450   3.017   5.499  0.0449 -0.0167 -0.0001
 6770POPC   NC382021   0.132  17.155   3.389  0.2643 -0.0555  0.5361
 6770POPC   PO482022   0.466  17.401   3.457 -0.1066 -0.2105  0.0944
 6770POPC   GL182023   0.431  17.336   3.816  0.1848  0.0829 -0.1640
 6770POPC   GL282024   0.421  16.968   3.849 -0.0381 -0.0319  0.1348
 6770POPC   C1A82025   0.380  17.627   4.196  0.2180  0.0085  0.2321
 6770POPC   D2A82026   0.368  17.717   4.673 -0.0250  0.0824  0.0039
 6770POPC   C3A82027   0.499  17.385   4.984 -0.3867  0.0422  0.2437
 6770POPC   C4A82028   0.278  17.095   5.293 -0.0345 -0.4150  0.2609
 6770POPC   C1B82029   0.170  16.760   4.194 -0.4998 -0.2196  0.0183
 6770POPC   C2B82030   0.072  16.571   4.602 -0.3175 -0.0895  0.0997
 6770POPC   C3B82031  -0.129  16.176   4.858  0.2569  0.0439 -0.1586
 6770POPC   C4B82032  -0.287  15.969   5.224 -0.1841 -0.1625  0.0642
 6771POPC   NC382033  21.434  29.837   3.377 -0.0684  0.0223 -0.0433
 6771POPC   PO482034  21.485  29.762   3.763  0.0336  0.3257  0.0829
 6771POPC   GL182035  21.575  29.602   4.147  0.1378  0.0554  0.0170
 6771POPC   GL282036  21.444  29.346   4.126  0.1126 -0.0670 -0.1001
 6771POPC   C1A82037  21.775  29.510   4.552 -0.1687  0.0213 -0.2200
 6771POPC   D2A82038  21.996  29.524   4.963 -0.0177 -0.2298  0.0005
 6771POPC   C3A82039  21.732  29.562   5.325 -0.1559 -0.2316  0.2122
 6771POPC   C4A82040  21.768  29.880   5.635 -0.1525 -0.0933 -0.2477
 6771POPC   C1B82041  21.462  29.150   4.549  0.0884  0.0312  0.0526
 6771POPC   C2B82042  21.738  29.090   4.953  0.0147 -0.0080 -0.1564
 6771POPC   C3B82043  22.000  29.177   5.383 -0.1212  0.3012 -0.0171
 6771POPC   C4B82044  22.223  29.541   5.591 -0.1620 -0.1087 -0.4375
 6772POPC   NC382045   4.772   2.608   3.548  0.0895 -0.1839  0.1060
 6772POPC   PO482046   4.462   2.591   3.761  0.1378 -0.3195 -0.1033
 6772POPC   GL182047   4.365   2.383   4.087 -0.2329  0.0757  0.3606
 6772POPC   GL282048   4.657   2.430   4.198  0.0922 -0.3006 -0.0194
 6772POPC   C1A82049   3.995   2.168   4.235 -0.0946 -0.3931 -0.0364
 6772POPC   D2A82050   3.579   1.984   4.372 -0.0903  0.2744 -0.0670
 6772POPC   C3A82051   3.351   2.142   4.742  0.0465 -0.0240  0.0228
 6772POPC   C4A82052   3.348   2.229   5.170 -0.2452 -0.0752  0.0695
 6772POPC   C1B82053   4.410   2.352   4.593  0.0347 -0.0648 -0.2600
 6772POPC   C2B82054   4.198   2.354   5.006 -0.1366  0.0942 -0.2738
 6772POPC   C3B82055   3.801   2.449   5.204 -0.0565 -0.0334  0.0270
 6772POPC   C4B82056   3.747   2.377   5.645  0.2407  0.1182  0.0893
 6773POPC   NC382057   3.685  27.369   3.313 -0.0923  0.1630 -0.0604
 6773POPC   PO482058   3.681  27.592   3.662 -0.1871  0.0509 -0.2346
 6773POPC   GL182059   3.862  27.649   4.044  0.0148  0.4987 -0.2500
 6773POPC   GL282060   3.511  27.592   4.200 -0.1959 -0.0800  0.0102
 6773POPC   C1A82061   4.013  27.673   4.508 -0.2116 -0.0253  0.2236
 6773POPC   D2A82062   3.911  27.639   4.978 -0.1971  0.0007 -0.5144
 6773POPC   C3A82063   4.178  27.363   5.210  0.0649 -0.2060 -0.0923
 6773POPC   C4A82064   4.423  27.003   5.466  0.2383 -0.1992 -0.1395
 6773POPC   C1B82065   3.277  27.301   4.445  0.3251  0.2262 -0.0615
 6773POPC   C2B82066   3.198  27.311   4.889  0.1430  0.2642  0.1600
 6773POPC   C3B82067   3.107  27.369   5.339  0.2080 -0.1245 -0.3348
 6773POPC   C4B82068   2.838  27.205   5.670 -0.1141 -0.0791 -0.1122
 6774POPC   NC382069  20.775  30.171   3.741 -0.0702  0.2443  0.1225
 6774POPC   PO482070  21.173  30.191   3.709 -0.1281  0.0571  0.2759
 6774POPC   GL182071  21.175  30.292   4.043  0.0868 -0.2565 -0.2347
 6774POPC   GL282072  21.440  30.140   4.158  0.0946  0.1940  0.1507
 6774POPC   C1A82073  21.051  30.179   4.508 -0.2572 -0.2766  0.0017
 6774POPC   D2A82074  21.113  30.254   4.988  0.0493 -0.1038  0.3839
 6774POPC   C3A82075  21.219  30.553   5.292  0.0515 -0.1277  0.1279
 6774POPC   C4A82076  21.544  30.851   5.433 -0.1189 -0.2981 -0.2692
 6774POPC   C1B82077  21.524  30.404   4.552  0.1001 -0.0628  0.0258
 6774POPC   C2B82078  21.630  30.517   4.977  0.1439  0.0587 -0.0704
 6774POPC   C3B82079  21.901  30.307   5.276 -0.1327 -0.0150 -0.0541
 6774POPC   C4B82080  22.312  30.054   5.149  0.2020  0.1195  0.2700
 6775POPC   NC382081  28.948  16.166   2.831 -0.0228  0.2299  0.0151
 6775POPC   PO482082  29.107  16.099   3.203  0.1128 -0.0981 -0.1707
 6775POPC   GL182083  29.135  16.185   3.611 -0.0965  0.1648 -0.2816
 6775POPC   GL282084  28.888  16.105   3.768  0.3341  0.2209  0.2253
 6775POPC   C1A82085  29.524  16.312   3.783 -0.0718  0.2226  0.0814
 6775POPC   D2A82086  29.890  16.262   4.020 -0.2325  0.2036 -0.1263
 6775POPC   C3A82087  29.898  16.406   4.459 -0.0291 -0.0977  0.1579
 6775POPC   C4A82088  29.628  16.194   4.753 -0.0578  0.0348 -0.3453
 6775POPC   C1B82089  28.933  16.147   4.219  0.0284  0.2178  0.3710
 6775POPC   C2B82090  28.767  15.913   4.607  0.0113  0.0067 -0.3217
 6775POPC   C3B82091  28.803  15.981   5.069 -0.3128  0.2310  0.1601
 6775POPC   C4B82092  28.696  15.831   5.502 -0.1780  0.2859 -0.1909
 6776POPC   NC382093  12.957  26.688   3.333 -0.0696 -0.0188  0.2807
 6776POPC   PO482094  12.883  26.339   3.421 -0.1221  0.1542  0.1942
 6776POPC   GL182095  12.966  26.235   3.815 -0.0662 -0.0392  0.0030
 6776POPC   GL282096  13.252  26.263   3.948  0.2992  0.4749 -0.0900
 6776POPC   C1A82097  12.776  26.017   4.243 -0.1666 -0.1407 -0.0365
 6776POPC   D2A82098  12.600  25.991   4.648  0.0544  0.1854 -0.0058
 6776POPC   C3A82099  12.316  25.646   4.782  0.0757  0.0255 -0.1617
 6776POPC   C4A82100  12.364  25.287   5.083 -0.2719 -0.0943  0.2685
 6776POPC   C1B82101  13.298  26.026   4.370 -0.1133  0.3785  0.0450
 6776POPC   C2B82102  13.042  25.929   4.795 -0.0913  0.1240 -0.0486
 6776POPC   C3B82103  13.108  25.992   5.227 -0.0871  0.1022 -0.0765
 6776POPC   C4B82104  12.985  25.645   5.522 -0.3255  0.4473 -0.1391
 6777POPC   NC382105  14.969   2.356   3.814 -0.0557  0.4216 -0.0154
 6777POPC   PO482106  15.085   2.684   3.769 -0.4941  0.2284 -0.0969
 6777POPC   GL182107  15.148   2.903   4.087  0.1263  0.1529  0.0065
 6777POPC   GL282108  15.075   2.689   4.299 -0.0043 -0.0714  0.2216
 6777POPC   C1A82109  15.378   3.115   4.378  0.3356 -0.1073 -0.0185
 6777POPC   D2A82110  15.384   2.887   4.816  0.0625 -0.0132  0.2915
 6777POPC   C3A82111  15.324   3.150   5.213  0.2741 -0.0969 -0.1915
 6777POPC   C4A82112  15.172   3.405   5.528 -0.0683  0.0031 -0.0512
 6777POPC   C1B82113  14.819   2.659   4.672 -0.2020  0.0722  0.1260
 6777POPC   C2B82114  14.905   2.809   5.087  0.1402 -0.2603  0.2626
 6777POPC   C3B82115  14.915   3.012   5.464  0.0015  0.4304 -0.3183
 6777POPC   C4B82116  15.161   2.850   5.817  0.2650 -0.2330  0.4400
 6778POPC   NC382117   8.761  23.595   3.807  0.0321  0.2063  0.0796
 6778POPC   PO482118   8.362  23.607   3.793  0.0559 -0.0027 -0.1252
 6778POPC   GL182119   8.368  23.509   4.169  0.0274  0.0723  0.1098
 6778POPC   GL282120   8.357  23.164   4.236  0.0802  0.2711  0.0965
 6778POPC   C1A82121   8.449  23.529   4.591 -0.2152  0.1487  0.4217
 6778POPC   D2A82122   8.561  23.209   4.907  0.1189  0.1569  0.3975
 6778POPC   C3A82123   8.498  23.417   5.293  0.3039 -0.2002  0.2855
 6778POPC   C4A82124   8.361  23.342   5.711 -0.0275 -0.0302  0.3707
 6778POPC   C1B82125   8.578  22.805   4.333  0.1321 -0.2051 -0.0355
 6778POPC   C2B82126   8.765  22.419   4.471  0.0644 -0.3028 -0.0052
 6778POPC   C3B82127   9.151  22.372   4.699  0.0493  0.0805  0.3403
 6778POPC   C4B82128   9.540  22.101   4.637  0.1692  0.0986  0.3174
 6779POPC   NC382129  12.281   8.498   3.545  0.0982 -0.2133  0.1343
 6779POPC   PO482130  12.059   8.274   3.791  0.0844  0.0754 -0.0563
 6779POPC   GL182131  11.883   8.231   4.177 -0.1812 -0.0262  0.3354
 6779POPC   GL282132  11.920   8.518   4.218 -0.1724 -0.2102  0.2665
 6779POPC   C1A82133  11.977   8.209   4.627  0.1502  0.2257 -0.0489
 6779POPC   D2A82134  12.124   7.941   4.940 -0.0660 -0.1139  0.3184
 6779POPC   C3A82135  12.236   7.977   5.373 -0.0384  0.3295  0.0196
 6779POPC   C4A82136  11.960   8.090   5.774 -0.0706  0.3700 -0.1135
 6779POPC   C1B82137  11.884   8.745   4.594  0.0275 -0.2480  0.1619
 6779POPC   C2B82138  12.007   9.040   4.894  0.1151 -0.2560 -0.1307
 6779POPC   C3B82139  12.076   8.903   5.334 -0.4642 -0.4443  0.4134
 6779POPC   C4B82140  12.195   8.959   5.780  0.3152  0.0621 -0.3059
 6780POPC   NC382141  27.576   7.578   3.855  0.2609  0.2807  0.1511
 6780POPC   PO482142  27.942   7.428   3.773  0.2134  0.0105 -0.0614
 6780POPC   GL182143  28.016   7.586   4.154 -0.0450 -0.0826  0.1936
 6780POPC   GL282144  27.799   7.734   4.281  0.0893 -0.2735 -0.2591
 6780POPC   C1A82145  28.331   7.381   4.422  0.0461 -0.1235  0.1933
 6780POPC   D2A82146  28.438   7.394   4.874  0.2136 -0.0219 -0.1385
 6780POPC   C3A82147  28.718   7.200   5.165 -0.3054  0.0353 -0.0586
 6780POPC   C4A82148  29.164   7.069   5.262  0.1443  0.1337 -0.0838
 6780POPC   C1B82149  27.913   7.511   4.663  0.3124 -0.0529 -0.0145
 6780POPC   C2B82150  27.871   7.564   5.136 -0.1793 -0.0900 -0.1109
 6780POPC   C3B82151  27.991   7.636   5.580  0.0190  0.0085  0.2009
 6780POPC   C4B82152  28.259   7.565   5.957 -0.0452 -0.4104  0.0210
 6781POPC   NC382153  11.875  21.047   3.386  0.0675  0.0171  0.1478
 6781POPC   PO482154  11.785  20.654   3.430 -0.2018  0.0493  0.0119
 6781POPC   GL182155  11.873  20.693   3.810  0.0573  0.1779 -0.2343
 6781POPC   GL282156  12.008  20.991   3.839  0.3279  0.1804  0.2670
 6781POPC   C1A82157  12.033  20.591   4.241 -0.0700 -0.2746  0.3685
 6781POPC   D2A82158  12.034  20.657   4.737 -0.1515  0.2715 -0.1358
 6781POPC   C3A82159  11.817  20.464   5.084 -0.0735  0.2946  0.0365
 6781POPC   C4A82160  11.605  20.272   5.426 -0.2465  0.0398  0.1562
 6781POPC   C1B82161  11.715  20.978   4.216 -0.2034 -0.1240  0.4404
 6781POPC   C2B82162  11.563  20.688   4.541  0.2066  0.0255 -0.1968
 6781POPC   C3B82163  11.370  20.462   4.943  0.2861 -0.0292  0.0954
 6781POPC   C4B82164  11.077  20.296   5.254 -0.0015  0.0893 -0.2450
 6782POPC   NC382165  20.901  31.337   3.756 -0.0787  0.2367  0.0107
 6782POPC   PO482166  20.662  31.113   3.485 -0.1090 -0.0814 -0.2645
 6782POPC   GL182167  20.510  31.101   3.855 -0.1677 -0.0296  0.0872
 6782POPC   GL282168  20.205  31.176   4.040 -0.0309 -0.0548  0.1157
 6782POPC   C1A82169  20.723  31.019   4.220  0.2329 -0.0108 -0.0737
 6782POPC   D2A82170  20.802  31.142   4.686 -0.2436  0.2603 -0.0728
 6782POPC   C3A82171  20.603  31.169   5.101 -0.1546  0.4431 -0.1471
 6782POPC   C4A82172  20.636  31.404   5.489  0.0383 -0.1778 -0.0922
 6782POPC   C1B82173  20.379  31.291   4.504 -0.2629 -0.1922  0.0214
 6782POPC   C2B82174  20.554  31.574   4.805  0.1702 -0.1885 -0.0372
 6782POPC   C3B82175  20.550  31.926   5.128 -0.1087  0.2450  0.1396
 6782POPC   C4B82176  20.694  32.362   5.187  0.2197  0.2190 -0.3199
 6783POPC   NC382177  31.174   7.951   3.629  0.0953 -0.1990 -0.0576
 6783POPC   PO482178  31.042   7.568   3.682  0.0245 -0.0549 -0.3227
 6783POPC   GL182179  30.901   7.709   4.084  0.2973  0.0601 -0.2368
 6783POPC   GL282180  31.130   7.788   4.143 -0.0091 -0.2117  0.0482
 6783POPC   C1A82181  30.750   7.670   4.485  0.1037  0.2750  0.1188
 6783POPC   D2A82182  30.930   7.600   4.920 -0.1114  0.0058 -0.0885
 6783POPC   C3A82183  30.835   7.694   5.374 -0.1174  0.0968 -0.0282
 6783POPC   C4A82184  30.764   7.518   5.774 -0.3319 -0.2271 -0.1699
 6783POPC   C1B82185  31.254   7.851   4.599 -0.1795  0.1173  0.4249
 6783POPC   C2B82186  31.447   7.754   5.034 -0.2871  0.0599 -0.0092
 6783POPC   C3B82187  31.693   7.699   5.417 -0.1092 -0.0788 -0.2544
 6783POPC   C4B82188  31.729   7.319   5.650 -0.1873 -0.0614  0.1288
 6784POPC   NC382189   9.287   3.258   3.543 -0.2362 -0.1913  0.0768
 6784POPC   PO482190   9.244   3.671   3.407  0.0937  0.0313  0.1642
 6784POPC   GL182191   9.233   3.608   3.814  0.3117 -0.1837  0.1235
 6784POPC   GL282192   9.413   3.828   3.859 -0.0218  0.0958 -0.0255
 6784POPC   C1A82193   8.890   3.411   4.125  0.1705 -0.0741  0.0972
 6784POPC   D2A82194   8.642   3.469   4.501 -0.0134 -0.2094  0.0145
 6784POPC   C3A82195   8.645   3.643   4.898 -0.4520  0.1047 -0.0221
 6784POPC   C4A82196   8.831   3.589   5.329 -0.1292 -0.0711 -0.0358
 6784POPC   C1B82197   9.070   3.868   4.184 -0.0200 -0.0899  0.1032
 6784POPC   C2B82198   9.103   3.645   4.613  0.0929 -0.0126 -0.0599
 6784POPC   C3B82199   9.274   3.626   5.065  0.0797  0.2139 -0.0711
 6784POPC   C4B82200   9.442   3.966   5.323  0.2379  0.0532 -0.1679
 6785POPC   NC382201  18.283   7.671   3.905  0.1486 -0.1205 -0.1920
 6785POPC   PO482202  18.415   7.372   4.117 -0.0467 -0.1544 -0.1393
 6785POPC   GL182203  18.371   7.508   4.446  0.3022  0.4760 -0.1244
 6785POPC   GL282204  18.115   7.379   4.575  0.2248 -0.1770 -0.2063
 6785POPC   C1A82205  18.573   7.218   4.726  0.1180 -0.0820  0.1483
 6785POPC   D2A82206  18.748   7.145   5.149 -0.5514  0.0395 -0.2804
 6785POPC   C3A82207  18.747   7.430   5.546 -0.1778 -0.1768  0.0613
 6785POPC   C4A82208  18.535   7.835   5.736 -0.1372 -0.1552 -0.0202
 6785POPC   C1B82209  17.858   7.099   4.867  0.0007  0.0936  0.3198
 6785POPC   C2B82210  17.855   6.779   5.195 -0.2493  0.0066  0.1256
 6785POPC   C3B82211  17.832   6.690   5.671  0.1593  0.0874  0.1790
 6785POPC   C4B82212  17.961   6.780   6.124  0.1620  0.1116  0.1026
 6786POPC   NC382213   4.096  21.212   3.214  0.1610 -0.3426 -0.1201
 6786POPC   PO482214   4.084  21.473   3.511 -0.0909 -0.0463  0.3791
 6786POPC   GL182215   3.954  21.296   3.872  0.1818 -0.5400 -0.0480
 6786POPC   GL282216   4.210  21.212   3.909 -0.0978  0.1739 -0.2637
 6786POPC   C1A82217   3.907  21.460   4.307  0.1574  0.0531  0.0174
 6786POPC   D2A82218   4.122  21.462   4.667  0.1125  0.1056  0.1701
 6786POPC   C3A82219   4.223  21.795   4.969 -0.1801 -0.0569 -0.0861
 6786POPC   C4A82220   4.072  22.008   5.387 -0.1695 -0.2347 -0.0719
 6786POPC   C1B82221   4.353  21.062   4.325  0.2105 -0.0287 -0.0436
 6786POPC   C2B82222   4.523  21.146   4.735  0.0614  0.0812  0.3925
 6786POPC   C3B82223   4.396  21.350   5.175  0.2158  0.0362  0.0001
 6786POPC   C4B82224   4.084  21.547   5.465 -0.3431  0.0689 -0.4323
 6787POPC   NC382225   9.269   5.967   3.943  0.1582  0.0171 -0.0785
 6787POPC   PO482226   9.164   6.243   3.703 -0.0831  0.0992  0.0570
 6787POPC   GL182227   9.094   6.559   4.080  0.2495  0.4251  0.0498
 6787POPC   GL282228   9.344   6.451   4.127  0.1263 -0.3568  0.1789
 6787POPC   C1A82229   8.978   6.570   4.517  0.1104 -0.1587 -0.2110
 6787POPC   D2A82230   8.597   6.887   4.617  0.0951  0.1698  0.2686
 6787POPC   C3A82231   8.390   6.817   5.036 -0.4569 -0.0054 -0.1365
 6787POPC   C4A82232   8.393   6.584   5.342 -0.0738 -0.0689  0.1139
 6787POPC   C1B82233   9.461   6.106   4.440  0.3222 -0.0532 -0.0024
 6787POPC   C2B82234   9.733   6.104   4.825  0.0242  0.3691 -0.2453
 6787POPC   C3B82235   9.791   6.063   5.297 -0.1808 -0.0954 -0.0600
 6787POPC   C4B82236   9.604   5.991   5.722  0.0856  0.3803 -0.2548
 6788POPC   NC382237  13.693   6.815   3.413  0.0446  0.1202 -0.1238
 6788POPC   PO482238  13.301   6.782   3.368 -0.2614 -0.5208  0.0082
 6788POPC   GL182239  13.228   6.687   3.758  0.1115  0.0089 -0.2171
 6788POPC   GL282240  13.491   6.584   3.855  0.1108 -0.0420 -0.0867
 6788POPC   C1A82241  12.980   6.646   4.132 -0.2271 -0.0340  0.0853
 6788POPC   D2A82242  13.059   6.561   4.577 -0.1669  0.0425 -0.3374
 6788POPC   C3A82243  13.326   6.582   4.937  0.2219 -0.0951  0.1728
 6788POPC   C4A82244  13.524   6.440   5.326 -0.1729 -0.0720 -0.0781
 6788POPC   C1B82245  13.292   6.243   4.199 -0.2908  0.1688 -0.0720
 6788POPC   C2B82246  13.479   5.813   4.455 -0.3786 -0.0940  0.2189
 6788POPC   C3B82247  13.637   5.489   4.750 -0.3009  0.0173 -0.1828
 6788POPC   C4B82248  13.714   5.344   5.202 -0.0157 -0.1704  0.1494
 6789POPC   NC382249  23.266  23.643   3.538 -0.0751 -0.0111 -0.2201
 6789POPC   PO482250  23.077  23.893   3.320  0.1472  0.1551 -0.2963
 6789POPC   GL182251  22.832  23.962   3.588 -0.0017  0.0257  0.3037
 6789POPC   GL282252  22.690  24.312   3.539  0.0120  0.3754  0.1458
 6789POPC   C1A82253  23.025  23.988   4.006  0.1942 -0.1683  0.2476
 6789POPC   D2A82254  23.292  24.019   4.414 -0.0392  0.1250  0.0844
 6789POPC   C3A82255  23.103  24.133   4.810 -0.2837  0.0836  0.1433
 6789POPC   C4A82256  22.846  24.472   4.993  0.0570 -0.2188 -0.3944
 6789POPC   C1B82257  22.830  24.458   3.942 -0.3549 -0.0400  0.1594
 6789POPC   C2B82258  22.839  24.344   4.401 -0.4754 -0.1238 -0.0735
 6789POPC   C3B82259  22.694  23.961   4.620  0.0138 -0.2181  0.2365
 6789POPC   C4B82260  22.319  23.787   4.738  0.0687 -0.1638 -0.2566
 6790POPC   NC382261  26.261  28.185   4.073  0.0469 -0.3335  0.3215
 6790POPC   PO482262  26.594  28.049   3.841  0.0726  0.0902  0.0290
 6790POPC   GL182263  26.828  27.990   4.189 -0.3189 -0.0545  0.3120
 6790POPC   GL282264  26.746  28.203   4.355  0.2731 -0.1905 -0.0068
 6790POPC   C1A82265  26.602  27.774   4.538 -0.0873  0.3041  0.1196
 6790POPC   D2A82266  26.796  27.706   4.959  0.0716  0.4042 -0.1475
 6790POPC   C3A82267  27.121  27.836   5.260 -0.0038 -0.0087 -0.0936
 6790POPC   C4A82268  27.531  27.779   5.437  0.3312 -0.1183  0.0931
 6790POPC   C1B82269  26.986  28.543   4.505  0.0029  0.1021 -0.1120
 6790POPC   C2B82270  27.216  28.832   4.800  0.0590 -0.1639  0.0004
 6790POPC   C3B82271  27.378  28.827   5.207  0.0360  0.1279 -0.0666
 6790POPC   C4B82272  27.093  28.984   5.550 -0.2881  0.0072  0.0934
 6791POPC   NC382273  17.839  26.855   4.019  0.2902 -0.1975 -0.1936
 6791POPC   PO482274  17.670  26.924   3.655  0.2573 -0.2071 -0.1942
 6791POPC   GL182275  17.446  27.182   4.010 -0.2052 -0.2927 -0.2026
 6791POPC   GL282276  17.393  27.432   3.904  0.2756 -0.0807 -0.0560
 6791POPC   C1A82277  16.982  27.141   4.149  0.3706  0.2125 -0.1441
 6791POPC   D2A82278  16.608  27.041   3.920  0.1723 -0.1438 -0.2806
 6791POPC   C3A82279  16.420  27.440   3.683  0.0875 -0.1031  0.0434
 6791POPC   C4A82280  16.344  27.929   3.532  0.2189  0.1737  0.0486
 6791POPC   C1B82281  17.294  27.475   4.365 -0.0373  0.1693 -0.1015
 6791POPC   C2B82282  16.992  27.344   4.680  0.0561  0.2778 -0.0030
 6791POPC   C3B82283  16.776  27.354   5.073  0.2575 -0.0165 -0.0612
 6791POPC   C4B82284  16.556  27.134   5.437 -0.0345 -0.1391 -0.0128
 6792POPC   NC382285   7.865   2.869   3.258 -0.1071  0.3559  0.3297
 6792POPC   PO482286   7.521   2.970   3.402 -0.3161  0.0021  0.0408
 6792POPC   GL182287   7.714   3.172   3.679  0.1278 -0.0380 -0.1633
 6792POPC   GL282288   7.574   3.402   3.743  0.0340 -0.4560 -0.1192
 6792POPC   C1A82289   7.784   3.088   4.157 -0.0824  0.0630  0.1320
 6792POPC   D2A82290   7.851   3.365   4.575 -0.0962 -0.2424  0.0570
 6792POPC   C3A82291   7.543   3.441   4.947  0.0433  0.0404 -0.0407
 6792POPC   C4A82292   7.088   3.420   5.124  0.1386 -0.0668 -0.2130
 6792POPC   C1B82293   8.049   3.386   3.908  0.2274  0.1553  0.2107
 6792POPC   C2B82294   8.309   3.157   4.247 -0.0885  0.4007  0.0590
 6792POPC   C3B82295   8.294   3.222   4.700 -0.2357 -0.0501 -0.1707
 6792POPC   C4B82296   8.287   3.162   5.177  0.0970 -0.0768  0.2563
 6793POPC   NC382297  10.250  23.877   3.957  0.0551 -0.0585  0.0481
 6793POPC   PO482298  10.548  23.712   4.113 -0.0584  0.0841  0.0998
 6793POPC   GL182299  10.457  23.802   4.510 -0.0111 -0.0795 -0.0503
 6793POPC   GL282300  10.415  23.543   4.633 -0.1165  0.0044  0.0748
 6793POPC   C1A82301  10.344  24.080   4.855  0.2629 -0.3070 -0.0320
 6793POPC   D2A82302  10.422  24.358   5.205  0.1609 -0.0838 -0.0518
 6793POPC   C3A82303   9.989  24.320   5.333 -0.3565 -0.2916  0.0374
 6793POPC   C4A82304   9.939  23.895   5.499 -0.0741  0.0414 -0.1603
 6793POPC   C1B82305  10.272  23.157   4.805  0.0326 -0.1029  0.0148
 6793POPC   C2B82306  10.445  22.847   5.131 -0.0693 -0.0937 -0.1336
 6793POPC   C3B82307  10.411  22.554   5.523  0.0943 -0.1012 -0.1265
 6793POPC   C4B82308  10.106  22.483   5.824  0.2462  0.4438 -0.0398
 6794POPC   NC382309  25.808  21.291   4.080  0.2046  0.2590 -0.1109
 6794POPC   PO482310  25.618  20.988   4.195 -0.0439 -0.3611  0.2129
 6794POPC   GL182311  25.818  20.994   4.519  0.1707  0.1168 -0.1767
 6794POPC   GL282312  25.803  21.168   4.655 -0.3035 -0.2125  0.0945
 6794POPC   C1A82313  26.196  20.797   4.795 -0.3494  0.4735  0.0164
 6794POPC   D2A82314  26.339  20.795   5.251  0.2575 -0.2033  0.0734
 6794POPC   C3A82315  26.563  20.377   5.229 -0.0149  0.1374 -0.0795
 6794POPC   C4A82316  26.636  19.954   5.103  0.0610 -0.1734  0.0261
 6794POPC   C1B82317  25.866  21.131   5.128 -0.3985 -0.0762 -0.4222
 6794POPC   C2B82318  25.927  21.180   5.563  0.0853 -0.2320 -0.1102
 6794POPC   C3B82319  26.263  21.145   5.920  0.1055  0.1869 -0.0085
 6794POPC   C4B82320  26.500  21.028   6.249 -0.4472 -0.0513  0.0471
 6795POPC   NC382321  21.853  20.631   3.775  0.2458  0.2244  0.0918
 6795POPC   PO482322  21.667  20.950   3.676  0.1166 -0.1314  0.1171
 6795POPC   GL182323  21.647  21.124   4.077  0.3619 -0.3235  0.1748
 6795POPC   GL282324  21.555  20.840   4.206 -0.0247  0.3428  0.3293
 6795POPC   C1A82325  21.510  21.264   4.500 -0.1345  0.5078 -0.4214
 6795POPC   D2A82326  21.468  21.167   4.965  0.1936 -0.2960 -0.3297
 6795POPC   C3A82327  21.678  20.804   5.056 -0.4163 -0.3186 -0.1551
 6795POPC   C4A82328  21.704  20.373   5.228  0.0174 -0.1338  0.0382
 6795POPC   C1B82329  21.797  20.855   4.567  0.0910 -0.1267 -0.0341
 6795POPC   C2B82330  22.154  20.851   4.859  0.0483  0.0631 -0.4425
 6795POPC   C3B82331  22.189  20.704   5.309 -0.0726  0.0890  0.0326
 6795POPC   C4B82332  22.483  20.542   5.599  0.0492  0.1103 -0.1598
 6796POPC   NC382333   4.422  30.474   3.424  0.1741 -0.2808 -0.1054
 6796POPC   PO482334   4.157  30.747   3.665  0.1089  0.1532 -0.2345
 6796POPC   GL182335   4.071  30.696   4.034  0.1210  0.0761 -0.0271
 6796POPC   GL282336   3.811  30.651   4.219  0.2289 -0.0590  0.1742
 6796POPC   C1A82337   4.253  30.468   4.402 -0.0081  0.0677 -0.2972
 6796POPC   D2A82338   4.463  30.297   4.800  0.0847  0.2163  0.0434
 6796POPC   C3A82339   4.627  30.204   5.233  0.2076 -0.1002  0.1043
 6796POPC   C4A82340   4.887  30.027   5.627  0.0302  0.1929 -0.1178
 6796POPC   C1B82341   4.134  30.931   4.456 -0.4999  0.2010 -0.0428
 6796POPC   C2B82342   4.219  31.103   4.835 -0.2682 -0.2315 -0.2157
 6796POPC   C3B82343   4.244  31.286   5.283 -0.0646  0.0229  0.1525
 6796POPC   C4B82344   4.359  31.183   5.687  0.1058  0.1237 -0.1844
 6797POPC   NC382345  12.124   8.981   3.533 -0.0723 -0.0043 -0.3040
 6797POPC   PO482346  11.968   8.812   3.842 -0.1147  0.1170 -0.0301
 6797POPC   GL182347  12.324   8.785   4.111 -0.0877 -0.0676 -0.0608
 6797POPC   GL282348  12.416   8.527   4.088 -0.1451  0.3178 -0.0257
 6797POPC   C1A82349  12.409   8.976   4.525 -0.0351  0.3236  0.2550
 6797POPC   D2A82350  12.473   9.063   4.972 -0.3447  0.1385  0.0078
 6797POPC   C3A82351  12.321   9.311   5.352  0.0463  0.1661  0.0722
 6797POPC   C4A82352  12.162   9.642   5.580 -0.0428 -0.0240  0.3394
 6797POPC   C1B82353  12.366   8.507   4.544  0.3064 -0.1188 -0.0840
 6797POPC   C2B82354  12.139   8.513   4.959  0.0502 -0.0186 -0.1506
 6797POPC   C3B82355  11.827   8.259   5.199 -0.3169  0.1072 -0.2787
 6797POPC   C4B82356  11.740   7.849   5.413  0.2307  0.1442  0.2303
 6798POPC   NC382357   3.844  30.331   3.803 -0.4049  0.1935  0.0302
 6798POPC   PO482358   3.745  30.063   3.528  0.1300  0.2173 -0.0267
 6798POPC   GL182359   3.987  29.897   3.798 -0.0683  0.0716 -0.0525
 6798POPC   GL282360   4.189  29.733   3.679 -0.0051  0.2394 -0.2865
 6798POPC   C1A82361   4.000  30.078   4.235  0.2792 -0.0171 -0.0741
 6798POPC   D2A82362   3.929  30.214   4.718  0.1662 -0.1271 -0.2643
 6798POPC   C3A82363   3.952  30.660   4.804 -0.0433 -0.2437  0.2261
 6798POPC   C4A82364   3.726  31.055   4.733  0.0321  0.2478  0.1680
 6798POPC   C1B82365   4.390  29.837   4.107 -0.1654  0.3608 -0.0840
 6798POPC   C2B82366   4.288  29.817   4.579  0.0590  0.0868  0.0314
 6798POPC   C3B82367   4.185  29.879   4.998 -0.0094  0.0824 -0.2819
 6798POPC   C4B82368   4.007  29.958   5.438  0.0457  0.1955 -0.2562
 6799POPC   NC382369   4.041  25.834   3.634 -0.4189 -0.1582 -0.0838
 6799POPC   PO482370   3.724  25.615   3.673 -0.1812  0.0252 -0.2223
 6799POPC   GL182371   3.604  25.426   4.047  0.1724 -0.1016  0.0329
 6799POPC   GL282372   3.892  25.289   4.103  0.2506  0.1861  0.1473
 6799POPC   C1A82373   3.509  25.026   4.300 -0.3836 -0.1123 -0.0532
 6799POPC   D2A82374   3.614  24.895   4.716 -0.0314  0.0269  0.1023
 6799POPC   C3A82375   3.533  25.076   5.126 -0.0114  0.0922 -0.1283
 6799POPC   C4A82376   3.550  25.041   5.597 -0.1264 -0.1642  0.2330
 6799POPC   C1B82377   3.903  25.263   4.545  0.0631  0.0155  0.0810
 6799POPC   C2B82378   3.956  25.215   4.973  0.0181 -0.5748  0.2578
 6799POPC   C3B82379   4.066  25.066   5.417  0.0284  0.1587 -0.0273
 6799POPC   C4B82380   4.435  24.837   5.617  0.3585  0.0194 -0.2902
 6800POPC   NC382381  26.062  20.382   3.615 -0.0025  0.1747 -0.3283
 6800POPC   PO482382  26.203  20.001   3.684  0.2883 -0.0142 -0.0715
 6800POPC   GL182383  26.087  19.834   3.995 -0.2175 -0.0221 -0.2657
 6800POPC   GL282384  25.817  19.842   4.003  0.1908  0.0509  0.1236
 6800POPC   C1A82385  26.331  19.743   4.359  0.2493  0.0258  0.0881
 6800POPC   D2A82386  26.263  19.775   4.815  0.2823 -0.2783 -0.0350
 6800POPC   C3A82387  26.301  19.465   5.103  0.1364 -0.0163 -0.2502
 6800POPC   C4A82388  26.172  19.355   5.515 -0.0392 -0.1793  0.2577
 6800POPC   C1B82389  25.856  19.661   4.491  0.0488 -0.2304  0.2067
 6800POPC   C2B82390  25.838  19.417   4.857  0.0239  0.1259 -0.2092
 6800POPC   C3B82391  25.784  19.188   5.251 -0.1632  0.2908  0.1198
 6800POPC   C4B82392  25.534  19.218   5.624  0.1120 -0.0556  0.1275
 6801POPC   NC382393   4.228   8.806   3.988  0.0022 -0.0600  0.0258
 6801POPC   PO482394   4.286   8.459   3.837  0.4445  0.0990 -0.1542
 6801POPC   GL182395   4.371   8.344   4.212 -0.4389  0.1403  0.1944
 6801POPC   GL282396   4.639   8.444   4.257 -0.1660  0.0912  0.1629
 6801POPC   C1A82397   4.247   8.090   4.591  0.1367  0.1264 -0.1299
 6801POPC   D2A82398   4.060   7.896   4.953  0.0316 -0.1612 -0.2026
 6801POPC   C3A82399   3.895   8.067   5.357 -0.2789 -0.0489 -0.2012
 6801POPC   C4A82400   3.921   8.078   5.786  0.4414 -0.0703  0.1092
 6801POPC   C1B82401   4.826   8.648   4.650  0.0592  0.0341 -0.0482
 6801POPC   C2B82402   4.851   8.805   5.052  0.0994  0.0453  0.1604
 6801POPC   C3B82403   4.975   9.083   5.375 -0.0904  0.0913  0.0106
 6801POPC   C4B82404   4.698   9.313   5.653  0.0842  0.0455  0.2908
 6802POPC   NC382405   1.470  24.182   3.378 -0.0338 -0.0693  0.1845
 6802POPC   PO482406   1.883  24.160   3.416  0.0715 -0.1160 -0.0545
 6802POPC   GL182407   1.741  23.967   3.704 -0.2802  0.1778  0.0921
 6802POPC   GL282408   1.558  24.217   3.896 -0.1976 -0.0626  0.3229
 6802POPC   C1A82409   1.940  23.701   4.025  0.2792  0.1686  0.0899
 6802POPC   D2A82410   1.853  23.901   4.458 -0.0369 -0.0734  0.0636
 6802POPC   C3A82411   1.960  23.719   4.874 -0.0008  0.0892 -0.1077
 6802POPC   C4A82412   1.899  23.573   5.280 -0.1750 -0.1584  0.3655
 6802POPC   C1B82413   1.618  24.351   4.293  0.0999  0.0479 -0.1397
 6802POPC   C2B82414   1.839  24.363   4.677  0.2135  0.1634  0.0771
 6802POPC   C3B82415   1.914  24.207   5.053  0.1092  0.1142  0.1354
 6802POPC   C4B82416   1.801  24.094   5.487 -0.1430 -0.1152 -0.0156
 6803POPC   NC382417  15.180   6.126   3.723 -0.1833 -0.1944  0.0031
 6803POPC   PO482418  15.433   6.443   3.651 -0.0294  0.2344 -0.0451
 6803POPC   GL182419  15.535   6.258   4.015 -0.1565  0.2400 -0.1215
 6803POPC   GL282420  15.651   6.049   3.881  0.4531 -0.0652 -0.3483
 6803POPC   C1A82421  15.922   6.243   4.323  0.1005  0.1121  0.0383
 6803POPC   D2A82422  16.347   6.049   4.274  0.0136 -0.3351 -0.1412
 6803POPC   C3A82423  16.585   5.970   4.606  0.1287 -0.0915  0.1987
 6803POPC   C4A82424  16.545   5.624   4.949 -0.1565  0.0620  0.0686
 6803POPC   C1B82425  15.713   5.690   4.123  0.3070 -0.2076  0.0919
 6803POPC   C2B82426  15.992   5.700   4.482  0.0460  0.2244  0.1164
 6803POPC   C3B82427  16.078   5.585   4.924  0.2057 -0.3101 -0.0453
 6803POPC   C4B82428  15.907   5.527   5.345  0.1271  0.4301 -0.2102
 6804POPC   NC382429  18.704   4.238   3.071 -0.1585  0.0835  0.2168
 6804POPC   PO482430  18.845   3.847   3.136  0.0307  0.1744 -0.0060
 6804POPC   GL182431  18.701   3.997   3.518 -0.1981  0.0391 -0.5511
 6804POPC   GL282432  18.967   3.904   3.627  0.0377  0.1196  0.4815
 6804POPC   C1A82433  18.714   4.272   3.910 -0.3945 -0.0514 -0.0489
 6804POPC   D2A82434  18.577   4.629   4.137 -0.2463  0.0233  0.5914
 6804POPC   C3A82435  18.296   4.791   4.471  0.0264  0.0779  0.1532
 6804POPC   C4A82436  17.853   4.915   4.648  0.1746 -0.0366 -0.1204
 6804POPC   C1B82437  18.994   3.834   4.062 -0.2044  0.1284 -0.1432
 6804POPC   C2B82438  19.091   3.901   4.566 -0.0486  0.0082  0.0962
 6804POPC   C3B82439  19.055   3.831   5.056  0.1855  0.1492 -0.0511
 6804POPC   C4B82440  19.023   4.096   5.429  0.2712 -0.0958  0.2375
 6805POPC   NC382441  18.008  17.465   3.555 -0.0796 -0.4362  0.1143
 6805POPC   PO482442  18.248  17.208   3.733  0.0463 -0.1797  0.2362
 6805POPC   GL182443  18.233  17.465   3.962  0.1212  0.2632 -0.1423
 6805POPC   GL282444  18.422  17.605   4.117 -0.0349 -0.2921 -0.1765
 6805POPC   C1A82445  17.963  17.378   4.370 -0.1358  0.1341 -0.4067
 6805POPC   D2A82446  18.133  17.074   4.638 -0.2078  0.0614  0.1608
 6805POPC   C3A82447  18.436  17.257   4.861 -0.0975  0.1173  0.1929
 6805POPC   C4A82448  18.884  17.329   4.864  0.4562  0.1342 -0.0767
 6805POPC   C1B82449  18.594  17.613   4.564  0.0889  0.1093 -0.1507
 6805POPC   C2B82450  18.951  17.818   4.832 -0.1275 -0.0109 -0.1725
 6805POPC   C3B82451  18.984  17.876   5.244 -0.1075  0.0579 -0.2382
 6805POPC   C4B82452  18.864  18.105   5.613 -0.0959 -0.2178 -0.1194
 6806POPC   NC382453  30.530  14.913   3.826  0.1953  0.4115  0.0385
 6806POPC   PO482454  30.443  15.192   3.555 -0.0871 -0.2031  0.0286
 6806POPC   GL182455  30.373  15.335   3.934  0.0792  0.1290  0.4628
 6806POPC   GL282456  30.633  15.399   4.042 -0.3940  0.2784 -0.0679
 6806POPC   C1A82457  30.376  15.162   4.390  0.2545  0.0648 -0.0054
 6806POPC   D2A82458  30.466  15.068   4.859 -0.0118 -0.0635  0.0845
 6806POPC   C3A82459  30.279  14.758   5.173 -0.0260 -0.0172  0.0275
 6806POPC   C4A82460  29.963  14.803   5.537 -0.2691 -0.0072  0.1365
 6806POPC   C1B82461  30.755  15.770   4.315  0.0185  0.2066  0.0184
 6806POPC   C2B82462  30.757  16.158   4.551 -0.2992 -0.1518 -0.0124
 6806POPC   C3B82463  30.653  16.296   4.987  0.2286 -0.1088  0.0309
 6806POPC   C4B82464  30.549  16.207   5.410 -0.0188  0.0114 -0.2090
 6807POPC   NC382465  24.020   1.875   3.996 -0.0713 -0.3117  0.1468
 6807POPC   PO482466  23.708   1.994   3.795 -0.0291 -0.2941  0.1554
 6807POPC   GL182467  23.563   2.035   4.149  0.0226 -0.3141 -0.0669
 6807POPC   GL282468  23.788   2.221   4.272 -0.0840  0.2951 -0.1426
 6807POPC   C1A82469  23.453   1.974   4.597  0.2901  0.1745 -0.1196
 6807POPC   D2A82470  23.376   1.860   5.072 -0.5194 -0.0310  0.0452
 6807POPC   C3A82471  23.590   1.847   5.499  0.1294 -0.1224 -0.3053
 6807POPC   C4A82472  23.654   2.057   5.892  0.1325  0.1378 -0.1255
 6807POPC   C1B82473  23.887   2.174   4.709 -0.1833  0.0745 -0.0360
 6807POPC   C2B82474  23.852   2.108   5.131 -0.2164  0.3601 -0.1060
 6807POPC   C3B82475  24.049   1.963   5.552 -0.0268 -0.1933 -0.1556
 6807POPC   C4B82476  24.084   1.619   5.773 -0.1328  0.3522 -0.2866
 6808POPC   NC382477  20.080  10.138   3.955  0.1749  0.1349  0.0832
 6808POPC   PO482478  19.733  10.065   3.768  0.2410 -0.0971 -0.1951
 6808POPC   GL182479  19.513  10.232   4.047  0.0241  0.0529  0.2392
 6808POPC   GL282480  19.233  10.214   3.919 -0.1272 -0.0811  0.1519
 6808POPC   C1A82481  19.790  10.177   4.456 -0.3431  0.0624 -0.1629
 6808POPC   D2A82482  20.313  10.139   4.537  0.0393  0.1669 -0.1374
 6808POPC   C3A82483  20.598  10.255   4.953 -0.1048  0.0951 -0.2557
 6808POPC   C4A82484  20.869  10.396   5.326 -0.1514  0.3991  0.1075
 6808POPC   C1B82485  19.194  10.270   4.444 -0.0287 -0.0043  0.1351
 6808POPC   C2B82486  18.999  10.321   4.859  0.0822  0.1799 -0.0090
 6808POPC   C3B82487  18.903  10.313   5.323 -0.2082  0.0377  0.0764
 6808POPC   C4B82488  18.830  10.416   5.731  0.0715  0.0601 -0.0708
 6809POPC   NC382489  15.303  22.916   3.528  0.0932  0.2174 -0.2110
 6809POPC   PO482490  15.139  23.273   3.649  0.3669 -0.0947  0.1657
 6809POPC   GL182491  15.299  23.252   3.962 -0.0996 -0.0459  0.4337
 6809POPC   GL282492  15.114  23.465   4.130 -0.3059  0.2050  0.0664
 6809POPC   C1A82493  15.344  22.855   4.151 -0.0085 -0.2672 -0.1389
 6809POPC   D2A82494  15.279  22.473   4.339  0.2304  0.3915 -0.0550
 6809POPC   C3A82495  15.306  22.400   4.786  0.1730  0.0807 -0.1124
 6809POPC   C4A82496  15.219  22.233   5.218  0.1074  0.0517  0.0919
 6809POPC   C1B82497  15.099  23.425   4.565 -0.0989 -0.1884  0.0031
 6809POPC   C2B82498  15.192  23.451   5.060  0.1248  0.0273  0.0968
 6809POPC   C3B82499  15.226  23.489   5.501  0.1439 -0.0049 -0.0507
 6809POPC   C4B82500  15.389  23.446   5.933  0.0777  0.1799  0.3297
 6810POPC   NC382501  16.744  24.846   3.266  0.0528  0.1799 -0.0815
 6810POPC   PO482502  16.567  24.802   3.643 -0.0612 -0.2212 -0.0216
 6810POPC   GL182503  16.522  24.708   4.014  0.1235  0.2006 -0.0414
 6810POPC   GL282504  16.322  24.492   4.064  0.1597 -0.0115 -0.0696
 6810POPC   C1A82505  16.296  24.920   4.354 -0.2449  0.1367  0.1182
 6810POPC   D2A82506  16.330  25.374   4.562  0.1022  0.6636  0.1320
 6810POPC   C3A82507  16.256  25.270   5.018  0.0807  0.3236  0.2239
 6810POPC   C4A82508  16.454  25.312   5.426  0.2172 -0.1532 -0.0561
 6810POPC   C1B82509  16.468  24.415   4.545 -0.1682 -0.3817  0.0701
 6810POPC   C2B82510  16.548  24.387   5.001  0.1828  0.2693  0.1756
 6810POPC   C3B82511  16.281  24.380   5.374  0.0013  0.4764  0.3406
 6810POPC   C4B82512  15.916  24.522   5.618  0.0021  0.0809 -0.0977
 6811POPC   NC382513  23.749  11.950   3.896 -0.2181 -0.2049 -0.2954
 6811POPC   PO482514  23.731  12.221   3.616  0.2398 -0.0872  0.4654
 6811POPC   GL182515  23.740  12.524   3.890  0.2551  0.1147 -0.0514
 6811POPC   GL282516  23.550  12.713   3.772 -0.0613 -0.2018  0.2174
 6811POPC   C1A82517  23.784  12.434   4.372  0.0933  0.0172 -0.1377
 6811POPC   D2A82518  23.799  12.645   4.826 -0.4023  0.1448  0.3063
 6811POPC   C3A82519  23.774  12.317   5.205 -0.0274 -0.0509 -0.1296
 6811POPC   C4A82520  23.728  11.976   5.556 -0.3944  0.1300 -0.4194
 6811POPC   C1B82521  23.584  12.867   4.158 -0.2000 -0.0524 -0.5891
 6811POPC   C2B82522  23.718  13.124   4.547  0.1298 -0.1353  0.1188
 6811POPC   C3B82523  23.849  13.500   4.804  0.1639 -0.1737 -0.0857
 6811POPC   C4B82524  24.027  13.909   4.874 -0.0054 -0.2351  0.2892
 6812POPC   NC382525   0.908   9.115   3.465 -0.2326 -0.1414 -0.3005
 6812POPC   PO482526   1.071   9.477   3.443  0.0268 -0.1136 -0.1385
 6812POPC   GL182527   1.092   9.681   3.794 -0.0088 -0.0325  0.4222
 6812POPC   GL282528   0.835   9.601   3.922 -0.1562 -0.0114  0.2838
 6812POPC   C1A82529   1.319  10.090   3.889 -0.1035 -0.0052 -0.2048
 6812POPC   D2A82530   1.661  10.235   4.123  0.0061  0.0126  0.3728
 6812POPC   C3A82531   1.573  10.406   4.553 -0.0049 -0.0381 -0.2528
 6812POPC   C4A82532   1.468  10.363   4.975  0.0697  0.1312  0.0549
 6812POPC   C1B82533   0.802   9.681   4.364 -0.0102  0.1005 -0.0286
 6812POPC   C2B82534   0.775   9.852   4.807  0.1867 -0.1945 -0.0449
 6812POPC   C3B82535   0.697   9.838   5.277 -0.0304 -0.1507  0.1953
 6812POPC   C4B82536   0.499   9.609   5.653 -0.2852 -0.2689  0.4524
 6813POPC   NC382537  12.105   5.112   3.608 -0.2257  0.0473 -0.0906
 6813POPC   PO482538  11.821   5.423   3.609 -0.2639  0.0510 -0.0735
 6813POPC   GL182539  11.751   5.324   3.944  0.2762  0.1940  0.2561
 6813POPC   GL282540  11.494   5.354   4.058 -0.1821  0.0936  0.0004
 6813POPC   C1A82541  11.867   5.566   4.306  0.0144 -0.0393  0.2913
 6813POPC   D2A82542  11.829   5.396   4.806 -0.3076 -0.2575  0.4161
 6813POPC   C3A82543  12.172   5.368   5.106 -0.2510 -0.0141  0.2052
 6813POPC   C4A82544  12.317   5.098   5.463 -0.0847 -0.1130 -0.2133
 6813POPC   C1B82545  11.682   5.150   4.456  0.0535 -0.0486  0.0965
 6813POPC   C2B82546  11.916   4.784   4.517  0.0574 -0.1685  0.0281
 6813POPC   C3B82547  12.188   4.452   4.686 -0.2420  0.0663  0.1187
 6813POPC   C4B82548  12.499   4.255   4.945  0.0366  0.2034  0.0282
 6814POPC   NC382549  12.556  27.837   3.657  0.0990 -0.0113  0.1669
 6814POPC   PO482550  12.781  28.138   3.650  0.4863  0.0465 -0.1903
 6814POPC   GL182551  12.911  28.271   3.949  0.0836  0.3117  0.0378
 6814POPC   GL282552  12.621  28.448   4.032 -0.2089 -0.1763  0.1170
 6814POPC   C1A82553  13.157  28.131   4.319 -0.0795  0.1309 -0.1369
 6814POPC   D2A82554  13.547  27.924   4.449  0.0613 -0.1201  0.0880
 6814POPC   C3A82555  13.923  28.206   4.591  0.1743  0.1251 -0.1077
 6814POPC   C4A82556  14.165  28.448   4.904  0.0980 -0.0550 -0.1658
 6814POPC   C1B82557  12.691  28.294   4.461  0.2572 -0.0963 -0.2819
 6814POPC   C2B82558  12.989  28.169   4.801  0.1097 -0.2512  0.1136
 6814POPC   C3B82559  12.848  28.192   5.263 -0.2127 -0.0905  0.1139
 6814POPC   C4B82560  12.701  28.184   5.715  0.0114  0.0870 -0.2382
 6815POPC   NC382561  18.527  30.772   3.771  0.0030 -0.0390 -0.2734
 6815POPC   PO482562  18.885  30.814   3.629 -0.3577  0.2158 -0.2927
 6815POPC   GL182563  18.931  30.722   4.048 -0.3095  0.0042  0.0500
 6815POPC   GL282564  19.281  30.779   3.961 -0.3916  0.0219 -0.2700
 6815POPC   C1A82565  18.841  30.427   4.397 -0.0762  0.0388 -0.2765
 6815POPC   D2A82566  18.849  30.155   4.750 -0.0940 -0.1775 -0.0648
 6815POPC   C3A82567  18.938  30.530   5.028 -0.2544 -0.1955  0.1142
 6815POPC   C4A82568  18.841  30.775   5.383  0.2892  0.0194 -0.2473
 6815POPC   C1B82569  19.421  30.743   4.398  0.0086  0.0004 -0.2351
 6815POPC   C2B82570  19.562  30.831   4.825 -0.1598  0.1245  0.0928
 6815POPC   C3B82571  19.311  30.903   5.258  0.0466 -0.2097  0.2458
 6815POPC   C4B82572  19.350  30.726   5.710 -0.0940 -0.2781  0.4023
 6816POPC   NC382573   3.616   4.333   4.295 -0.2358 -0.3793  0.0887
 6816POPC   PO482574   3.253   4.410   4.200  0.1337  0.1994 -0.0859
 6816POPC   GL182575   3.435   4.734   4.484 -0.1663 -0.1126  0.1269
 6816POPC   GL282576   3.259   4.685   4.660 -0.0676 -0.0146  0.2310
 6816POPC   C1A82577   3.486   5.039   4.877  0.0238 -0.0546  0.2081
 6816POPC   D2A82578   3.164   5.312   5.128 -0.1519 -0.0941  0.0746
 6816POPC   C3A82579   3.101   5.641   5.457  0.1437 -0.2804  0.1092
 6816POPC   C4A82580   2.912   5.560   5.888  0.2628  0.0858 -0.0769
 6816POPC   C1B82581   3.224   4.738   5.146  0.0944 -0.0975  0.1802
 6816POPC   C2B82582   3.531   4.596   5.471  0.1233 -0.2460 -0.2526
 6816POPC   C3B82583   3.733   4.343   5.778 -0.1100 -0.2239 -0.1881
 6816POPC   C4B82584   3.827   3.890   5.943  0.5004 -0.0835 -0.0724
 6817POPC   NC382585  25.043  12.805   3.715 -0.1343 -0.0249  0.1909
 6817POPC   PO482586  25.044  12.481   3.919 -0.2015  0.1401  0.0362
 6817POPC   GL182587  24.831  12.767   4.210  0.1905 -0.0824  0.2053
 6817POPC   GL282588  24.981  12.964   4.291 -0.0527  0.1409  0.1860
 6817POPC   C1A82589  24.752  12.692   4.668  0.2379  0.0013  0.1694
 6817POPC   D2A82590  24.383  12.648   4.950  0.0747  0.1152 -0.0313
 6817POPC   C3A82591  24.410  12.367   5.315  0.1051  0.0603 -0.0185
 6817POPC   C4A82592  24.552  12.313   5.710 -0.1195  0.1312 -0.1145
 6817POPC   C1B82593  25.287  12.847   4.659 -0.2054  0.2500 -0.0098
 6817POPC   C2B82594  25.464  12.751   5.099 -0.0352  0.0112  0.2131
 6817POPC   C3B82595  25.821  12.623   5.382  0.4363 -0.1036 -0.0778
 6817POPC   C4B82596  26.010  12.326   5.650  0.0542 -0.1040  0.0264
 6818POPC   NC382597   1.548  11.637   4.110 -0.0827  0.1588 -0.2922
 6818POPC   PO482598   1.361  11.360   3.902  0.0239  0.3379  0.3986
 6818POPC   GL182599   1.120  11.637   4.102  0.1631 -0.1899 -0.2536
 6818POPC   GL282600   0.874  11.649   3.925 -0.0540  0.0363 -0.0050
 6818POPC   C1A82601   0.989  11.840   4.514 -0.1612  0.0406 -0.0658
 6818POPC   D2A82602   0.679  11.676   4.826  0.1205  0.0459 -0.1044
 6818POPC   C3A82603   0.289  11.460   4.711  0.4074  0.3696 -0.0629
 6818POPC   C4A82604   0.065  11.499   4.277  0.0157 -0.1786 -0.1744
 6818POPC   C1B82605   0.803  11.373   4.245 -0.1037  0.1496 -0.0100
 6818POPC   C2B82606   0.881  11.254   4.663  0.0144  0.1503 -0.0741
 6818POPC   C3B82607   0.789  11.176   5.092  0.2492 -0.2937 -0.1066
 6818POPC   C4B82608   0.647  11.220   5.546 -0.1974 -0.0994 -0.1190
 6819POPC   NC382609  20.579  11.171   3.472  0.0934 -0.2070  0.4543
 6819POPC   PO482610  20.613  11.377   3.786 -0.1746 -0.0842 -0.0076
 6819POPC   GL182611  20.589  11.360   4.155 -0.3584  0.0637  0.1950
 6819POPC   GL282612  20.385  11.232   4.267  0.2142 -0.0615  0.0276
 6819POPC   C1A82613  20.791  11.442   4.542  0.0538 -0.0044 -0.1034
 6819POPC   D2A82614  20.996  11.456   4.987  0.0828 -0.1112  0.1130
 6819POPC   C3A82615  20.802  11.485   5.383 -0.1285  0.0882  0.2698
 6819POPC   C4A82616  20.334  11.492   5.511  0.2179 -0.1522  0.0921
 6819POPC   C1B82617  20.297  11.181   4.705 -0.1339 -0.0905  0.0369
 6819POPC   C2B82618  20.644  11.155   5.047  0.2704 -0.0348  0.0953
 6819POPC   C3B82619  20.737  11.013   5.484 -0.0399  0.2084 -0.1917
 6819POPC   C4B82620  20.978  10.703   5.687 -0.1956  0.0346  0.0042
 6820POPC   NC382621  13.013  28.663   3.717  0.1418 -0.3994 -0.1391
 6820POPC   PO482622  13.390  28.648   3.862 -0.0804 -0.0416 -0.0136
 6820POPC   GL182623  13.253  28.828   4.179 -0.4645  0.0219  0.0947
 6820POPC   GL282624  13.030  28.661   4.237 -0.1371  0.1463  0.2308
 6820POPC   C1A82625  13.362  28.940   4.574  0.2359 -0.1148 -0.0405
 6820POPC   D2A82626  13.365  28.944   5.042  0.2080  0.2383  0.0136
 6820POPC   C3A82627  13.792  29.111   5.202  0.0353 -0.0445  0.0316
 6820POPC   C4A82628  13.819  29.378   5.606  0.0722 -0.1674  0.1321
 6820POPC   C1B82629  12.971  28.680   4.722  0.1453 -0.0207  0.1737
 6820POPC   C2B82630  13.110  28.536   5.120 -0.1159 -0.1010  0.0384
 6820POPC   C3B82631  13.174  28.337   5.551  0.0139 -0.1832 -0.0011
 6820POPC   C4B82632  13.372  28.450   5.962  0.0819  0.0914  0.0202
 6821POPC   NC382633   2.699   5.856   4.270 -0.3989  0.0099  0.4551
 6821POPC   PO482634   2.803   5.482   4.217  0.0577 -0.1042 -0.1924
 6821POPC   GL182635   2.940   5.266   4.479  0.0837  0.0268 -0.1374
 6821POPC   GL282636   2.973   5.497   4.734  0.0512 -0.1113 -0.1329
 6821POPC   C1A82637   2.845   5.045   4.878  0.1609 -0.0177  0.2450
 6821POPC   D2A82638   2.754   4.616   4.886 -0.1663  0.0231  0.0949
 6821POPC   C3A82639   2.842   4.381   5.270 -0.0469 -0.0087 -0.2398
 6821POPC   C4A82640   2.859   4.211   5.717 -0.4722 -0.0706 -0.2157
 6821POPC   C1B82641   2.699   5.443   5.121  0.1682 -0.2031 -0.0237
 6821POPC   C2B82642   2.779   5.247   5.519 -0.0052  0.3925 -0.0521
 6821POPC   C3B82643   2.532   5.188   5.891 -0.2354  0.1784  0.1691
 6821POPC   C4B82644   2.464   5.390   6.261  0.2969 -0.0382  0.0735
 6822POPC   NC382645  25.106  14.942   3.828  0.3635 -0.1056 -0.1996
 6822POPC   PO482646  25.377  14.683   3.823 -0.0364  0.3637 -0.0203
 6822POPC   GL182647  25.674  14.686   3.964  0.1343 -0.2372  0.1666
 6822POPC   GL282648  25.693  14.985   3.970 -0.4525 -0.3035 -0.0151
 6822POPC   C1A82649  26.031  14.724   4.274 -0.0440  0.0004  0.1781
 6822POPC   D2A82650  26.195  15.080   4.475 -0.1147 -0.3278  0.2126
 6822POPC   C3A82651  26.212  15.225   4.959 -0.0020  0.3300  0.0838
 6822POPC   C4A82652  26.140  15.562   5.270  0.1102  0.1905 -0.1030
 6822POPC   C1B82653  25.468  14.922   4.356  0.0227  0.1662  0.2667
 6822POPC   C2B82654  25.406  14.502   4.585 -0.0370  0.2821 -0.1525
 6822POPC   C3B82655  25.470  14.250   4.951  0.1173  0.2458  0.1247
 6822POPC   C4B82656  25.665  14.008   5.289 -0.0799 -0.1663 -0.5622
 6823POPC   NC382657  19.343  17.576   2.209 -0.0093  0.3421 -0.0298
 6823POPC   PO482658  19.045  17.547   2.474 -0.0375 -0.3689  0.0421
 6823POPC   GL182659  19.325  17.428   2.659 -0.2544 -0.1586  0.0519
 6823POPC   GL282660  19.368  17.573   2.943  0.1800 -0.2136 -0.0453
 6823POPC   C1A82661  19.799  17.319   2.687  0.0559  0.0756 -0.0502
 6823POPC   D2A82662  20.266  17.249   2.639  0.1526  0.1458 -0.0943
 6823POPC   C3A82663  20.415  17.440   3.052 -0.0475 -0.1147  0.2736
 6823POPC   C4A82664  20.887  17.378   3.083  0.1282 -0.1758  0.0743
 6823POPC   C1B82665  19.786  17.550   3.210 -0.3072  0.1171 -0.0637
 6823POPC   C2B82666  20.143  17.667   3.504  0.1241  0.0075  0.0614
 6823POPC   C3B82667  20.576  17.730   3.469 -0.0903  0.4826  0.1288
 6823POPC   C4B82668  20.992  17.841   3.319 -0.0687  0.0959 -0.1111
 6824POPC   NC382669  12.150  17.895   2.507 -0.0878  0.1806 -0.0811
 6824POPC   PO482670  12.022  18.182   2.710 -0.0335 -0.2749  0.2896
 6824POPC   GL182671  12.201  18.119   3.031  0.1298 -0.3863  0.1286
 6824POPC   GL282672  12.059  17.894   3.208  0.0956 -0.2208  0.0520
 6824POPC   C1A82673  12.467  18.130   3.376 -0.0433  0.2242  0.1539
 6824POPC   D2A82674  12.657  18.130   3.737 -0.2255  0.1370  0.2096
 6824POPC   C3A82675  12.503  17.768   3.971  0.0546 -0.0275 -0.2801
 6824POPC   C4A82676  12.122  17.593   4.237 -0.2357  0.0035  0.2353
 6824POPC   C1B82677  12.076  17.913   3.704  0.1368 -0.2605  0.3048
 6824POPC   C2B82678  12.144  18.191   4.042 -0.0199  0.1267 -0.0739
 6824POPC   C3B82679  12.482  18.305   4.357 -0.0809  0.0313  0.2012
 6824POPC   C4B82680  12.704  18.410   4.730  0.2230  0.0448  0.2385
 6825POPC   NC382681   5.104  13.820   3.579  0.0553  0.0485  0.0905
 6825POPC   PO482682   5.257  13.469   3.484  0.0378 -0.2835 -0.4543
 6825POPC   GL182683   5.394  13.249   3.815 -0.0940 -0.0768 -0.2420
 6825POPC   GL282684   5.331  13.288   4.060  0.0256 -0.3218 -0.0188
 6825POPC   C1A82685   5.276  12.778   3.950  0.1049  0.2289 -0.1935
 6825POPC   D2A82686   5.370  12.513   4.307  0.3076  0.3698  0.1392
 6825POPC   C3A82687   5.421  12.236   4.663  0.0867  0.1284 -0.0633
 6825POPC   C4A82688   5.527  12.285   5.129  0.1547  0.0835 -0.2211
 6825POPC   C1B82689   5.307  13.011   4.400 -0.1769 -0.3869 -0.1605
 6825POPC   C2B82690   5.433  12.792   4.738 -0.2176 -0.0420  0.0795
 6825POPC   C3B82691   5.749  12.929   5.103 -0.3585  0.0482 -0.1105
 6825POPC   C4B82692   5.737  13.010   5.510 -0.0817 -0.2572  0.1805
 6826POPC   NC382693   1.015   5.110   3.755 -0.0755  0.0596 -0.2064
 6826POPC   PO482694   0.706   5.266   3.944 -0.1523  0.2217  0.1829
 6826POPC   GL182695   0.830   5.272   4.226 -0.0064  0.0672  0.0297
 6826POPC   GL282696   0.636   5.251   4.430 -0.0660 -0.0148  0.0853
 6826POPC   C1A82697   1.094   5.574   4.518  0.0803 -0.2853 -0.1680
 6826POPC   D2A82698   1.275   5.655   4.928  0.1847  0.1976  0.0529
 6826POPC   C3A82699   0.859   5.565   5.204 -0.1317  0.1433 -0.3128
 6826POPC   C4A82700   0.480   5.532   5.401  0.2275 -0.2805  0.2988
 6826POPC   C1B82701   0.900   5.187   4.793  0.1171 -0.2798 -0.1730
 6826POPC   C2B82702   1.167   5.201   5.210 -0.1493 -0.0526  0.2146
 6826POPC   C3B82703   1.242   5.317   5.661  0.4849  0.0600 -0.0149
 6826POPC   C4B82704   1.533   5.359   5.975 -0.5102  0.3540 -0.1137
 6827POPC   NC382705   0.518  24.196   3.058  0.0281  0.1445  0.1893
 6827POPC   PO482706   0.836  24.372   2.918  0.1308 -0.1095  0.2031
 6827POPC   GL182707   0.746  24.524   3.337  0.1520  0.4886 -0.3563
 6827POPC   GL282708   0.732  24.725   3.518  0.0313 -0.0921 -0.0745
 6827POPC   C1A82709   0.694  24.289   3.718  0.1492 -0.0999  0.2098
 6827POPC   D2A82710   0.553  23.822   3.781  0.0115  0.3090 -0.0227
 6827POPC   C3A82711   0.137  23.804   3.571  0.1807 -0.2157 -0.3560
 6827POPC   C4A82712  -0.225  23.983   3.782 -0.1811  0.2177  0.1923
 6827POPC   C1B82713   0.586  24.694   3.986  0.0374  0.0240 -0.1419
 6827POPC   C2B82714   0.630  24.534   4.397 -0.0099 -0.0181 -0.0197
 6827POPC   C3B82715   0.740  24.563   4.824 -0.1660 -0.1521 -0.0029
 6827POPC   C4B82716   0.719  24.509   5.304 -0.0330  0.1713 -0.1491
 6828POPC   NC382717  24.032   8.588   3.696  0.0918 -0.1701  0.0273
 6828POPC   PO482718  24.204   8.250   3.702 -0.2832 -0.0177  0.2399
 6828POPC   GL182719  24.285   8.118   4.017  0.0337  0.1224  0.3138
 6828POPC   GL282720  24.336   8.359   4.226 -0.0723 -0.1521 -0.0880
 6828POPC   C1A82721  24.004   8.011   4.389  0.1583  0.1446 -0.1272
 6828POPC   D2A82722  23.797   8.304   4.648  0.6906 -0.1333  0.1583
 6828POPC   C3A82723  23.879   8.488   5.076 -0.0997  0.2240  0.0840
 6828POPC   C4A82724  23.778   8.545   5.549  0.1281 -0.1626  0.1047
 6828POPC   C1B82725  24.342   8.365   4.686  0.2046  0.2399  0.0689
 6828POPC   C2B82726  24.424   8.346   5.184 -0.1941  0.1112  0.1749
 6828POPC   C3B82727  24.368   8.550   5.570 -0.3027 -0.1117 -0.1841
 6828POPC   C4B82728  24.177   8.658   5.953 -0.3461  0.2280  0.1501
 6829POPC   NC382729  20.195  30.323   3.123 -0.0490 -0.1405  0.0443
 6829POPC   PO482730  20.196  30.346   3.536 -0.0893 -0.4934 -0.0416
 6829POPC   GL182731  20.398  30.387   3.842 -0.1749  0.0863 -0.1992
 6829POPC   GL282732  20.285  30.628   3.959  0.0433  0.1482  0.1749
 6829POPC   C1A82733  20.327  30.125   4.270  0.0061 -0.2538 -0.0152
 6829POPC   D2A82734  20.259  30.282   4.704  0.2200 -0.0289 -0.2923
 6829POPC   C3A82735  19.878  30.428   4.928  0.0755  0.3054  0.0068
 6829POPC   C4A82736  19.757  30.726   5.276 -0.1534 -0.0842 -0.0714
 6829POPC   C1B82737  20.279  30.733   4.420 -0.0390 -0.0552  0.1478
 6829POPC   C2B82738  20.267  30.753   4.914 -0.0513  0.0258 -0.0320
 6829POPC   C3B82739  20.315  30.762   5.353  0.0069  0.2632 -0.2730
 6829POPC   C4B82740  20.071  30.822   5.743  0.0524  0.0747 -0.0020
 6830POPC   NC382741  19.632  13.645   2.235  0.2711 -0.1722 -0.1525
 6830POPC   PO482742  19.730  13.479   2.592  0.0842  0.1791  0.1402
 6830POPC   GL182743  19.971  13.673   2.735  0.1588 -0.4772  0.0936
 6830POPC   GL282744  20.187  13.676   2.897  0.1710  0.0389  0.1151
 6830POPC   C1A82745  20.020  14.125   2.953  0.1147 -0.0141  0.3803
 6830POPC   D2A82746  20.241  14.497   3.046 -0.0870 -0.2812 -0.0734
 6830POPC   C3A82747  20.669  14.390   3.295  0.0511 -0.0012 -0.2665
 6830POPC   C4A82748  21.118  14.624   3.298  0.1296  0.2074  0.0987
 6830POPC   C1B82749  19.994  13.625   3.322 -0.0353 -0.0913 -0.0086
 6830POPC   C2B82750  19.982  13.735   3.763 -0.2176 -0.4330 -0.2545
 6830POPC   C3B82751  19.842  13.778   4.218 -0.1411 -0.2798 -0.2983
 6830POPC   C4B82752  19.763  13.736   4.705 -0.0383  0.0244 -0.0579
 6831POPC   NC382753  16.919  13.264   3.418  0.3515 -0.2801 -0.0878
 6831POPC   PO482754  17.016  12.975   3.632 -0.0986 -0.1694 -0.5375
 6831POPC   GL182755  17.178  13.134   3.912  0.1888 -0.1342 -0.1796
 6831POPC   GL282756  17.065  13.235   4.154 -0.2248  0.0969 -0.1312
 6831POPC   C1A82757  17.611  12.987   4.075 -0.0486  0.3350 -0.1830
 6831POPC   D2A82758  17.728  12.548   4.198 -0.0210 -0.1565  0.0171
 6831POPC   C3A82759  17.859  12.142   4.359  0.3213  0.2450  0.1732
 6831POPC   C4A82760  17.874  11.767   4.462  0.3351  0.1085  0.1658
 6831POPC   C1B82761  17.278  12.987   4.449  0.0962 -0.2108 -0.2158
 6831POPC   C2B82762  17.444  12.900   4.839  0.1092  0.0570 -0.2253
 6831POPC   C3B82763  17.661  12.718   5.256 -0.0196  0.1882  0.3300
 6831POPC   C4B82764  17.604  12.490   5.670 -0.2894  0.2196 -0.0935
 6832POPC   NC382765  28.653  14.704   3.538 -0.0515  0.2966 -0.1736
 6832POPC   PO482766  28.248  14.621   3.513 -0.4374 -0.1020 -0.0177
 6832POPC   GL182767  28.213  14.597   3.940 -0.4066 -0.0064 -0.2361
 6832POPC   GL282768  28.401  14.801   4.015 -0.2295  0.2348  0.0367
 6832POPC   C1A82769  28.095  14.484   4.374 -0.0676 -0.0206  0.1236
 6832POPC   D2A82770  28.371  14.199   4.623  0.1570 -0.1342 -0.1581
 6832POPC   C3A82771  28.252  13.879   4.996  0.1256 -0.0679  0.2068
 6832POPC   C4A82772  27.874  13.825   5.188  0.2771 -0.0890 -0.2293
 6832POPC   C1B82773  28.354  14.936   4.426  0.3024  0.1284 -0.0036
 6832POPC   C2B82774  28.273  14.721   4.777 -0.0538  0.2635 -0.2246
 6832POPC   C3B82775  28.060  14.391   4.979  0.2701  0.1074 -0.0018
 6832POPC   C4B82776  27.593  14.443   5.137 -0.2389  0.0193 -0.0576
 6833POPS   CNO82777  18.702   2.445   3.446 -0.0116  0.0141 -0.0513
 6833POPS   PO482778  18.440   2.318   3.713 -0.0037  0.0819 -0.2838
 6833POPS   GL182779  18.280   2.204   4.079 -0.4112  0.2290 -0.0014
 6833POPS   GL282780  18.017   2.343   4.014 -0.0262 -0.0922 -0.1447
 6833POPS   C1A82781  18.385   2.307   4.557  0.0211  0.1048 -0.0215
 6833POPS   D2A82782  18.347   2.539   4.959 -0.2664 -0.1707 -0.1707
 6833POPS   C3A82783  18.516   2.657   5.334  0.0210  0.0906 -0.0548
 6833POPS   C4A82784  18.895   2.496   5.524 -0.0847 -0.0761  0.0345
 6833POPS   C1B82785  17.913   2.399   4.452  0.0876  0.2396  0.0044
 6833POPS   C2B82786  17.823   2.418   4.884 -0.2747  0.0516 -0.0302
 6833POPS   C3B82787  18.017   2.234   5.281 -0.0112 -0.1055  0.0569
 6833POPS   C4B82788  18.422   2.113   5.373  0.1352 -0.0402 -0.1258
 6834POPS   CNO82789  20.957  12.350   3.511  0.0015  0.1813 -0.2798
 6834POPS   PO482790  21.164  12.317   3.781  0.1352  0.4571 -0.0064
 6834POPS   GL182791  21.066  12.140   4.055  0.0131  0.0222 -0.1925
 6834POPS   GL282792  21.316  12.069   4.218 -0.0624 -0.0797 -0.0396
 6834POPS   C1A82793  20.907  12.325   4.467 -0.2312 -0.3186 -0.4522
 6834POPS   D2A82794  20.936  12.255   4.955 -0.1622 -0.1065  0.2534
 6834POPS   C3A82795  21.276  12.437   5.238  0.2852 -0.3375 -0.0555
 6834POPS   C4A82796  21.435  12.671   5.580 -0.0019  0.2665  0.0782
 6834POPS   C1B82797  21.423  12.101   4.700 -0.2697 -0.0725 -0.1998
 6834POPS   C2B82798  21.685  12.369   4.925 -0.1223 -0.1260 -0.1516
 6834POPS   C3B82799  21.896  12.392   5.331  0.0076  0.0997 -0.0037
 6834POPS   C4B82800  21.784  12.264   5.718 -0.2283 -0.0024 -0.1448
 6835POPS   CNO82801   7.249   8.931   3.700  0.2309 -0.1529  0.1166
 6835POPS   PO482802   7.230   8.945   4.068 -0.0727 -0.2324 -0.0656
 6835POPS   GL182803   7.414   8.954   4.441  0.3300  0.2025 -0.2764
 6835POPS   GL282804   7.729   8.881   4.327 -0.1525  0.1460 -0.0330
 6835POPS   C1A82805   7.310   9.092   4.870  0.1528  0.3310 -0.0582
 6835POPS   D2A82806   7.152   9.250   5.280 -0.4472 -0.0262  0.1536
 6835POPS   C3A82807   7.328   9.248   5.699  0.1419  0.1885 -0.2660
 6835POPS   C4A82808   7.698   9.450   5.916 -0.4124  0.0502 -0.2298
 6835POPS   C1B82809   7.623   8.679   4.736 -0.0536 -0.3986 -0.0912
 6835POPS   C2B82810   7.796   8.769   5.135 -0.1002  0.0952 -0.1002
 6835POPS   C3B82811   7.855   8.526   5.528  0.1251  0.0319 -0.0481
 6835POPS   C4B82812   8.040   8.225   5.814  0.2207  0.3586  0.2043
 6836POPS   CNO82813   6.761  15.409   3.516 -0.1835  0.0193  0.1749
 6836POPS   PO482814   6.499  15.430   3.812 -0.0372  0.1083  0.1531
 6836POPS   GL182815   6.620  15.567   4.136 -0.0034  0.3091 -0.1674
 6836POPS   GL282816   6.394  15.573   4.388  0.1491  0.0974 -0.4341
 6836POPS   C1A82817   6.731  15.868   4.511 -0.0019 -0.0541 -0.0026
 6836POPS   D2A82818   6.591  15.962   4.959 -0.1360  0.3903 -0.1562
 6836POPS   C3A82819   6.661  15.746   5.419  0.0880  0.1941 -0.2026
 6836POPS   C4A82820   7.007  15.511   5.450  0.1201  0.0137  0.1298
 6836POPS   C1B82821   6.226  15.592   4.804  0.0310 -0.1679 -0.0477
 6836POPS   C2B82822   6.211  15.446   5.199  0.0964 -0.3614 -0.0956
 6836POPS   C3B82823   5.977  15.596   5.580  0.0087 -0.1801 -0.1115
 6836POPS   C4B82824   5.653  15.775   5.860  0.2818 -0.0149 -0.1228
 6837POPS   CNO82825  23.120   5.258   3.313  0.0466  0.2151 -0.0282
 6837POPS   PO482826  23.071   5.150   3.681  0.0068  0.0207 -0.1525
 6837POPS   GL182827  23.443   5.020   3.854 -0.2309  0.2029  0.2871
 6837POPS   GL282828  23.673   5.231   4.012 -0.1897  0.0226  0.0100
 6837POPS   C1A82829  23.460   4.882   4.316  0.0721 -0.2864 -0.1608
 6837POPS   D2A82830  23.075   4.666   4.561  0.1732  0.0139  0.1588
 6837POPS   C3A82831  23.065   4.700   4.985 -0.0509 -0.1602  0.1030
 6837POPS   C4A82832  23.113   4.518   5.385 -0.1418  0.0332 -0.1863
 6837POPS   C1B82833  23.722   5.225   4.512  0.0200  0.1017  0.1813
 6837POPS   C2B82834  23.505   5.023   4.885  0.2204  0.0684 -0.1115
 6837POPS   C3B82835  23.407   4.900   5.350  0.0017 -0.2755  0.0591
 6837POPS   C4B82836  23.349   4.713   5.774  0.0091  0.0133 -0.0409
 6838POPS   CNO82837  30.517  28.256   3.652  0.1292  0.3339  0.1587
 6838POPS   PO482838  30.448  28.583   3.759  0.1269  0.0847 -0.2633
 6838POPS   GL182839  30.304  28.711   4.065  0.1646 -0.1034  0.1449
 6838POPS   GL282840  30.573  28.774   4.217  0.0163 -0.1463 -0.3478
 6838POPS   C1A82841  30.145  29.000   4.354  0.2216 -0.0719 -0.1832
 6838POPS   D2A82842  29.830  28.947   4.693  0.1924  0.0487 -0.0440
 6838POPS   C3A82843  29.954  28.822   5.131  0.3939  0.0738  0.0680
 6838POPS   C4A82844  30.184  28.962   5.506 -0.0848  0.1718 -0.1351
 6838POPS   C1B82845  30.558  28.784   4.641  0.3675 -0.3281  0.1602
 6838POPS   C2B82846  30.538  28.915   5.125 -0.0055 -0.0274  0.0052
 6838POPS   C3B82847  30.743  28.858   5.505  0.0303 -0.2440 -0.2058
 6838POPS   C4B82848  30.700  28.754   5.977 -0.2542  0.1149 -0.0737
 6839POPS   CNO82849  21.701   2.223   3.609 -0.1802  0.0600  0.0441
 6839POPS   PO482850  21.492   1.872   3.571 -0.0734 -0.1847 -0.1849
 6839POPS   GL182851  21.354   1.669   3.769 -0.2642  0.3353 -0.2381
 6839POPS   GL282852  21.561   1.568   3.973  0.0657 -0.0935  0.4102
 6839POPS   C1A82853  21.156   1.728   4.187 -0.1724  0.1519  0.2000
 6839POPS   D2A82854  21.267   1.789   4.640  0.0050  0.5951  0.1687
 6839POPS   C3A82855  21.100   1.616   4.978 -0.0761  0.3214 -0.0412
 6839POPS   C4A82856  20.668   1.613   5.021 -0.2633  0.2199 -0.1512
 6839POPS   C1B82857  21.414   1.308   4.366  0.1306 -0.1818  0.0054
 6839POPS   C2B82858  21.416   1.263   4.846  0.2102 -0.2278  0.0210
 6839POPS   C3B82859  21.451   1.347   5.301  0.3224  0.2283  0.1909
 6839POPS   C4B82860  21.455   1.114   5.708  0.0383 -0.1678  0.1358
 6840POPS   CNO82861   2.678  11.078   3.472 -0.0226 -0.0574  0.0187
 6840POPS   PO482862   2.667  10.826   3.795  0.0088  0.0959 -0.4686
 6840POPS   GL182863   2.636  10.839   4.193 -0.0401  0.1088  0.4809
 6840POPS   GL282864   2.579  11.113   4.267  0.1515 -0.3178  0.2921
 6840POPS   C1A82865   2.861  10.647   4.568 -0.2368 -0.1763  0.0172
 6840POPS   D2A82866   2.960  10.592   4.994  0.0717 -0.1033 -0.2051
 6840POPS   C3A82867   3.068  10.382   5.384 -0.1726  0.1700 -0.0793
 6840POPS   C4A82868   3.061  10.481   5.834  0.1117  0.1224 -0.1160
 6840POPS   C1B82869   2.316  11.254   4.663 -0.0359 -0.1389  0.0211
 6840POPS   C2B82870   2.213  11.223   5.124 -0.2069 -0.0226  0.2175
 6840POPS   C3B82871   1.908  11.143   5.485 -0.1940  0.0143  0.0817
 6840POPS   C4B82872   1.757  11.319   5.951  0.0815  0.2143  0.0082
 6841POPS   CNO82873  17.064   9.626   3.900 -0.0485  0.9070 -0.0478
 6841POPS   PO482874  16.872   9.282   3.990  0.2844 -0.2080  0.3016
 6841POPS   GL182875  16.764   9.002   4.231  0.0400 -0.4999 -0.0972
 6841POPS   GL282876  16.506   8.842   4.191 -0.0097 -0.2879  0.4369
 6841POPS   C1A82877  16.822   8.863   4.707  0.1518  0.1989  0.0208
 6841POPS   D2A82878  16.863   8.614   5.062  0.1106  0.1326 -0.1167
 6841POPS   C3A82879  17.032   8.192   5.195  0.3215 -0.1746 -0.0471
 6841POPS   C4A82880  17.011   7.801   5.498 -0.0821  0.0834  0.2693
 6841POPS   C1B82881  16.380   9.006   4.636 -0.1381  0.2190  0.0002
 6841POPS   C2B82882  16.353   8.953   5.072 -0.0475 -0.0920 -0.0814
 6841POPS   C3B82883  16.140   8.855   5.473 -0.0462  0.2363  0.2617
 6841POPS   C4B82884  16.164   9.160   5.771  0.1130  0.0072 -0.0356
 6842POPS   CNO82885  10.277  22.214   3.674  0.1381 -0.0237  0.1060
 6842POPS   PO482886  10.386  22.374   3.976  0.2902  0.0636 -0.0715
 6842POPS   GL182887  10.224  22.511   4.328 -0.1023 -0.1745 -0.1174
 6842POPS   GL282888  10.428  22.759   4.310  0.2306  0.0370 -0.0451
 6842POPS   C1A82889  10.181  22.713   4.762  0.4326  0.5903 -0.0634
 6842POPS   D2A82890   9.919  22.715   5.156  0.3590 -0.2758 -0.2827
 6842POPS   C3A82891   9.831  23.147   5.254 -0.0012  0.2827  0.1442
 6842POPS   C4A82892   9.759  23.420   5.612  0.0488  0.1999  0.1365
 6842POPS   C1B82893  10.610  22.515   4.678 -0.2911 -0.2252 -0.2558
 6842POPS   C2B82894  10.769  22.485   5.084 -0.0254  0.2059 -0.3559
 6842POPS   C3B82895  11.123  22.417   5.346  0.1353  0.3595  0.0959
 6842POPS   C4B82896  11.485  22.362   5.598 -0.0932 -0.0447 -0.2286
 6843POPS   CNO82897  17.999  27.933   3.504  0.1132  0.0101  0.3466
 6843POPS   PO482898  17.851  27.567   3.576 -0.1113 -0.3271  0.3103
 6843POPS   GL182899  17.941  27.434   3.947 -0.2981 -0.0315 -0.0429
 6843POPS   GL282900  18.165  27.444   3.971  0.1979  0.1506  0.2332
 6843POPS   C1A82901  17.738  27.289   4.341  0.0483  0.2380 -0.0015
 6843POPS   D2A82902  17.895  27.162   4.778  0.0588 -0.0909 -0.0513
 6843POPS   C3A82903  17.590  27.294   5.120  0.1223 -0.0671 -0.1299
 6843POPS   C4A82904  17.253  27.648   5.091  0.1935  0.0914 -0.1644
 6843POPS   C1B82905  18.229  27.501   4.439 -0.0520 -0.1965  0.1082
 6843POPS   C2B82906  18.259  27.626   4.915  0.0742 -0.0827 -0.1100
 6843POPS   C3B82907  18.479  27.761   5.256 -0.0727 -0.2559 -0.2767
 6843POPS   C4B82908  18.729  27.752   5.681 -0.5832 -0.0923  0.4715
 6844POPS   CNO82909   2.356  12.989   4.370  0.0668  0.2733  0.1756
 6844POPS   PO482910   2.136  13.280   4.260 -0.4790 -0.0468 -0.0303
 6844POPS   GL182911   1.966  13.208   4.596 -0.1092 -0.1118  0.1145
 6844POPS   GL282912   2.041  12.964   4.716  0.1023 -0.1020 -0.0850
 6844POPS   C1A82913   2.025  13.332   5.051  0.4872 -0.2430 -0.3769
 6844POPS   D2A82914   2.290  13.111   5.404 -0.0556 -0.3736  0.0325
 6844POPS   C3A82915   2.288  13.275   5.883 -0.2627  0.0639  0.2005
 6844POPS   C4A82916   2.366  13.388   6.339 -0.0090 -0.0680  0.1211
 6844POPS   C1B82917   2.069  12.710   5.091 -0.0641 -0.1283  0.0560
 6844POPS   C2B82918   2.130  12.630   5.504 -0.0830 -0.0239  0.1203
 6844POPS   C3B82919   2.384  12.411   5.865 -0.1306  0.0608  0.2579
 6844POPS   C4B82920   2.737  12.201   5.993  0.1477  0.0501 -0.1722
 6845POPS   CNO82921  15.495   5.913   3.405 -0.0180 -0.0795  0.2662
 6845POPS   PO482922  15.341   5.619   3.562 -0.1928 -0.1071  0.0160
 6845POPS   GL182923  15.173   5.425   3.886 -0.2370 -0.0174  0.1090
 6845POPS   GL282924  14.969   5.628   3.938  0.1898 -0.1528 -0.0442
 6845POPS   C1A82925  15.361   5.337   4.309 -0.0495 -0.3140 -0.1747
 6845POPS   D2A82926  15.754   5.263   4.514 -0.0975 -0.0410 -0.1844
 6845POPS   C3A82927  15.688   5.297   4.955 -0.1482  0.1436 -0.0614
 6845POPS   C4A82928  15.418   5.204   5.353  0.1849  0.2389 -0.1803
 6845POPS   C1B82929  15.246   5.915   4.176 -0.1958 -0.0912 -0.0533
 6845POPS   C2B82930  15.505   5.853   4.526 -0.0952  0.0165  0.2289
 6845POPS   C3B82931  15.756   6.057   4.793  0.4188  0.0139  0.1612
 6845POPS   C4B82932  16.179   6.071   4.901  0.1120 -0.0087  0.1244
 6846POPS   CNO82933  30.294  13.442   4.318  0.2733 -0.0640 -0.2516
 6846POPS   PO482934  30.155  13.655   4.037 -0.1328  0.0582 -0.2172
 6846POPS   GL182935  29.856  13.869   4.308 -0.2183  0.0910 -0.5333
 6846POPS   GL282936  29.779  13.633   4.425 -0.2590  0.3081 -0.2025
 6846POPS   C1A82937  29.868  14.048   4.724 -0.1189  0.0059  0.0366
 6846POPS   D2A82938  30.030  13.969   5.182  0.0785 -0.0007 -0.1594
 6846POPS   C3A82939  30.006  14.270   5.549 -0.1287 -0.0142 -0.5571
 6846POPS   C4A82940  30.063  14.426   6.021  0.0834 -0.1791  0.2282
 6846POPS   C1B82941  29.684  13.603   4.894 -0.0145 -0.1159 -0.0180
 6846POPS   C2B82942  29.475  13.288   5.104 -0.0309  0.0335 -0.1205
 6846POPS   C3B82943  29.425  13.357   5.565  0.0831  0.1810 -0.2500
 6846POPS   C4B82944  29.434  13.441   6.004  0.1183  0.1169 -0.1893
 6847POPS   CNO82945  30.768   2.569   3.401 -0.1088 -0.1144  0.0200
 6847POPS   PO482946  30.720   2.951   3.421 -0.0162  0.2423  0.1436
 6847POPS   GL182947  30.621   2.805   3.806  0.1158  0.0520  0.2801
 6847POPS   GL282948  30.737   2.641   3.947 -0.0753  0.1706 -0.0353
 6847POPS   C1A82949  30.280   2.915   4.132 -0.2038  0.3492  0.0277
 6847POPS   D2A82950  30.038   3.154   4.533  0.1027 -0.1550  0.0682
 6847POPS   C3A82951  29.888   2.991   4.993 -0.1441 -0.0652 -0.0622
 6847POPS   C4A82952  29.913   2.966   5.426 -0.3014  0.5659  0.3221
 6847POPS   C1B82953  30.597   2.550   4.368 -0.2101  0.0447 -0.0634
 6847POPS   C2B82954  30.354   2.831   4.657 -0.1676  0.3935  0.0533
 6847POPS   C3B82955  30.370   3.163   5.029 -0.0755  0.0366 -0.2363
 6847POPS   C4B82956  30.190   3.372   5.340 -0.0134 -0.0684 -0.0795
 6848POPS   CNO82957  13.434   2.349   3.178  0.1153  0.1283  0.0939
 6848POPS   PO482958  13.171   2.074   3.209  0.0021  0.2034  0.2772
 6848POPS   GL182959  13.127   2.014   3.657  0.2930 -0.5122  0.2634
 6848POPS   GL282960  12.870   1.900   3.806 -0.0856 -0.0498  0.0446
 6848POPS   C1A82961  13.376   1.697   3.907  0.1468 -0.0862 -0.1214
 6848POPS   D2A82962  13.438   1.275   4.027 -0.1385  0.1226 -0.0626
 6848POPS   C3A82963  13.705   1.257   4.442  0.4039  0.0771 -0.0556
 6848POPS   C4A82964  13.755   1.602   4.820 -0.1465  0.0774 -0.1356
 6848POPS   C1B82965  13.057   1.994   4.209  0.0668  0.0282 -0.1780
 6848POPS   C2B82966  13.133   2.058   4.653  0.1202  0.0309 -0.3219
 6848POPS   C3B82967  13.039   1.981   5.111  0.1888  0.2073  0.0312
 6848POPS   C4B82968  13.058   2.024   5.540  0.1372 -0.2637 -0.0705
 6849POPS   CNO82969  29.897  12.856   3.912  0.0816  0.4031 -0.0511
 6849POPS   PO482970  29.870  13.177   4.035 -0.0285 -0.2450 -0.1310
 6849POPS   GL182971  29.816  13.206   4.373 -0.2599  0.1251 -0.2377
 6849POPS   GL282972  29.916  13.157   4.671 -0.3120  0.0258 -0.1859
 6849POPS   C1A82973  29.405  13.309   4.567  0.1334 -0.0300 -0.1859
 6849POPS   D2A82974  29.048  13.247   4.843  0.0925  0.0634  0.2251
 6849POPS   C3A82975  28.931  13.269   5.284 -0.0190  0.1596  0.0311
 6849POPS   C4A82976  28.753  13.101   5.630  0.2982  0.2438  0.0627
 6849POPS   C1B82977  30.225  13.383   4.856  0.0936 -0.0780 -0.4711
 6849POPS   C2B82978  30.378  13.600   5.253  0.4159  0.2356  0.0511
 6849POPS   C3B82979  30.469  13.857   5.603 -0.1693 -0.1783  0.0680
 6849POPS   C4B82980  30.457  14.150   5.940  0.1440  0.1645  0.0409
 6850POPS   CNO82981  13.703   8.548   3.309  0.0270  0.0942 -0.1652
 6850POPS   PO482982  13.991   8.783   3.200 -0.2612 -0.0946 -0.2184
 6850POPS   GL182983  13.988   8.940   3.478 -0.2774  0.1595  0.1413
 6850POPS   GL282984  14.181   9.155   3.490  0.3880 -0.1174  0.3099
 6850POPS   C1A82985  13.806   9.259   3.796 -0.2998  0.1490 -0.0875
 6850POPS   D2A82986  13.744   9.412   4.225  0.1444  0.1476 -0.2241
 6850POPS   C3A82987  13.809   9.480   4.663  0.1312  0.0179 -0.1490
 6850POPS   C4A82988  13.920   9.524   5.084 -0.0757  0.0904 -0.0071
 6850POPS   C1B82989  14.255   9.072   3.944  0.0777 -0.0791  0.0470
 6850POPS   C2B82990  14.120   9.160   4.393  0.0002 -0.2260  0.2739
 6850POPS   C3B82991  14.217   9.181   4.811 -0.3128  0.1993 -0.0595
 6850POPS   C4B82992  14.324   9.261   5.213  0.0778 -0.2390 -0.0556
 6851POPS   CNO82993   2.885  26.646   3.637 -0.2009 -0.0423  0.1047
 6851POPS   PO482994   3.083  26.442   3.843 -0.2115 -0.0222  0.0477
 6851POPS   GL182995   3.180  26.389   4.176 -0.1720  0.5094 -0.2221
 6851POPS   GL282996   3.429  26.228   4.257 -0.0194  0.1909 -0.2961
 6851POPS   C1A82997   3.258  26.573   4.609 -0.0202 -0.1136 -0.0234
 6851POPS   D2A82998   3.470  26.829   4.967  0.3618 -0.1719 -0.2363
 6851POPS   C3A82999   3.687  26.564   5.313 -0.1717 -0.1587  0.4928
 6851POPS   C4A83000   4.083  26.305   5.262 -0.1185 -0.2364 -0.1065
 6851POPS   C1B83001   3.251  26.095   4.656  0.0083 -0.1279  0.0037
 6851POPS   C2B83002   3.235  25.884   5.040  0.0186  0.0039  0.3768
 6851POPS   C3B83003   2.991  25.929   5.423 -0.0790 -0.0922 -0.0515
 6851POPS   C4B83004   2.823  25.669   5.736 -0.1064  0.1069  0.0969
 6852POPS   CNO83005   9.788  15.120   3.493 -0.1407  0.0970  0.1576
 6852POPS   PO483006   9.725  15.385   3.826 -0.1564 -0.0317  0.1673
 6852POPS   GL183007   9.528  15.377   4.120  0.0724  0.1886  0.0854
 6852POPS   GL283008   9.665  15.209   4.370  0.2847  0.0436 -0.1819
 6852POPS   C1A83009   9.343  15.539   4.563 -0.2741 -0.2356 -0.0181
 6852POPS   D2A83010   9.447  15.500   5.041 -0.2242 -0.1247 -0.0837
 6852POPS   C3A83011   9.199  15.540   5.405 -0.2348  0.0230 -0.0632
 6852POPS   C4A83012   9.221  15.129   5.580  0.0777 -0.0911  0.3391
 6852POPS   C1B83013   9.954  15.083   4.707 -0.1867 -0.0429 -0.0204
 6852POPS   C2B83014  10.271  14.821   4.899  0.0083  0.0983 -0.0196
 6852POPS   C3B83015  10.611  14.577   5.100 -0.1749 -0.3339  0.0025
 6852POPS   C4B83016  11.013  14.357   5.112  0.2638 -0.3132  0.0187
 6853POPS   CNO83017  24.683  16.566   4.078  0.2090  0.1120  0.1308
 6853POPS   PO483018  24.722  16.963   4.118  0.0344 -0.1762 -0.2364
 6853POPS   GL183019  24.850  16.973   4.491 -0.3509  0.1858  0.0099
 6853POPS   GL283020  24.686  16.840   4.715 -0.2117  0.1146  0.1864
 6853POPS   C1A83021  24.940  17.210   4.898  0.1481  0.1671 -0.1777
 6853POPS   D2A83022  25.096  17.493   5.241  0.0892  0.0425 -0.0726
 6853POPS   C3A83023  24.907  17.566   5.613  0.0928 -0.2528 -0.0045
 6853POPS   C4A83024  24.877  17.476   6.075 -0.0328  0.3277  0.1763
 6853POPS   C1B83025  24.638  16.782   5.160 -0.1234  0.1392  0.1789
 6853POPS   C2B83026  24.578  16.738   5.623  0.1309 -0.0035  0.1245
 6853POPS   C3B83027  24.654  16.601   6.056 -0.0826 -0.0562  0.0980
 6853POPS   C4B83028  24.628  16.167   6.218 -0.0088  0.0575  0.0454
 6854POPS   CNO83029   1.483  15.778   3.483  0.3733  0.1177 -0.0032
 6854POPS   PO483030   1.285  16.064   3.630  0.0565 -0.3976 -0.0110
 6854POPS   GL183031   1.422  15.850   3.947  0.1579  0.0776  0.0109
 6854POPS   GL283032   1.224  15.922   4.126  0.0030  0.0922  0.0143
 6854POPS   C1A83033   1.838  15.798   3.935  0.0416  0.1021 -0.0602
 6854POPS   D2A83034   2.268  15.629   4.061 -0.0188 -0.5050 -0.2505
 6854POPS   C3A83035   2.534  16.010   4.273  0.3922 -0.0532  0.1952
 6854POPS   C4A83036   2.561  16.434   4.379 -0.4759  0.2773  0.1423
 6854POPS   C1B83037   1.580  15.707   4.385  0.0842 -0.0350 -0.0414
 6854POPS   C2B83038   2.035  15.759   4.473 -0.1288 -0.2992  0.2934
 6854POPS   C3B83039   2.327  15.989   4.745 -0.1854 -0.2073  0.0424
 6854POPS   C4B83040   2.436  16.422   4.915 -0.0409 -0.0113 -0.4385
 6855POPS   CNO83041  17.743  20.382   3.261 -0.0377 -0.3264  0.0683
 6855POPS   PO483042  17.628  20.629   3.522  0.0055 -0.1040 -0.2515
 6855POPS   GL183043  17.621  20.714   3.867 -0.0388 -0.2407 -0.3201
 6855POPS   GL283044  17.418  20.580   4.018  0.0273 -0.0261 -0.0161
 6855POPS   C1A83045  17.903  20.699   4.267 -0.1671 -0.0710  0.0769
 6855POPS   D2A83046  17.869  20.855   4.713 -0.1858  0.1670 -0.3525
 6855POPS   C3A83047  17.958  20.823   5.143 -0.1794 -0.2612  0.1393
 6855POPS   C4A83048  17.955  20.980   5.602  0.0500 -0.0334 -0.3014
 6855POPS   C1B83049  17.435  20.809   4.380  0.0993 -0.0059 -0.0980
 6855POPS   C2B83050  17.161  20.757   4.752  0.2063 -0.1635  0.0257
 6855POPS   C3B83051  17.060  20.790   5.201  0.1547 -0.0447 -0.1665
 6855POPS   C4B83052  16.677  20.809   5.515 -0.1450  0.0364  0.1641
 6856POPS   CNO83053  22.588  24.801   3.443 -0.1902  0.1225 -0.3964
 6856POPS   PO483054  22.263  24.638   3.505 -0.0875 -0.1085  0.2727
 6856POPS   GL183055  22.360  24.772   3.912  0.1364 -0.0045  0.2117
 6856POPS   GL283056  22.369  24.561   4.115 -0.1959  0.0763  0.2201
 6856POPS   C1A83057  22.134  25.032   4.189  0.0768  0.1652  0.0083
 6856POPS   D2A83058  21.929  25.217   4.596  0.2486 -0.2982  0.1129
 6856POPS   C3A83059  21.881  25.127   5.017 -0.2915  0.3602 -0.0297
 6856POPS   C4A83060  22.063  25.184   5.451  0.3540 -0.0997 -0.2867
 6856POPS   C1B83061  22.685  24.798   4.391 -0.1017 -0.0831  0.0701
 6856POPS   C2B83062  22.731  24.921   4.808 -0.0843 -0.1411  0.1151
 6856POPS   C3B83063  22.961  25.113   5.173  0.0721  0.2119  0.0551
 6856POPS   C4B83064  23.398  25.078   5.293 -0.1921  0.0108  0.2610
 6857POPS   CNO83065   1.103  20.329   3.697 -0.1295  0.1667 -0.1000
 6857POPS   PO483066   1.053  20.648   3.534  0.0266  0.2688  0.4092
 6857POPS   GL183067   1.043  20.782   3.959  0.1498 -0.1061 -0.2735
 6857POPS   GL283068   1.227  20.762   4.142 -0.0022 -0.3652  0.2547
 6857POPS   C1A83069   0.786  20.636   4.309 -0.1655  0.1999  0.0103
 6857POPS   D2A83070   0.521  20.328   4.506  0.1139  0.1208  0.2771
 6857POPS   C3A83071   0.779  20.236   4.860 -0.0999 -0.1091 -0.2970
 6857POPS   C4A83072   0.900  20.112   5.360 -0.1742 -0.0154 -0.1119
 6857POPS   C1B83073   1.254  20.467   4.535 -0.0063 -0.4628  0.0563
 6857POPS   C2B83074   1.229  20.424   5.006 -0.1739 -0.0074  0.0773
 6857POPS   C3B83075   1.611  20.588   5.234  0.0494 -0.2516 -0.2736
 6857POPS   C4B83076   2.051  20.598   5.325  0.0645  0.4013 -0.0717
 6858POPS   CNO83077   5.102   0.948   3.504 -0.0560 -0.0756 -0.1359
 6858POPS   PO483078   4.999   0.908   3.854  0.0944 -0.3387 -0.3870
 6858POPS   GL183079   5.164   1.019   4.215  0.1356  0.0838 -0.3922
 6858POPS   GL283080   4.981   0.946   4.416 -0.0447 -0.0552  0.2357
 6858POPS   C1A83081   5.468   0.976   4.548 -0.2390  0.3486 -0.1405
 6858POPS   D2A83082   5.449   0.943   5.042  0.1977  0.2633 -0.0499
 6858POPS   C3A83083   5.296   0.555   5.243 -0.0493  0.1777  0.2766
 6858POPS   C4A83084   4.833   0.461   5.271 -0.0433 -0.0183  0.2918
 6858POPS   C1B83085   5.043   1.196   4.719 -0.0242  0.1667  0.0091
 6858POPS   C2B83086   5.227   1.359   5.114  0.2378 -0.2453  0.1311
 6858POPS   C3B83087   5.235   1.599   5.486  0.0040  0.1374  0.0568
 6858POPS   C4B83088   5.355   2.044   5.549  0.1340 -0.0791 -0.0123
 6859POPS   CNO83089  27.216  18.886   3.013 -0.1592 -0.0900 -0.0288
 6859POPS   PO483090  26.997  18.996   3.285  0.0478  0.1167  0.3840
 6859POPS   GL183091  26.990  18.975   3.638  0.1538 -0.0244 -0.2082
 6859POPS   GL283092  26.774  18.941   3.755 -0.1243  0.1906 -0.2123
 6859POPS   C1A83093  27.121  19.332   3.914  0.1464  0.0032  0.0432
 6859POPS   D2A83094  27.345  19.653   4.155 -0.2635 -0.0488 -0.2296
 6859POPS   C3A83095  27.530  19.677   4.647  0.0150  0.1088 -0.0692
 6859POPS   C4A83096  27.645  19.552   5.144 -0.1637  0.2002  0.2133
 6859POPS   C1B83097  26.942  18.976   4.152 -0.1206 -0.1275 -0.1883
 6859POPS   C2B83098  26.729  18.756   4.516  0.1438 -0.0408  0.1464
 6859POPS   C3B83099  26.538  18.603   4.843  0.1319  0.1086  0.0826
 6859POPS   C4B83100  26.248  18.840   5.158  0.0782  0.0956  0.2085
 6860POPS   CNO83101  27.889  20.652   3.300 -0.6008  0.2105  0.1166
 6860POPS   PO483102  27.651  20.645   3.610  0.0267  0.0412 -0.1907
 6860POPS   GL183103  27.800  20.433   3.950 -0.3207 -0.0773  0.2337
 6860POPS   GL283104  27.842  20.559   4.268 -0.2246  0.2046 -0.0475
 6860POPS   C1A83105  27.682  20.008   4.145 -0.1653  0.0260 -0.0284
 6860POPS   D2A83106  27.920  19.612   4.279 -0.0120  0.1544  0.0185
 6860POPS   C3A83107  28.103  19.750   4.746  0.0601  0.0675 -0.0911
 6860POPS   C4A83108  28.087  19.704   5.218  0.1043  0.0254  0.1398
 6860POPS   C1B83109  27.958  20.606   4.675  0.0268  0.1390 -0.2110
 6860POPS   C2B83110  28.030  20.424   5.117  0.0713  0.2693 -0.3092
 6860POPS   C3B83111  28.089  20.153   5.435 -0.0993 -0.0148 -0.3000
 6860POPS   C4B83112  28.018  19.928   5.836  0.1488 -0.1906  0.1252
 6861POPS   CNO83113   4.290  26.475   3.640  0.1664 -0.2548 -0.1214
 6861POPS   PO483114   4.549  26.193   3.571  0.1537 -0.4584  0.0174
 6861POPS   GL183115   4.522  26.069   3.953 -0.0574  0.0046 -0.5424
 6861POPS   GL283116   4.269  26.107   4.011  0.2670  0.1820  0.0876
 6861POPS   C1A83117   4.510  26.000   4.434  0.0893  0.0867 -0.3274
 6861POPS   D2A83118   4.363  26.092   4.802 -0.0526  0.3140 -0.2829
 6861POPS   C3A83119   4.446  25.978   5.230 -0.2550  0.0173 -0.0586
 6861POPS   C4A83120   4.587  25.921   5.705 -0.1677 -0.0047 -0.0910
 6861POPS   C1B83121   4.377  26.445   4.324  0.1953 -0.0060  0.0254
 6861POPS   C2B83122   4.239  26.557   4.744 -0.1751 -0.1118  0.0822
 6861POPS   C3B83123   4.019  26.842   5.066 -0.1670 -0.0427 -0.0083
 6861POPS   C4B83124   3.933  26.963   5.521 -0.0567  0.0982  0.0357
 6862POPS   CNO83125  29.067  24.430   3.239 -0.1288  0.1748 -0.2599
 6862POPS   PO483126  29.128  24.465   3.612  0.1436 -0.1719 -0.1901
 6862POPS   GL183127  29.286  24.510   3.997 -0.1956  0.5064  0.0019
 6862POPS   GL283128  29.088  24.784   4.121 -0.3027 -0.0463 -0.0948
 6862POPS   C1A83129  29.584  24.383   4.268 -0.3862  0.0972 -0.2899
 6862POPS   D2A83130  29.940  24.594   4.431  0.0407 -0.2238  0.2204
 6862POPS   C3A83131  30.045  24.398   4.856  0.2676  0.1548 -0.2170
 6862POPS   C4A83132  30.182  24.145   5.200  0.0735  0.3777  0.0848
 6862POPS   C1B83133  28.991  24.979   4.597 -0.1948  0.0716  0.1040
 6862POPS   C2B83134  28.948  24.968   5.058 -0.2719  0.1374  0.2067
 6862POPS   C3B83135  29.087  24.747   5.439  0.1202 -0.1994 -0.0010
 6862POPS   C4B83136  28.733  24.691   5.782  0.0157  0.2899  0.3674
 6863POPS   CNO83137  11.273  31.032   3.178 -0.1371  0.1884  0.3157
 6863POPS   PO483138  11.219  31.191   3.488 -0.0784  0.0353 -0.2310
 6863POPS   GL183139  11.210  31.162   3.898 -0.3658  0.0908 -0.0276
 6863POPS   GL283140  11.448  31.034   3.963  0.4346 -0.2562 -0.0234
 6863POPS   C1A83141  10.957  31.223   4.227  0.1941  0.0956 -0.1225
 6863POPS   D2A83142  10.743  31.627   4.409  0.2675 -0.2973 -0.0656
 6863POPS   C3A83143  10.685  31.681   4.860 -0.0402 -0.0680  0.0537
 6863POPS   C4A83144  11.098  31.785   5.019 -0.0731  0.2968 -0.1228
 6863POPS   C1B83145  11.377  31.007   4.451  0.0065 -0.0763  0.1631
 6863POPS   C2B83146  11.318  30.820   4.841  0.2741  0.0141 -0.0126
 6863POPS   C3B83147  11.502  30.930   5.325  0.0959  0.0733  0.0842
 6863POPS   C4B83148  11.265  30.969   5.721 -0.0328 -0.0165  0.1044
 6864POPS   CNO83149  24.592  17.832   3.670 -0.4159 -0.0350 -0.1264
 6864POPS   PO483150  24.479  17.891   3.990  0.0079 -0.2505 -0.0441
 6864POPS   GL183151  24.420  17.824   4.441 -0.3883 -0.0147  0.2144
 6864POPS   GL283152  24.208  17.685   4.559  0.0481 -0.0284  0.0093
 6864POPS   C1A83153  24.632  17.529   4.777 -0.0470 -0.0272 -0.1041
 6864POPS   D2A83154  24.597  17.326   5.195 -0.2551  0.2034 -0.1574
 6864POPS   C3A83155  24.892  17.114   5.428 -0.2731  0.1576  0.1194
 6864POPS   C4A83156  24.985  16.999   5.867  0.1277 -0.0483 -0.1324
 6864POPS   C1B83157  24.148  17.716   5.021  0.2085 -0.1981 -0.2169
 6864POPS   C2B83158  24.218  17.468   5.448 -0.0153 -0.0766 -0.2012
 6864POPS   C3B83159  24.501  17.205   5.708 -0.0925 -0.1708 -0.2209
 6864POPS   C4B83160  24.540  17.078   6.145  0.2102 -0.0620 -0.4001
 6865POPS   CNO83161  16.819   1.217   3.737  0.1698  0.0831  0.4437
 6865POPS   PO483162  16.863   1.612   3.819  0.2227 -0.1270  0.3871
 6865POPS   GL183163  16.739   1.792   4.133  0.2136 -0.0873  0.1052
 6865POPS   GL283164  17.025   1.746   4.299 -0.3177 -0.2353 -0.0467
 6865POPS   C1A83165  16.608   1.592   4.577 -0.0284 -0.0268  0.0739
 6865POPS   D2A83166  16.741   1.511   5.065  0.0912 -0.0761 -0.4925
 6865POPS   C3A83167  16.389   1.605   5.397  0.1495 -0.0475  0.0601
 6865POPS   C4A83168  16.182   1.836   5.721 -0.0161  0.2738  0.3358
 6865POPS   C1B83169  17.024   2.096   4.610  0.0599  0.1026  0.1982
 6865POPS   C2B83170  17.352   2.369   4.847 -0.1367 -0.0937  0.1003
 6865POPS   C3B83171  17.459   2.464   5.284 -0.3989  0.0209 -0.1326
 6865POPS   C4B83172  17.547   2.310   5.716 -0.1482  0.4174  0.1245
 6866POPS   CNO83173   1.334  13.226   3.676  0.3595 -0.0114 -0.2443
 6866POPS   PO483174   1.311  13.060   4.033 -0.0447 -0.3266 -0.1273
 6866POPS   GL183175   1.363  13.274   4.396 -0.0149  0.0137 -0.2105
 6866POPS   GL283176   1.641  13.407   4.366 -0.1914 -0.1316  0.2545
 6866POPS   C1A83177   1.482  13.016   4.757  0.0699 -0.2693 -0.0656
 6866POPS   D2A83178   1.633  12.982   5.211  0.0839  0.0580 -0.1354
 6866POPS   C3A83179   1.321  13.163   5.503 -0.2467  0.0310 -0.2447
 6866POPS   C4A83180   1.433  13.089   5.961 -0.0956  0.0285 -0.1605
 6866POPS   C1B83181   1.628  13.494   4.817 -0.0191  0.0441 -0.1152
 6866POPS   C2B83182   1.567  13.562   5.280 -0.5109 -0.1737  0.0474
 6866POPS   C3B83183   1.599  13.629   5.789  0.1528 -0.2137 -0.3614
 6866POPS   C4B83184   1.894  13.398   6.109  0.1003 -0.1365 -0.0268
 6867POPS   CNO83185   3.221  12.154   3.320 -0.2088  0.2518  0.0202
 6867POPS   PO483186   3.437  12.204   3.622 -0.1574 -0.0250 -0.4550
 6867POPS   GL183187   3.504  12.129   4.065  0.2052 -0.1600  0.0590
 6867POPS   GL283188   3.448  12.393   4.126 -0.0972  0.2723  0.1957
 6867POPS   C1A83189   3.254  11.880   4.380  0.0521  0.0293  0.0134
 6867POPS   D2A83190   3.063  11.760   4.783 -0.0791  0.3548  0.0387
 6867POPS   C3A83191   3.043  11.698   5.230  0.0093 -0.1136 -0.0340
 6867POPS   C4A83192   2.985  11.517   5.625 -0.0417 -0.2466 -0.1295
 6867POPS   C1B83193   3.438  12.360   4.630 -0.1544 -0.3020  0.1632
 6867POPS   C2B83194   3.441  12.394   5.109 -0.4280 -0.0296  0.0628
 6867POPS   C3B83195   3.577  12.487   5.550 -0.3428 -0.1867 -0.1547
 6867POPS   C4B83196   3.543  12.422   6.025 -0.2524  0.1528 -0.0766
 6868POPS   CNO83197  25.787   1.954   3.663 -0.0036 -0.2290  0.1121
 6868POPS   PO483198  26.138   2.050   3.773 -0.2474  0.0387 -0.0662
 6868POPS   GL183199  25.944   2.207   4.051  0.1724  0.1244 -0.3198
 6868POPS   GL283200  26.116   2.185   4.280  0.2323 -0.2062  0.4191
 6868POPS   C1A83201  25.676   2.192   4.475 -0.1772 -0.0554 -0.2023
 6868POPS   D2A83202  25.214   2.355   4.561 -0.4224  0.3308  0.4675
 6868POPS   C3A83203  25.181   2.519   5.000 -0.2251 -0.1738  0.1013
 6868POPS   C4A83204  25.300   2.798   5.329 -0.2408 -0.2237  0.2809
 6868POPS   C1B83205  26.310   2.031   4.613 -0.0215  0.0777 -0.0741
 6868POPS   C2B83206  26.323   1.816   4.949  0.0983  0.2441  0.3775
 6868POPS   C3B83207  26.231   1.666   5.362 -0.0187  0.0404 -0.0384
 6868POPS   C4B83208  26.052   1.593   5.772 -0.1274 -0.1094 -0.0153
 6869POPS   CNO83209  14.052   4.008   3.380  0.2626  0.1489 -0.3267
 6869POPS   PO483210  14.377   3.981   3.588  0.1304  0.1816 -0.0297
 6869POPS   GL183211  14.511   3.765   3.924  0.1864 -0.2079 -0.2459
 6869POPS   GL283212  14.353   3.628   4.039  0.2040  0.1754  0.1698
 6869POPS   C1A83213  14.752   3.699   4.350  0.5444  0.0118 -0.2169
 6869POPS   D2A83214  14.932   3.872   4.696  0.0722  0.0104  0.0249
 6869POPS   C3A83215  14.940   4.189   5.048  0.2909  0.3667  0.0422
 6869POPS   C4A83216  15.036   4.022   5.475  0.0113 -0.0248 -0.1392
 6869POPS   C1B83217  14.258   3.449   4.451 -0.2881  0.2541 -0.0360
 6869POPS   C2B83218  14.469   3.628   4.821  0.1836  0.1041 -0.0143
 6869POPS   C3B83219  14.696   3.774   5.169  0.0183 -0.1018 -0.2563
 6869POPS   C4B83220  14.684   3.515   5.549  0.0151 -0.0956 -0.0598
 6870POPS   CNO83221   0.907  30.122   3.546  0.1363  0.5526  0.1771
 6870POPS   PO483222   1.163  30.275   3.782  0.0189  0.2298  0.2406
 6870POPS   GL183223   1.147  30.375   4.121 -0.2039  0.0732  0.0780
 6870POPS   GL283224   1.111  30.650   4.075 -0.0109 -0.2633 -0.3418
 6870POPS   C1A83225   0.902  30.237   4.487 -0.0488  0.0722  0.1728
 6870POPS   D2A83226   0.884  29.926   4.861  0.1391 -0.0221 -0.0233
 6870POPS   C3A83227   0.831  30.129   5.253 -0.0478 -0.0554 -0.2502
 6870POPS   C4A83228   0.613  30.016   5.660 -0.0073  0.1756  0.1454
 6870POPS   C1B83229   1.193  30.750   4.463 -0.3973 -0.1432  0.0952
 6870POPS   C2B83230   1.076  30.572   4.820  0.0148  0.0752  0.0020
 6870POPS   C3B83231   1.257  30.367   5.178 -0.2429 -0.1297 -0.0014
 6870POPS   C4B83232   1.104  30.344   5.581  0.2170 -0.3673 -0.3281
 6871POPS   CNO83233  20.979  21.597   3.085  0.2091  0.0895 -0.1674
 6871POPS   PO483234  21.066  21.714   3.431 -0.2664 -0.0513  0.1703
 6871POPS   GL183235  21.240  21.824   3.783  0.0393 -0.0692  0.2490
 6871POPS   GL283236  21.529  21.769   3.789  0.0914  0.1777 -0.0082
 6871POPS   C1A83237  21.210  21.535   4.144 -0.0523 -0.2077 -0.0769
 6871POPS   D2A83238  21.113  21.085   4.210 -0.0199  0.2552 -0.1280
 6871POPS   C3A83239  21.253  20.841   4.602  0.2012 -0.0244  0.0770
 6871POPS   C4A83240  21.114  20.608   4.994 -0.1148  0.1874  0.2391
 6871POPS   C1B83241  21.652  21.742   4.206 -0.1999  0.0879 -0.1537
 6871POPS   C2B83242  21.673  21.793   4.675 -0.0824 -0.1346  0.1054
 6871POPS   C3B83243  21.810  21.812   5.097  0.0465 -0.1465 -0.0854
 6871POPS   C4B83244  21.926  21.666   5.468  0.2883 -0.1153  0.1253
 6872POPS   CNO83245  23.920  10.860   3.467 -0.3409 -0.0876  0.1467
 6872POPS   PO483246  23.863  10.950   3.810  0.0259 -0.0478 -0.0633
 6872POPS   GL183247  23.706  10.750   4.049  0.2676 -0.4427 -0.0393
 6872POPS   GL283248  23.901  10.722   4.297  0.2164  0.2929 -0.0162
 6872POPS   C1A83249  23.431  10.532   4.308  0.2039 -0.3888 -0.0056
 6872POPS   D2A83250  23.236  10.432   4.665  0.4876 -0.1273 -0.0974
 6872POPS   C3A83251  23.468  10.529   5.087  0.0294 -0.3229  0.2259
 6872POPS   C4A83252  23.546  10.761   5.523 -0.3486  0.3165  0.2389
 6872POPS   C1B83253  23.691  10.774   4.702 -0.1447 -0.0486  0.0095
 6872POPS   C2B83254  23.516  11.089   5.032 -0.0202 -0.1904  0.1209
 6872POPS   C3B83255  23.235  11.483   5.166 -0.1290  0.0653  0.0230
 6872POPS   C4B83256  23.279  11.776   5.547  0.2213  0.1252  0.2156
 6873POPS   CNO83257   2.190  21.634   3.356 -0.0213  0.2789  0.2137
 6873POPS   PO483258   2.348  21.288   3.251 -0.2346 -0.1525  0.2744
 6873POPS   GL183259   2.509  21.303   3.677  0.2538  0.2164  0.0869
 6873POPS   GL283260   2.507  21.622   3.794  0.0525  0.0162 -0.2807
 6873POPS   C1A83261   2.564  21.185   4.138  0.1168  0.0974  0.2648
 6873POPS   D2A83262   2.984  21.095   4.341 -0.1985  0.2935 -0.1325
 6873POPS   C3A83263   3.130  20.846   4.677  0.2307  0.0500 -0.2034
 6873POPS   C4A83264   3.038  20.666   4.998 -0.2044 -0.3081 -0.3969
 6873POPS   C1B83265   2.271  21.620   4.209  0.1211 -0.2887  0.0543
 6873POPS   C2B83266   2.286  21.761   4.704  0.0191 -0.0392  0.1033
 6873POPS   C3B83267   1.958  21.836   5.023  0.0014 -0.0468  0.1580
 6873POPS   C4B83268   1.663  21.984   5.367  0.0028  0.0163  0.0358
 6874POPS   CNO83269   1.377   2.113   3.833 -0.0476  0.3353  0.0849
 6874POPS   PO483270   1.460   2.493   3.935  0.0649  0.1345  0.3990
 6874POPS   GL183271   1.338   2.457   4.212  0.2671 -0.2321 -0.3946
 6874POPS   GL283272   1.216   2.711   4.294 -0.0864  0.2224 -0.0096
 6874POPS   C1A83273   1.511   2.036   4.364  0.0964 -0.0376 -0.0458
 6874POPS   D2A83274   1.905   1.818   4.559  0.1624  0.0299  0.1978
 6874POPS   C3A83275   1.871   1.794   5.011  0.0162  0.1713 -0.0207
 6874POPS   C4A83276   2.053   1.799   5.435  0.1007 -0.0537  0.2813
 6874POPS   C1B83277   1.274   2.763   4.765  0.1217 -0.1401 -0.2546
 6874POPS   C2B83278   1.402   2.876   5.153  0.0787  0.1613  0.2218
 6874POPS   C3B83279   1.317   2.864   5.616 -0.1714  0.1184 -0.0047
 6874POPS   C4B83280   1.093   3.030   5.998 -0.0334  0.0639 -0.2116
 6875POPS   CNO83281  26.389   3.352   3.648  0.2459 -0.2294  0.1504
 6875POPS   PO483282  26.476   3.451   3.970  0.0777  0.3428 -0.1721
 6875POPS   GL183283  26.465   3.379   4.361  0.0755 -0.0211 -0.0894
 6875POPS   GL283284  26.218   3.290   4.555  0.1363 -0.1168  0.1062
 6875POPS   C1A83285  26.651   3.146   4.734 -0.3159  0.1735 -0.1297
 6875POPS   D2A83286  26.668   3.039   5.224  0.3236 -0.1272 -0.0805
 6875POPS   C3A83287  26.967   3.217   5.537 -0.2777 -0.2600 -0.1348
 6875POPS   C4A83288  26.969   3.336   5.976  0.0823  0.0796  0.2841
 6875POPS   C1B83289  26.393   3.502   4.952 -0.1642 -0.5272 -0.0781
 6875POPS   C2B83290  26.604   3.688   5.349  0.2774  0.1954  0.1590
 6875POPS   C3B83291  26.983   3.767   5.686  0.2819  0.0258  0.0557
 6875POPS   C4B83292  27.414   3.651   5.661 -0.4752 -0.0738  0.0607
 6876POPS   CNO83293  28.074  27.178   3.897  0.0635 -0.0202 -0.1813
 6876POPS   PO483294  28.239  26.833   3.802 -0.1845 -0.1158  0.0352
 6876POPS   GL183295  28.365  26.854   4.139 -0.1018  0.3361 -0.0511
 6876POPS   GL283296  28.629  26.783   4.169  0.0740 -0.1138  0.1590
 6876POPS   C1A83297  28.338  26.683   4.594 -0.0741 -0.1397  0.0142
 6876POPS   D2A83298  28.610  26.586   4.948 -0.1552  0.1486 -0.0327
 6876POPS   C3A83299  28.449  26.658   5.392  0.1111 -0.1435 -0.1613
 6876POPS   C4A83300  28.121  26.834   5.716 -0.1276 -0.0320  0.0799
 6876POPS   C1B83301  29.020  26.627   4.448  0.0243 -0.4188 -0.2428
 6876POPS   C2B83302  29.098  26.561   4.864 -0.0558  0.1334 -0.1142
 6876POPS   C3B83303  28.962  26.572   5.285 -0.1317  0.0702 -0.0328
 6876POPS   C4B83304  28.964  26.538   5.737 -0.0222  0.0939 -0.0610
 6877POPS   CNO83305  25.441  12.327   3.204  0.0396 -0.0541  0.1666
 6877POPS   PO483306  25.621  12.087   3.422  0.1080 -0.0131 -0.4358
 6877POPS   GL183307  25.599  11.829   3.713 -0.0320 -0.5379  0.0745
 6877POPS   GL283308  25.493  12.069   3.948 -0.0813  0.2283  0.1262
 6877POPS   C1A83309  25.268  11.629   3.967 -0.1475 -0.0074 -0.0418
 6877POPS   D2A83310  24.821  11.742   4.026 -0.1023  0.0279  0.0435
 6877POPS   C3A83311  24.641  11.867   4.375 -0.1716 -0.0074  0.2544
 6877POPS   C4A83312  24.764  11.744   4.798 -0.4641 -0.2546  0.4088
 6877POPS   C1B83313  25.312  11.938   4.342 -0.0140  0.2818  0.2665
 6877POPS   C2B83314  25.266  11.817   4.771 -0.0144  0.1050  0.0063
 6877POPS   C3B83315  25.531  11.683   5.106  0.1230  0.1016 -0.0657
 6877POPS   C4B83316  25.671  11.553   5.524  0.1082 -0.0179  0.0906
 6878POPS   CNO83317   2.596   9.614   3.402  0.1774  0.1914 -0.1385
 6878POPS   PO483318   2.773   9.319   3.290 -0.0451  0.2177  0.0878
 6878POPS   GL183319   2.599   9.014   3.330  0.1069  0.0234  0.0765
 6878POPS   GL283320   2.747   8.825   3.505  0.0706  0.1534  0.0522
 6878POPS   C1A83321   2.245   8.744   3.448  0.0737  0.0113  0.0018
 6878POPS   D2A83322   2.156   8.313   3.562 -0.1838  0.1165  0.1266
 6878POPS   C3A83323   1.941   8.102   3.936 -0.0311 -0.0758  0.1970
 6878POPS   C4A83324   1.796   7.873   4.276  0.0112  0.3708 -0.0159
 6878POPS   C1B83325   2.600   8.943   3.937 -0.2065  0.3097  0.0887
 6878POPS   C2B83326   2.536   9.298   4.167 -0.2675 -0.2131  0.2371
 6878POPS   C3B83327   2.423   9.403   4.552 -0.0753 -0.0950 -0.2960
 6878POPS   C4B83328   2.561   9.554   4.970  0.0044  0.0215  0.2134
 6879POPS   CNO83329   2.771  14.331   3.727  0.0484  0.0491  0.1721
 6879POPS   PO483330   2.614  14.140   4.033  0.0370 -0.1300 -0.1395
 6879POPS   GL183331   2.475  14.127   4.354 -0.0024  0.1476 -0.1336
 6879POPS   GL283332   2.693  13.930   4.479  0.1097 -0.1243 -0.2325
 6879POPS   C1A83333   2.304  14.025   4.774 -0.1221 -0.0459 -0.4639
 6879POPS   D2A83334   2.370  13.891   5.179 -0.0756  0.6104  0.1997
 6879POPS   C3A83335   2.206  13.635   5.533 -0.0019  0.4245 -0.1210
 6879POPS   C4A83336   1.846  13.251   5.544  0.2101  0.0057 -0.1474
 6879POPS   C1B83337   2.782  14.061   4.900  0.0330 -0.1987  0.2174
 6879POPS   C2B83338   2.896  14.266   5.277  0.2380  0.3085  0.0907
 6879POPS   C3B83339   3.136  14.517   5.541  0.1818  0.1270  0.1274
 6879POPS   C4B83340   3.236  14.978   5.586  0.0141 -0.1279 -0.0106
 6880POPS   CNO83341  17.045  15.280   3.614  0.0430 -0.1394  0.0923
 6880POPS   PO483342  17.225  15.149   3.944  0.0392  0.3110  0.0136
 6880POPS   GL183343  17.259  15.012   4.310  0.0969 -0.2649 -0.0905
 6880POPS   GL283344  16.933  15.034   4.351  0.3401 -0.0202  0.0702
 6880POPS   C1A83345  17.358  15.178   4.739  0.0279  0.0164 -0.1870
 6880POPS   D2A83346  17.540  15.310   5.147  0.0717 -0.0338  0.3784
 6880POPS   C3A83347  17.444  15.496   5.587 -0.0274  0.0255  0.0399
 6880POPS   C4A83348  17.611  15.821   5.843 -0.0906  0.0363 -0.1762
 6880POPS   C1B83349  16.925  14.822   4.798 -0.3612 -0.2230  0.0459
 6880POPS   C2B83350  16.813  14.841   5.261  0.0406  0.1553  0.1446
 6880POPS   C3B83351  16.724  15.071   5.648  0.0003 -0.1570 -0.0201
 6880POPS   C4B83352  16.554  15.214   6.066 -0.1321  0.2836  0.2670
 6881POPS   CNO83353  28.500  11.802   3.407  0.2179  0.0941  0.3394
 6881POPS   PO483354  28.444  12.164   3.342  0.3226 -0.4480  0.1517
 6881POPS   GL183355  28.436  12.300   3.670  0.1365  0.1772 -0.1828
 6881POPS   GL283356  28.200  12.541   3.680 -0.0535 -0.3409  0.0938
 6881POPS   C1A83357  28.420  12.234   4.114  0.1364 -0.3101  0.2212
 6881POPS   D2A83358  28.703  12.260   4.507  0.0388 -0.2137 -0.0441
 6881POPS   C3A83359  28.952  11.979   4.743 -0.0409  0.0289 -0.1222
 6881POPS   C4A83360  28.965  11.635   5.059 -0.0097  0.2019  0.1740
 6881POPS   C1B83361  28.000  12.520   4.119 -0.2713  0.0730  0.0358
 6881POPS   C2B83362  28.051  12.415   4.616 -0.1207  0.0294  0.0195
 6881POPS   C3B83363  27.966  12.715   4.958 -0.2205  0.1723  0.5408
 6881POPS   C4B83364  27.967  12.824   5.404 -0.2676 -0.1098  0.3008
 6882POPS   CNO83365   5.652   3.366   3.118  0.0842 -0.1457  0.0444
 6882POPS   PO483366   5.864   3.395   3.433 -0.0963  0.1271  0.0395
 6882POPS   GL183367   6.028   3.610   3.694 -0.0599  0.2166  0.1180
 6882POPS   GL283368   5.851   3.647   3.936  0.5084  0.1433  0.3394
 6882POPS   C1A83369   6.368   3.904   3.630 -0.2889  0.1565  0.4469
 6882POPS   D2A83370   6.666   4.230   3.668 -0.2659  0.1771  0.1917
 6882POPS   C3A83371   6.402   4.592   3.823  0.1845  0.1029  0.1135
 6882POPS   C4A83372   6.163   4.990   3.812 -0.3255 -0.3243  0.0148
 6882POPS   C1B83373   5.881   3.367   4.292 -0.1618  0.0931  0.0545
 6882POPS   C2B83374   6.052   3.100   4.699  0.3286 -0.0263 -0.0227
 6882POPS   C3B83375   5.979   3.026   5.185  0.4628  0.0122 -0.1881
 6882POPS   C4B83376   5.737   2.975   5.532  0.1034 -0.2808 -0.1510
 6883POPS   CNO83377  21.502  26.693   4.138 -0.1401  0.1882 -0.1552
 6883POPS   PO483378  21.799  26.480   4.082 -0.4184  0.0482  0.0073
 6883POPS   GL183379  21.879  26.575   4.491 -0.1693  0.1318 -0.2180
 6883POPS   GL283380  21.929  26.277   4.589  0.2287  0.1455  0.0575
 6883POPS   C1A83381  21.781  26.762   4.926 -0.1235  0.0308  0.0462
 6883POPS   D2A83382  21.951  26.812   5.374 -0.0978  0.2415  0.2105
 6883POPS   C3A83383  21.846  26.560   5.757 -0.1194  0.2719 -0.0412
 6883POPS   C4A83384  21.938  26.561   6.235 -0.1325 -0.0296  0.1625
 6883POPS   C1B83385  22.371  26.310   4.798  0.0335  0.1968  0.1165
 6883POPS   C2B83386  22.801  26.151   4.886 -0.0004 -0.0270  0.0390
 6883POPS   C3B83387  22.946  25.828   5.195  0.1729  0.1234  0.0185
 6883POPS   C4B83388  23.079  25.547   5.582  0.0208 -0.1128  0.1904
 6884POPS   CNO83389  25.054  16.242   3.699 -0.4553 -0.2993  0.0442
 6884POPS   PO483390  24.920  16.063   4.042  0.1284  0.0988  0.0425
 6884POPS   GL183391  25.085  16.054   4.381 -0.2033  0.0425 -0.2974
 6884POPS   GL283392  25.133  15.779   4.468  0.5005 -0.2613 -0.0362
 6884POPS   C1A83393  25.145  16.243   4.809 -0.1259 -0.0502  0.2737
 6884POPS   D2A83394  25.135  16.160   5.231 -0.0206  0.2532 -0.0339
 6884POPS   C3A83395  25.316  16.215   5.589  0.2242 -0.3600 -0.4238
 6884POPS   C4A83396  25.095  15.913   5.917 -0.1223 -0.2128  0.0590
 6884POPS   C1B83397  25.115  15.749   4.898 -0.0249 -0.1556  0.1393
 6884POPS   C2B83398  25.174  15.635   5.360 -0.0243  0.0105  0.2872
 6884POPS   C3B83399  25.035  15.302   5.730  0.1362 -0.0882  0.0969
 6884POPS   C4B83400  24.827  15.279   6.156 -0.0680  0.1805  0.0137
 6885POPS   CNO83401   4.011  13.811   3.699  0.0175  0.0020  0.2977
 6885POPS   PO483402   4.367  13.670   3.629  0.1788 -0.0400 -0.0874
 6885POPS   GL183403   4.508  13.929   3.978 -0.0454 -0.4020 -0.0535
 6885POPS   GL283404   4.724  13.854   4.005 -0.1722 -0.2254  0.2578
 6885POPS   C1A83405   4.742  14.301   4.179  0.0353  0.0014  0.0354
 6885POPS   D2A83406   4.868  14.357   4.658  0.1674 -0.3932  0.0849
 6885POPS   C3A83407   5.239  14.329   4.982  0.2139 -0.0630 -0.0696
 6885POPS   C4A83408   5.713  14.358   5.119  0.2466  0.1584  0.0008
 6885POPS   C1B83409   4.885  13.750   4.396 -0.1377 -0.0260 -0.0291
 6885POPS   C2B83410   5.040  13.849   4.826 -0.0463 -0.2892 -0.0842
 6885POPS   C3B83411   5.359  13.786   5.190  0.0184 -0.2776 -0.0133
 6885POPS   C4B83412   5.743  13.498   5.262 -0.3207 -0.0856  0.2312
 6886POPS   CNO83413  28.982  13.037   3.351 -0.1037 -0.3027  0.1073
 6886POPS   PO483414  28.622  13.080   3.442 -0.2061 -0.0092 -0.0601
 6886POPS   GL183415  28.478  13.111   3.819 -0.1746  0.0528 -0.0740
 6886POPS   GL283416  28.553  12.864   3.963  0.1356 -0.3930 -0.0661
 6886POPS   C1A83417  28.095  12.971   4.066 -0.2519 -0.0132 -0.2813
 6886POPS   D2A83418  28.090  13.006   4.554  0.1424  0.1033 -0.0678
 6886POPS   C3A83419  27.666  13.094   4.734 -0.0370 -0.0838  0.1621
 6886POPS   C4A83420  27.414  12.975   5.165  0.0755 -0.1260  0.1852
 6886POPS   C1B83421  28.398  12.699   4.377 -0.0417  0.0113 -0.0078
 6886POPS   C2B83422  28.453  12.558   4.815  0.1341 -0.0551 -0.3408
 6886POPS   C3B83423  28.251  12.345   5.160  0.3144  0.1064  0.1217
 6886POPS   C4B83424  28.005  12.242   5.524 -0.2350  0.3807 -0.0506
 6887POPS   CNO83425  15.278  13.247   3.720 -0.0491 -0.2281 -0.0456
 6887POPS   PO483426  15.302  12.911   3.865 -0.0132  0.0944  0.0672
 6887POPS   GL183427  15.486  12.833   4.263 -0.0573  0.5395  0.0726
 6887POPS   GL283428  15.199  12.927   4.407 -0.2344 -0.1809  0.2850
 6887POPS   C1A83429  15.465  12.562   4.644 -0.2361  0.0884 -0.0466
 6887POPS   D2A83430  15.451  12.514   5.055 -0.2716  0.2974 -0.1021
 6887POPS   C3A83431  15.380  12.856   5.304 -0.0843 -0.2578 -0.1461
 6887POPS   C4A83432  15.282  12.976   5.723  0.0688  0.2140 -0.1572
 6887POPS   C1B83433  15.168  12.944   4.868  0.1183  0.2854  0.0469
 6887POPS   C2B83434  14.958  12.674   5.205  0.3649  0.2715 -0.0229
 6887POPS   C3B83435  15.093  12.228   5.245  0.0285  0.0631  0.0472
 6887POPS   C4B83436  14.818  11.994   5.466  0.1288 -0.1751 -0.1980
 6888POPS   CNO83437   5.568  27.022   3.273 -0.2339  0.2023 -0.4993
 6888POPS   PO483438   5.626  26.762   3.526 -0.2881 -0.0075  0.0058
 6888POPS   GL183439   5.512  26.652   3.936 -0.0339  0.2226  0.1220
 6888POPS   GL283440   5.363  26.518   4.123  0.3077  0.2147  0.1423
 6888POPS   C1A83441   5.840  26.746   4.221  0.0973 -0.0135  0.1570
 6888POPS   D2A83442   6.173  26.464   4.309  0.1627 -0.0082 -0.1041
 6888POPS   C3A83443   6.519  26.725   4.576  0.0117  0.1247 -0.1455
 6888POPS   C4A83444   6.556  26.962   4.974 -0.0919 -0.3998 -0.1103
 6888POPS   C1B83445   5.385  26.843   4.439  0.1438  0.0896 -0.1204
 6888POPS   C2B83446   5.136  26.840   4.848 -0.3224 -0.0746 -0.0275
 6888POPS   C3B83447   4.871  27.015   5.148 -0.1583 -0.0289  0.1177
 6888POPS   C4B83448   4.979  27.140   5.567  0.4395 -0.2034 -0.1018
 6889POPS   CNO83449  15.151   1.773   3.757 -0.1029  0.0695  0.0370
 6889POPS   PO483450  14.823   1.775   3.610  0.1125  0.0560 -0.0959
 6889POPS   GL183451  14.730   1.704   3.971 -0.0152  0.1711  0.0921
 6889POPS   GL283452  14.915   1.847   4.151 -0.3703 -0.0320  0.0329
 6889POPS   C1A83453  14.701   1.494   4.415 -0.1402  0.0728  0.1032
 6889POPS   D2A83454  14.736   1.651   4.775  0.1533  0.0333 -0.2213
 6889POPS   C3A83455  14.424   1.445   5.025 -0.1612 -0.2002  0.0153
 6889POPS   C4A83456  14.238   1.344   5.422  0.0962 -0.3837  0.0493
 6889POPS   C1B83457  15.094   1.863   4.552  0.0455  0.0802  0.1589
 6889POPS   C2B83458  15.311   1.905   5.002  0.1306 -0.1959  0.0260
 6889POPS   C3B83459  15.229   1.881   5.469  0.1206  0.0815 -0.2193
 6889POPS   C4B83460  15.212   1.511   5.854 -0.1042  0.1937 -0.0110
 6890POPS   CNO83461  10.487  19.686   3.815  0.1195  0.2031  0.1937
 6890POPS   PO483462  10.113  19.569   3.709  0.1318  0.1707 -0.0789
 6890POPS   GL183463  10.104  19.759   4.007  0.1151  0.0961 -0.1778
 6890POPS   GL283464  10.162  20.014   4.144  0.3567 -0.2919 -0.2154
 6890POPS   C1A83465  10.283  19.494   4.334 -0.0072  0.0897  0.3779
 6890POPS   D2A83466  10.371  19.183   4.627  0.0268 -0.3626  0.2814
 6890POPS   C3A83467  10.235  19.176   5.032  0.0867  0.1447  0.0178
 6890POPS   C4A83468  10.015  18.826   5.249  0.2038 -0.1770 -0.1881
 6890POPS   C1B83469  10.252  20.023   4.555  0.0905  0.4198  0.0402
 6890POPS   C2B83470  10.120  19.992   4.972 -0.4060  0.2922  0.4802
 6890POPS   C3B83471  10.193  19.730   5.305  0.3056 -0.0034 -0.1983
 6890POPS   C4B83472  10.125  19.264   5.551 -0.1055  0.2520  0.2189
 6891POPS   CNO83473  12.487  23.731   3.595 -0.2651 -0.0330  0.2347
 6891POPS   PO483474  12.333  23.684   3.914  0.0602 -0.1073 -0.0048
 6891POPS   GL183475  12.271  23.653   4.252 -0.0426 -0.0680  0.3443
 6891POPS   GL283476  12.329  23.338   4.298  0.0428 -0.1432 -0.0420
 6891POPS   C1A83477  11.925  23.639   4.564  0.3122  0.0529  0.3973
 6891POPS   D2A83478  11.495  23.553   4.365  0.2379 -0.2025 -0.0277
 6891POPS   C3A83479  11.122  23.330   4.488  0.0223 -0.1193 -0.1405
 6891POPS   C4A83480  11.228  23.367   4.939  0.0284  0.1225  0.2890
 6891POPS   C1B83481  12.657  23.522   4.668 -0.1371 -0.0208  0.0681
 6891POPS   C2B83482  12.746  23.506   5.052 -0.1340  0.1500 -0.0656
 6891POPS   C3B83483  12.910  23.499   5.534 -0.2686  0.3010 -0.0810
 6891POPS   C4B83484  13.319  23.360   5.600  0.0976  0.0101 -0.1046
 6892POPS   CNO83485  18.123  16.449   3.753 -0.0990 -0.2487  0.1079
 6892POPS   PO483486  17.968  16.775   3.912 -0.1303  0.1028  0.2028
 6892POPS   GL183487  18.051  16.444   4.247  0.4316  0.0777  0.1667
 6892POPS   GL283488  18.293  16.656   4.332 -0.2635 -0.5397 -0.1797
 6892POPS   C1A83489  17.960  16.568   4.690  0.2193  0.0696 -0.2141
 6892POPS   D2A83490  18.080  16.810   5.044 -0.1742 -0.0561  0.2450
 6892POPS   C3A83491  18.357  16.612   5.335  0.0093  0.2006 -0.1579
 6892POPS   C4A83492  18.765  16.446   5.452 -0.4681  0.0805 -0.1250
 6892POPS   C1B83493  18.465  16.648   4.794 -0.2788 -0.3619  0.0808
 6892POPS   C2B83494  18.697  16.926   5.170  0.2894 -0.1750  0.2256
 6892POPS   C3B83495  19.060  16.882   5.488 -0.0130  0.2034 -0.0997
 6892POPS   C4B83496  19.429  16.697   5.705 -0.0030 -0.3617  0.0708
 6893POPS   CNO83497  15.710   7.996   3.887 -0.0225  0.1479  0.4147
 6893POPS   PO483498  15.499   8.279   3.788  0.1652 -0.1044 -0.1503
 6893POPS   GL183499  15.266   8.076   4.082 -0.3620 -0.2275  0.2474
 6893POPS   GL283500  15.506   8.013   4.301 -0.0432 -0.1656 -0.2132
 6893POPS   C1A83501  15.096   8.204   4.525 -0.0905  0.4910  0.2376
 6893POPS   D2A83502  14.793   8.144   4.874 -0.2072 -0.3640 -0.2025
 6893POPS   C3A83503  14.627   8.357   5.279  0.0158 -0.0777 -0.2399
 6893POPS   C4A83504  14.747   8.655   5.617 -0.1007 -0.0835  0.6336
 6893POPS   C1B83505  15.594   7.801   4.680  0.1153  0.0713  0.1667
 6893POPS   C2B83506  15.706   7.739   5.075 -0.1180 -0.0450  0.1831
 6893POPS   C3B83507  15.583   7.511   5.416 -0.1076 -0.1283 -0.2162
 6893POPS   C4B83508  15.288   7.400   5.701 -0.0246 -0.3217 -0.2001
 6894POPS   CNO83509  25.513  29.720   3.770 -0.3592  0.3484 -0.1022
 6894POPS   PO483510  25.145  29.763   3.895 -0.0171  0.0538 -0.3724
 6894POPS   GL183511  25.419  29.791   4.237  0.3886  0.1812 -0.1391
 6894POPS   GL283512  25.416  29.477   4.250 -0.1057  0.1336 -0.0926
 6894POPS   C1A83513  25.468  30.130   4.604 -0.0201 -0.1437  0.1664
 6894POPS   D2A83514  25.497  30.227   4.990  0.0140  0.1193  0.0934
 6894POPS   C3A83515  25.851  30.510   5.029 -0.2193  0.3615 -0.0429
 6894POPS   C4A83516  26.185  30.646   5.338  0.2113  0.0516 -0.0036
 6894POPS   C1B83517  25.539  29.384   4.683  0.2487  0.1100  0.0618
 6894POPS   C2B83518  25.525  29.268   5.162  0.1277 -0.1399  0.0156
 6894POPS   C3B83519  25.867  29.279   5.513  0.0360 -0.0390  0.2955
 6894POPS   C4B83520  25.876  29.518   5.885  0.2465  0.1235 -0.0570
 6895POPS   CNO83521  10.449  17.892   3.505 -0.3072  0.0467  0.0285
 6895POPS   PO483522  10.669  17.740   3.745 -0.0029  0.0190 -0.0232
 6895POPS   GL183523  10.858  17.854   4.057 -0.5260 -0.2527  0.4460
 6895POPS   GL283524  10.885  18.133   4.154  0.2128 -0.0825 -0.1158
 6895POPS   C1A83525  11.217  17.851   4.385  0.0321  0.4115 -0.2045
 6895POPS   D2A83526  11.540  17.990   4.653 -0.0697 -0.0336 -0.1288
 6895POPS   C3A83527  11.741  17.848   5.063  0.1174 -0.0670  0.0048
 6895POPS   C4A83528  12.021  17.547   5.254  0.0661 -0.2237  0.2358
 6895POPS   C1B83529  10.783  18.050   4.643  0.0173  0.1099  0.2958
 6895POPS   C2B83530  10.675  17.712   4.949  0.0087  0.0628 -0.1671
 6895POPS   C3B83531  10.841  17.510   5.321 -0.0514  0.1895  0.0563
 6895POPS   C4B83532  10.981  17.237   5.654  0.1912 -0.0462 -0.1708
 6896POPS   CNO83533  22.900   4.123   3.631  0.2352 -0.1099  0.0560
 6896POPS   PO483534  22.654   3.872   3.485 -0.0041 -0.1811  0.0871
 6896POPS   GL183535  22.757   3.795   3.874 -0.1611 -0.0627  0.1746
 6896POPS   GL283536  23.049   3.799   4.008  0.1412  0.1038 -0.3010
 6896POPS   C1A83537  22.534   3.756   4.286  0.1332  0.3676 -0.1846
 6896POPS   D2A83538  22.296   3.865   4.684  0.1857  0.1641  0.1772
 6896POPS   C3A83539  22.434   4.094   5.038 -0.0031  0.0886 -0.2388
 6896POPS   C4A83540  22.469   4.162   5.500  0.1317  0.0912  0.0804
 6896POPS   C1B83541  22.993   3.637   4.430 -0.0941 -0.0616 -0.1149
 6896POPS   C2B83542  22.717   3.646   4.800  0.0522  0.1789  0.0375
 6896POPS   C3B83543  22.711   3.666   5.230 -0.3693  0.0461  0.1560
 6896POPS   C4B83544  22.627   3.552   5.691 -0.1148 -0.2857 -0.1979
 6897POPS   CNO83545  30.298  10.966   3.198 -0.1961  0.0379  0.0686
 6897POPS   PO483546  30.403  10.624   3.244 -0.1085  0.1102 -0.2561
 6897POPS   GL183547  30.471  10.748   3.622  0.0150 -0.0609  0.0350
 6897POPS   GL283548  30.443  10.618   3.803  0.0426 -0.0372  0.1721
 6897POPS   C1A83549  30.837  10.916   3.842  0.0397  0.0619 -0.2156
 6897POPS   D2A83550  31.253  10.811   4.026 -0.0969  0.2294  0.0773
 6897POPS   C3A83551  31.241  10.761   4.466  0.1085 -0.0235 -0.1007
 6897POPS   C4A83552  31.251  10.839   4.930 -0.0823 -0.2515  0.0541
 6897POPS   C1B83553  30.224  10.592   4.204 -0.0763  0.1394 -0.2902
 6897POPS   C2B83554  30.275  10.649   4.677 -0.0558  0.0737 -0.0735
 6897POPS   C3B83555  30.326  10.670   5.142 -0.0288  0.0053 -0.0335
 6897POPS   C4B83556  30.351  10.501   5.554  0.0450  0.1905  0.0209
 6898POPS   CNO83557  15.000   5.888   3.168  0.1400  0.0027 -0.2190
 6898POPS   PO483558  14.809   6.102   3.413 -0.2446 -0.1054 -0.0015
 6898POPS   GL183559  14.677   6.150   3.799 -0.3935  0.1096  0.0776
 6898POPS   GL283560  14.425   6.219   3.736 -0.2979 -0.0280 -0.0509
 6898POPS   C1A83561  14.552   5.863   4.142 -0.1451 -0.0424 -0.1621
 6898POPS   D2A83562  14.496   5.860   4.598  0.1726  0.1531 -0.3096
 6898POPS   C3A83563  14.575   5.543   4.915  0.3328  0.0660  0.0042
 6898POPS   C4A83564  14.956   5.414   5.207 -0.0620  0.1555 -0.0886
 6898POPS   C1B83565  14.309   6.231   4.223  0.0333  0.0620 -0.0590
 6898POPS   C2B83566  14.285   6.422   4.649  0.1082 -0.1911  0.0664
 6898POPS   C3B83567  14.338   6.525   5.104 -0.3422  0.2782  0.1018
 6898POPS   C4B83568  14.485   6.819   5.407 -0.0372 -0.1278 -0.0698
 6899POPS   CNO83569  16.887  18.779   3.166 -0.2700  0.2389 -0.1974
 6899POPS   PO483570  16.769  18.839   3.544  0.2245 -0.0606 -0.0561
 6899POPS   GL183571  16.850  18.749   4.000 -0.1969  0.0369 -0.1477
 6899POPS   GL283572  17.029  18.480   3.906  0.0612 -0.0071  0.1106
 6899POPS   C1A83573  16.846  18.929   4.434 -0.1192 -0.2203 -0.0997
 6899POPS   D2A83574  16.893  19.268   4.791 -0.2443 -0.1874  0.2580
 6899POPS   C3A83575  17.093  19.191   5.180 -0.0596 -0.0116 -0.4545
 6899POPS   C4A83576  17.501  19.019   5.434  0.0807 -0.0189 -0.0356
 6899POPS   C1B83577  17.124  18.360   4.314 -0.0399  0.0961  0.0240
 6899POPS   C2B83578  16.964  18.518   4.707 -0.0990  0.0250  0.0193
 6899POPS   C3B83579  16.894  18.695   5.127  0.3631  0.0113 -0.2190
 6899POPS   C4B83580  16.525  18.666   5.398  0.1516 -0.3644  0.0748
 6900POPS   CNO83581  20.377   1.866   3.305  0.3307  0.2651 -0.0458
 6900POPS   PO483582  20.562   1.527   3.256 -0.2041 -0.1664 -0.2805
 6900POPS   GL183583  20.547   1.246   3.602 -0.4515  0.0802 -0.1604
 6900POPS   GL283584  20.467   1.457   3.748 -0.0846 -0.1957 -0.1658
 6900POPS   C1A83585  20.563   0.976   3.946  0.1050  0.0093  0.0669
 6900POPS   D2A83586  20.548   0.979   4.400  0.2577  0.2000 -0.0983
 6900POPS   C3A83587  20.739   0.612   4.641  0.1644 -0.1921  0.2035
 6900POPS   C4A83588  20.855   0.182   4.664 -0.0864 -0.2043 -0.3630
 6900POPS   C1B83589  20.500   1.523   4.187  0.0171 -0.2449  0.0584
 6900POPS   C2B83590  20.371   1.384   4.624 -0.0758  0.0664  0.0098
 6900POPS   C3B83591  20.473   1.144   4.957  0.1396  0.1092  0.0492
 6900POPS   C4B83592  20.587   1.126   5.375 -0.0690 -0.1587  0.3307
 6901POPS   CNO83593   8.457  17.727   3.164 -0.0560 -0.0008  0.1023
 6901POPS   PO483594   8.364  17.977   3.426 -0.0318  0.6742 -0.2153
 6901POPS   GL183595   8.252  17.973   3.805 -0.1438  0.0270  0.1181
 6901POPS   GL283596   8.523  17.975   3.891  0.0540  0.1578 -0.1540
 6901POPS   C1A83597   8.052  18.151   4.180 -0.4012 -0.0194  0.2268
 6901POPS   D2A83598   7.797  17.834   4.431 -0.0147  0.1556  0.1154
 6901POPS   C3A83599   7.831  18.037   4.844  0.1713  0.1328 -0.0873
 6901POPS   C4A83600   7.601  18.122   5.241 -0.0813  0.2812  0.2073
 6901POPS   C1B83601   8.538  18.150   4.311 -0.4800  0.2874  0.0463
 6901POPS   C2B83602   8.706  18.041   4.775 -0.0772  0.1196 -0.0591
 6901POPS   C3B83603   8.814  18.170   5.210  0.0194  0.2382 -0.0280
 6901POPS   C4B83604   8.644  18.050   5.598  0.0755 -0.0069 -0.2678
 6902POPS   CNO83605  22.213  15.663   3.008 -0.3311 -0.2332 -0.1375
 6902POPS   PO483606  22.264  15.756   2.643 -0.1928  0.2480 -0.2828
 6902POPS   GL183607  21.897  15.770   2.734  0.0092 -0.1669  0.2882
 6902POPS   GL283608  21.917  16.016   2.957 -0.2341 -0.0842 -0.0293
 6902POPS   C1A83609  21.440  15.843   2.661 -0.1461  0.3072 -0.1093
 6902POPS   D2A83610  21.023  15.982   2.726  0.0552 -0.1263  0.0623
 6902POPS   C3A83611  20.641  15.917   2.523 -0.0590  0.1691  0.0068
 6902POPS   C4A83612  20.281  15.951   2.251 -0.1765  0.0454  0.2632
 6902POPS   C1B83613  21.479  16.035   3.117 -0.0075  0.1309 -0.0331
 6902POPS   C2B83614  21.059  15.967   3.359 -0.1635  0.0861 -0.0251
 6902POPS   C3B83615  20.767  15.669   3.541  0.0223  0.0306  0.1558
 6902POPS   C4B83616  20.726  15.250   3.664 -0.0427  0.0814 -0.2869
 6903POPS   CNO83617  27.543   7.874   3.409  0.2408  0.1864 -0.0382
 6903POPS   PO483618  27.439   8.093   3.685 -0.3502  0.0238  0.3182
 6903POPS   GL183619  27.458   8.008   4.098 -0.1412  0.1069 -0.1179
 6903POPS   GL283620  27.674   8.194   4.155 -0.2481  0.3762 -0.2304
 6903POPS   C1A83621  27.225   8.212   4.433 -0.1554 -0.0524  0.0940
 6903POPS   D2A83622  27.060   8.102   4.836  0.2746 -0.0199  0.0277
 6903POPS   C3A83623  27.007   8.406   5.210 -0.1117  0.1266  0.2769
 6903POPS   C4A83624  26.916   8.369   5.636 -0.0866 -0.1302  0.0007
 6903POPS   C1B83625  27.900   8.220   4.585 -0.1045  0.3218 -0.1046
 6903POPS   C2B83626  27.984   8.195   5.113  0.3312 -0.0233  0.0383
 6903POPS   C3B83627  27.877   8.271   5.572 -0.0018  0.1040 -0.0779
 6903POPS   C4B83628  27.697   7.939   5.875 -0.0421 -0.0445  0.0911
 6904POPS   CNO83629  21.279  10.678   3.319 -0.0951 -0.1106 -0.0327
 6904POPS   PO483630  21.101  10.984   3.416  0.1053  0.0746 -0.0507
 6904POPS   GL183631  20.986  11.139   3.712  0.2732 -0.0938  0.1450
 6904POPS   GL283632  21.215  11.322   3.766 -0.0167  0.2381  0.2105
 6904POPS   C1A83633  21.006  11.086   4.173 -0.0724  0.1545  0.1823
 6904POPS   D2A83634  20.829  10.899   4.577  0.1966 -0.1802 -0.0812
 6904POPS   C3A83635  20.977  10.778   4.995  0.0671 -0.0221  0.2112
 6904POPS   C4A83636  21.211  11.050   5.332  0.4468  0.0592  0.0035
 6904POPS   C1B83637  21.182  11.579   4.200 -0.1306 -0.1080 -0.1493
 6904POPS   C2B83638  21.136  11.746   4.625 -0.3980  0.0750  0.1080
 6904POPS   C3B83639  21.218  11.859   5.096 -0.0958  0.0405  0.0962
 6904POPS   C4B83640  21.475  11.995   5.424 -0.0085 -0.1852 -0.4019
 6905POPS   CNO83641   9.652  26.620   3.869 -0.1493 -0.0417 -0.0275
 6905POPS   PO483642   9.499  26.884   3.644 -0.1907 -0.1212  0.1497
 6905POPS   GL183643   9.281  26.870   3.997  0.3167  0.1489 -0.1474
 6905POPS   GL283644   8.959  26.927   4.021 -0.1062  0.0707 -0.0733
 6905POPS   C1A83645   9.570  26.889   4.382 -0.1692 -0.2893 -0.1052
 6905POPS   D2A83646   9.905  26.994   4.684  0.0067  0.1701 -0.2252
 6905POPS   C3A83647   9.923  27.224   5.111  0.0064  0.2335 -0.0064
 6905POPS   C4A83648   9.877  27.342   5.531 -0.2612  0.2050  0.0588
 6905POPS   C1B83649   9.129  26.524   4.300  0.0569 -0.1081  0.0692
 6905POPS   C2B83650   9.431  26.451   4.633 -0.1047 -0.4372 -0.0305
 6905POPS   C3B83651   9.554  26.344   5.038 -0.1257  0.0650  0.0552
 6905POPS   C4B83652   9.671  26.268   5.433 -0.3839  0.2357 -0.1812
 6906POPS   CNO83653  25.508  20.351   3.705  0.0380  0.1198 -0.0738
 6906POPS   PO483654  25.514  20.520   4.053  0.0560  0.2343 -0.1648
 6906POPS   GL183655  25.517  20.559   4.395  0.2055  0.0358 -0.4114
 6906POPS   GL283656  25.357  20.745   4.565  0.2521  0.0106  0.2866
 6906POPS   C1A83657  25.786  20.598   4.773  0.2368  0.0875  0.0834
 6906POPS   D2A83658  25.832  20.600   5.213  0.0857  0.2208 -0.2578
 6906POPS   C3A83659  25.540  20.367   5.468 -0.0682 -0.2657 -0.0103
 6906POPS   C4A83660  25.532  20.084   5.826  0.0432  0.0447 -0.2473
 6906POPS   C1B83661  25.445  20.822   5.000 -0.0511 -0.0055  0.0715
 6906POPS   C2B83662  25.458  20.876   5.464 -0.2363  0.0556  0.1967
 6906POPS   C3B83663  25.356  21.147   5.781  0.0220  0.3127 -0.4017
 6906POPS   C4B83664  24.994  21.414   5.880  0.2299 -0.2284 -0.5151
 6907POPS   CNO83665  17.589  25.542   3.386  0.3089 -0.1427 -0.3181
 6907POPS   PO483666  17.474  25.415   3.707 -0.0903 -0.2352 -0.0589
 6907POPS   GL183667  17.549  25.496   4.113 -0.3215 -0.0538  0.0261
 6907POPS   GL283668  17.442  25.741   4.173 -0.2862  0.0893 -0.0209
 6907POPS   C1A83669  17.479  25.234   4.459  0.1518 -0.0212 -0.2529
 6907POPS   D2A83670  17.196  25.181   4.848 -0.1967 -0.3487  0.2892
 6907POPS   C3A83671  17.266  24.772   5.081 -0.1345 -0.0899 -0.0325
 6907POPS   C4A83672  17.246  24.540   5.549 -0.3437  0.1304 -0.1001
 6907POPS   C1B83673  17.184  25.705   4.582  0.3552 -0.0865  0.2302
 6907POPS   C2B83674  17.147  25.846   4.996  0.1089 -0.0999  0.2374
 6907POPS   C3B83675  16.842  25.909   5.305 -0.1818  0.0922  0.0300
 6907POPS   C4B83676  16.550  25.884   5.644  0.0886  0.2693 -0.3745
 6908POPS   CNO83677  30.154  30.233   3.893  0.0489 -0.0876  0.0269
 6908POPS   PO483678  29.836  30.400   3.777 -0.1665 -0.0490 -0.0739
 6908POPS   GL183679  29.727  30.374   4.101  0.1857 -0.0605  0.2173
 6908POPS   GL283680  29.440  30.341   4.139 -0.0295 -0.1605 -0.1492
 6908POPS   C1A83681  29.793  30.741   4.334  0.4339  0.0093  0.2677
 6908POPS   D2A83682  29.858  31.123   4.614  0.0208  0.1678 -0.2966
 6908POPS   C3A83683  29.915  31.099   5.033 -0.2071 -0.0677 -0.1629
 6908POPS   C4A83684  29.722  30.965   5.450 -0.4812 -0.0430  0.1156
 6908POPS   C1B83685  29.497  30.354   4.574  0.0359  0.1706  0.0515
 6908POPS   C2B83686  29.412  30.269   5.041 -0.1752 -0.0292  0.2459
 6908POPS   C3B83687  29.408  30.317   5.519  0.2886 -0.1407 -0.0332
 6908POPS   C4B83688  29.359  30.418   5.967  0.0972  0.2775 -0.0473
 6909POPS   CNO83689   5.991  15.383   4.170  0.2022  0.2588 -0.3531
 6909POPS   PO483690   5.998  15.681   3.923 -0.0528 -0.0395 -0.2927
 6909POPS   GL183691   5.899  15.749   4.302  0.1366  0.0795 -0.0561
 6909POPS   GL283692   5.680  15.642   4.475 -0.0483 -0.1752 -0.2250
 6909POPS   C1A83693   6.189  16.084   4.410 -0.1059  0.0413  0.1234
 6909POPS   D2A83694   6.469  16.289   4.630  0.2279  0.1510  0.2583
 6909POPS   C3A83695   6.547  16.410   5.058 -0.3721  0.0393 -0.2071
 6909POPS   C4A83696   6.851  16.607   5.347  0.2167  0.2663 -0.0187
 6909POPS   C1B83697   5.720  15.396   4.853  0.2585 -0.2154  0.2399
 6909POPS   C2B83698   5.718  15.357   5.268 -0.1704 -0.0457 -0.0326
 6909POPS   C3B83699   5.595  15.244   5.684 -0.1841  0.1242 -0.0151
 6909POPS   C4B83700   5.790  15.301   6.063  0.2847  0.1522 -0.1025
 6910POPS   CNO83701  23.278  27.897   3.787 -0.0324 -0.0912 -0.1054
 6910POPS   PO483702  23.632  27.938   3.785  0.3352 -0.2535  0.2724
 6910POPS   GL183703  23.595  27.970   4.134 -0.2964  0.2161  0.0663
 6910POPS   GL283704  23.425  28.272   4.168  0.3041 -0.0871 -0.0890
 6910POPS   C1A83705  23.595  27.678   4.551 -0.3370 -0.0494  0.1917
 6910POPS   D2A83706  23.710  27.494   5.007  0.1199 -0.0820  0.2728
 6910POPS   C3A83707  23.564  27.561   5.431  0.1531  0.0767  0.0241
 6910POPS   C4A83708  23.713  27.809   5.801 -0.1421 -0.1616  0.0606
 6910POPS   C1B83709  23.233  28.087   4.574 -0.0565  0.0325 -0.0519
 6910POPS   C2B83710  23.377  27.921   4.988  0.0977  0.0940  0.0906
 6910POPS   C3B83711  23.568  28.088   5.340 -0.3301 -0.3868  0.1065
 6910POPS   C4B83712  23.779  28.335   5.685  0.1784 -0.1029 -0.0838
 6911POPS   CNO83713  20.522   8.611   3.568  0.0849  0.2473 -0.0941
 6911POPS   PO483714  20.768   8.764   3.806 -0.1360  0.0116  0.1145
 6911POPS   GL183715  20.811   8.621   4.137 -0.1519  0.1978 -0.3080
 6911POPS   GL283716  20.914   8.294   4.191 -0.0447  0.0368 -0.1157
 6911POPS   C1A83717  20.516   8.539   4.456 -0.3481 -0.5334  0.0539
 6911POPS   D2A83718  20.515   8.524   4.943 -0.0404 -0.1462 -0.1659
 6911POPS   C3A83719  20.609   8.698   5.305  0.0595 -0.2167  0.0571
 6911POPS   C4A83720  20.708   8.999   5.668 -0.0861  0.2628  0.2736
 6911POPS   C1B83721  21.104   8.520   4.510  0.2071 -0.1847 -0.1719
 6911POPS   C2B83722  20.992   8.656   4.907 -0.1513 -0.0092 -0.1596
 6911POPS   C3B83723  21.024   8.969   5.272 -0.1606  0.1273  0.1739
 6911POPS   C4B83724  21.176   9.055   5.669 -0.2708  0.1619 -0.2047
 6912POPS   CNO83725  19.963  23.968   3.672 -0.0529  0.1412  0.1930
 6912POPS   PO483726  20.049  24.124   3.984  0.0717  0.0689 -0.0467
 6912POPS   GL183727  19.834  24.269   4.392  0.3323  0.0892  0.0708
 6912POPS   GL283728  19.973  24.473   4.557  0.1600 -0.0716 -0.0224
 6912POPS   C1A83729  19.587  23.942   4.623 -0.1639  0.0492  0.0816
 6912POPS   D2A83730  19.403  23.839   5.049 -0.0236 -0.1762 -0.0859
 6912POPS   C3A83731  19.596  23.913   5.481  0.1955 -0.0478  0.5415
 6912POPS   C4A83732  19.612  23.889   5.969 -0.0806 -0.0721 -0.0304
 6912POPS   C1B83733  19.811  24.243   4.928  0.1115 -0.0070 -0.0961
 6912POPS   C2B83734  19.993  24.150   5.299 -0.1141 -0.0136 -0.3456
 6912POPS   C3B83735  20.039  23.907   5.666 -0.2572 -0.0467 -0.1530
 6912POPS   C4B83736  20.058  23.928   6.171 -0.2089 -0.2257 -0.0736
 6913POPS   CNO83737   2.764  29.785   3.716 -0.2275  0.2803  0.0127
 6913POPS   PO483738   2.576  30.084   3.604 -0.1308 -0.0051 -0.0570
 6913POPS   GL183739   2.707  30.217   3.883 -0.1850 -0.3288 -0.2756
 6913POPS   GL283740   3.005  30.198   3.874 -0.3374  0.3513  0.1827
 6913POPS   C1A83741   2.619  30.309   4.332  0.2267  0.0653 -0.1233
 6913POPS   D2A83742   2.673  30.219   4.806 -0.0010 -0.1939  0.3707
 6913POPS   C3A83743   2.819  30.543   5.149 -0.3512 -0.0116  0.0155
 6913POPS   C4A83744   2.880  30.918   5.375 -0.4208 -0.1853  0.5822
 6913POPS   C1B83745   2.866  30.593   4.050  0.1144 -0.2693 -0.2951
 6913POPS   C2B83746   2.876  30.977   4.316  0.0982 -0.2216 -0.2749
 6913POPS   C3B83747   2.784  31.053   4.738  0.1368  0.0213 -0.0399
 6913POPS   C4B83748   2.838  31.326   5.100 -0.0394  0.0935 -0.4084
 6914POPS   CNO83749   4.351  24.788   3.405 -0.0364 -0.1035  0.1966
 6914POPS   PO483750   4.525  24.704   3.752  0.4558  0.0889 -0.0237
 6914POPS   GL183751   4.251  24.892   3.876  0.0798  0.3516 -0.3987
 6914POPS   GL283752   4.017  24.911   3.724 -0.1493 -0.3016  0.1058
 6914POPS   C1A83753   4.425  25.075   4.304  0.2016  0.0457  0.1054
 6914POPS   D2A83754   4.386  25.206   4.768 -0.2367 -0.0213 -0.3527
 6914POPS   C3A83755   4.473  24.861   5.048  0.2759 -0.0183  0.1253
 6914POPS   C4A83756   4.574  24.399   4.978  0.4164 -0.2065  0.0701
 6914POPS   C1B83757   3.946  24.800   4.228  0.0113 -0.2348  0.1192
 6914POPS   C2B83758   4.118  24.778   4.656 -0.1362  0.1608 -0.1293
 6914POPS   C3B83759   4.101  24.586   5.136  0.1887 -0.1763  0.1555
 6914POPS   C4B83760   3.940  24.580   5.588  0.0102 -0.1323  0.2823
 6915POPS   CNO83761  27.669   8.727   3.370  0.0305  0.2488 -0.1918
 6915POPS   PO483762  27.641   8.566   3.725 -0.1112 -0.2583  0.1349
 6915POPS   GL183763  27.718   8.634   4.083 -0.1809  0.2064  0.1066
 6915POPS   GL283764  27.922   8.844   4.137 -0.2664 -0.1350 -0.1773
 6915POPS   C1A83765  27.627   8.691   4.544 -0.0414 -0.1380 -0.2131
 6915POPS   D2A83766  27.545   8.363   4.882 -0.1582  0.1565 -0.4383
 6915POPS   C3A83767  27.507   8.503   5.266  0.0448 -0.0415 -0.1448
 6915POPS   C4A83768  27.293   8.684   5.571 -0.2599  0.1536 -0.1738
 6915POPS   C1B83769  27.979   9.175   4.452 -0.0032  0.0414 -0.3178
 6915POPS   C2B83770  27.846   9.573   4.591  0.1600 -0.1808 -0.1948
 6915POPS   C3B83771  27.881   9.888   4.896  0.0241  0.0183  0.0642
 6915POPS   C4B83772  27.616  10.073   5.226 -0.1197 -0.2864 -0.2845
 6916POPS   CNO83773  23.928  21.278   3.690 -0.0264 -0.0308 -0.1898
 6916POPS   PO483774  24.135  21.084   3.952 -0.1648 -0.1205  0.0065
 6916POPS   GL183775  24.179  21.213   4.238  0.3785 -0.1668 -0.1168
 6916POPS   GL283776  23.849  21.470   4.167 -0.1943  0.2065 -0.2735
 6916POPS   C1A83777  24.324  20.921   4.588 -0.0594  0.0441 -0.1717
 6916POPS   D2A83778  24.449  20.844   5.049 -0.0843 -0.2023 -0.0250
 6916POPS   C3A83779  24.615  20.407   5.095 -0.0582 -0.0445 -0.1299
 6916POPS   C4A83780  24.704  20.036   4.759  0.0287 -0.2538  0.1338
 6916POPS   C1B83781  23.955  21.499   4.593  0.0063  0.0533  0.1550
 6916POPS   C2B83782  24.180  21.599   4.988 -0.0787 -0.0986  0.3391
 6916POPS   C3B83783  24.123  21.772   5.419  0.0612  0.1869  0.0634
 6916POPS   C4B83784  23.687  21.742   5.454  0.4035 -0.0209 -0.1578
 6917POPS   CNO83785  19.616   6.076   3.538  0.4118 -0.0614 -0.0638
 6917POPS   PO483786  19.370   5.840   3.690  0.3375  0.3171 -0.1143
 6917POPS   GL183787  18.987   5.703   3.906  0.5425  0.2042  0.0121
 6917POPS   GL283788  19.093   5.805   4.124 -0.0745 -0.1575  0.1819
 6917POPS   C1A83789  18.689   5.520   4.227  0.1031 -0.2921 -0.1259
 6917POPS   D2A83790  18.697   5.630   4.655  0.2028  0.0578  0.0698
 6917POPS   C3A83791  18.213   5.543   4.737  0.0723  0.2032 -0.0469
 6917POPS   C4A83792  17.812   5.322   4.903  0.2008 -0.2482 -0.4527
 6917POPS   C1B83793  19.063   5.989   4.529 -0.2085 -0.0287 -0.5479
 6917POPS   C2B83794  19.180   5.773   4.920 -0.0389 -0.4684  0.0950
 6917POPS   C3B83795  19.210   5.638   5.402 -0.0462 -0.2321  0.0557
 6917POPS   C4B83796  19.188   5.326   5.686  0.1798  0.0920 -0.0196
 6918POPS   CNO83797  18.149  27.104   3.519  0.1533  0.0268  0.3608
 6918POPS   PO483798  18.337  26.989   3.814 -0.1277  0.3011 -0.1476
 6918POPS   GL183799  18.252  26.947   4.150  0.1512 -0.2216 -0.2620
 6918POPS   GL283800  18.464  26.963   4.370  0.1460  0.1098  0.1213
 6918POPS   C1A83801  18.043  26.805   4.552  0.1754 -0.2088  0.2309
 6918POPS   D2A83802  18.168  26.763   4.976 -0.0849 -0.0066 -0.2778
 6918POPS   C3A83803  17.989  26.988   5.296 -0.1189  0.4762 -0.1027
 6918POPS   C4A83804  17.620  27.044   5.551  0.1156  0.5368  0.3490
 6918POPS   C1B83805  18.376  27.149   4.760 -0.0446 -0.0433 -0.3108
 6918POPS   C2B83806  18.525  27.249   5.169  0.0079 -0.0658  0.2346
 6918POPS   C3B83807  18.365  27.315   5.583 -0.1786  0.1010 -0.0713
 6918POPS   C4B83808  17.973  27.518   5.586 -0.3167 -0.1898  0.0448
 6919POPS   CNO83809  14.461  30.347   3.335 -0.1116 -0.0836 -0.0607
 6919POPS   PO483810  14.287  30.556   3.607  0.1056 -0.0674  0.1636
 6919POPS   GL183811  14.345  30.438   4.002 -0.1502  0.0603  0.2219
 6919POPS   GL283812  14.062  30.345   4.030 -0.0227 -0.0397 -0.0614
 6919POPS   C1A83813  14.321  30.667   4.381  0.0702 -0.0369 -0.2782
 6919POPS   D2A83814  14.147  30.845   4.733  0.1030  0.3097 -0.0548
 6919POPS   C3A83815  14.369  30.622   5.066 -0.1901 -0.2819  0.0840
 6919POPS   C4A83816  14.371  30.862   5.450  0.2876 -0.1444 -0.3263
 6919POPS   C1B83817  13.945  30.384   4.477  0.2209 -0.4732 -0.0150
 6919POPS   C2B83818  13.731  30.530   4.895  0.1691  0.2647  0.3262
 6919POPS   C3B83819  13.516  30.512   5.275 -0.0008  0.2417  0.1168
 6919POPS   C4B83820  13.595  30.446   5.753 -0.2224 -0.0058  0.1632
 6920POPS   CNO83821  26.398  27.332   3.077  0.2022  0.1190  0.4143
 6920POPS   PO483822  26.224  27.116   3.381  0.0339  0.1643  0.1238
 6920POPS   GL183823  26.388  27.201   3.792 -0.1103  0.0748  0.4955
 6920POPS   GL283824  26.121  27.204   3.939  0.2367 -0.0351  0.1977
 6920POPS   C1A83825  26.668  27.184   4.159 -0.0363 -0.2450  0.0450
 6920POPS   D2A83826  26.775  27.247   4.580 -0.0284  0.0225 -0.2117
 6920POPS   C3A83827  26.419  27.027   4.840  0.1489 -0.2598  0.0121
 6920POPS   C4A83828  26.269  27.065   5.304  0.0807  0.0213 -0.2052
 6920POPS   C1B83829  26.197  27.387   4.371  0.1718  0.1940 -0.0272
 6920POPS   C2B83830  26.259  27.489   4.825 -0.2509  0.0185  0.2041
 6920POPS   C3B83831  26.397  27.642   5.263  0.2007  0.5046  0.5026
 6920POPS   C4B83832  26.225  27.887   5.610 -0.1641 -0.1952  0.1039
 6921POPS   CNO83833  19.063  21.125   3.939 -0.0069  0.1567 -0.0608
 6921POPS   PO483834  19.355  20.921   4.084  0.1415  0.0720  0.0552
 6921POPS   GL183835  19.394  20.848   4.500  0.1148  0.0322 -0.1685
 6921POPS   GL283836  19.607  21.034   4.585 -0.1478 -0.3695  0.0357
 6921POPS   C1A83837  19.241  20.917   4.924  0.0145 -0.0704  0.1039
 6921POPS   D2A83838  19.431  20.761   5.343 -0.0033  0.0050 -0.4431
 6921POPS   C3A83839  19.144  20.554   5.632  0.0802 -0.1088 -0.0894
 6921POPS   C4A83840  18.724  20.581   5.904 -0.1183 -0.3909 -0.1407
 6921POPS   C1B83841  19.688  21.150   5.060 -0.2358 -0.0635 -0.0913
 6921POPS   C2B83842  19.655  21.376   5.467  0.0379  0.3406  0.1926
 6921POPS   C3B83843  19.565  21.178   5.838  0.3296 -0.1087 -0.0649
 6921POPS   C4B83844  19.256  20.925   5.976  0.0795  0.0238 -0.0727
 6922POPS   CNO83845  19.921  27.956   3.673  0.0597  0.0108 -0.0544
 6922POPS   PO483846  20.238  27.785   3.736  0.0533 -0.4150  0.3176
 6922POPS   GL183847  20.339  27.950   4.140  0.0338 -0.0345 -0.1221
 6922POPS   GL283848  20.005  27.930   4.161  0.3031 -0.2140 -0.0223
 6922POPS   C1A83849  20.608  27.808   4.460  0.0906 -0.0469 -0.0172
 6922POPS   D2A83850  20.853  27.602   4.757 -0.2564  0.1811 -0.3155
 6922POPS   C3A83851  20.797  27.767   5.159  0.0091  0.0989 -0.2462
 6922POPS   C4A83852  20.693  27.898   5.590 -0.0534 -0.2044  0.0459
 6922POPS   C1B83853  20.168  27.976   4.546  0.0836 -0.1290 -0.0769
 6922POPS   C2B83854  20.264  27.886   5.005  0.0087 -0.6803  0.0962
 6922POPS   C3B83855  20.187  28.003   5.478  0.0185 -0.1212  0.2111
 6922POPS   C4B83856  20.054  28.172   5.880 -0.3628 -0.0131  0.1081
 6923POPS   CNO83857   2.654   2.532   3.505  0.0154  0.1303  0.0470
 6923POPS   PO483858   3.003   2.585   3.636  0.0918 -0.0694  0.1692
 6923POPS   GL183859   3.302   2.689   3.925  0.0505  0.0636 -0.0493
 6923POPS   GL283860   3.183   2.967   3.954  0.1229  0.2350 -0.3315
 6923POPS   C1A83861   3.581   2.485   4.225 -0.2594  0.2732 -0.3265
 6923POPS   D2A83862   3.800   2.402   4.652 -0.0277 -0.1743  0.2499
 6923POPS   C3A83863   4.042   2.014   4.732  0.0691 -0.0184  0.2451
 6923POPS   C4A83864   4.303   1.848   5.018 -0.0249 -0.0235  0.0323
 6923POPS   C1B83865   3.099   2.646   4.417 -0.0146  0.2321  0.0197
 6923POPS   C2B83866   3.065   2.539   4.837  0.3346  0.2316  0.0543
 6923POPS   C3B83867   2.885   2.386   5.214  0.0487  0.0559  0.0243
 6923POPS   C4B83868   2.971   2.042   5.529 -0.0479  0.1623  0.0313
 6924POPS   CNO83869  10.464   3.579   3.666 -0.0999 -0.1089 -0.0134
 6924POPS   PO483870  10.732   3.882   3.683 -0.0212 -0.0779 -0.0218
 6924POPS   GL183871  10.852   3.903   4.046 -0.0327 -0.2484 -0.2318
 6924POPS   GL283872  11.085   3.899   4.097  0.2363 -0.1638 -0.0351
 6924POPS   C1A83873  10.616   4.089   4.424  0.1125  0.1425  0.0406
 6924POPS   D2A83874  10.611   4.206   4.889 -0.0813  0.2862 -0.0771
 6924POPS   C3A83875  10.234   4.330   5.138 -0.0010  0.0763 -0.0269
 6924POPS   C4A83876   9.915   4.439   5.473  0.1044  0.0181 -0.0213
 6924POPS   C1B83877  11.140   3.725   4.490  0.2021 -0.0602 -0.2137
 6924POPS   C2B83878  10.904   3.748   4.955  0.0935  0.2485 -0.0551
 6924POPS   C3B83879  10.770   3.963   5.321 -0.0151  0.0001  0.0871
 6924POPS   C4B83880  10.770   3.932   5.820 -0.2324  0.0329 -0.0411
 6925POPS   CNO83881  24.929  14.458   3.607  0.0533  0.1027  0.0858
 6925POPS   PO483882  24.801  14.135   3.825  0.0734 -0.1523  0.1733
 6925POPS   GL183883  24.601  14.250   4.229 -0.2317  0.0142 -0.2359
 6925POPS   GL283884  24.870  14.117   4.411 -0.2425 -0.3639 -0.1606
 6925POPS   C1A83885  24.486  14.069   4.664  0.1749 -0.0659  0.1137
 6925POPS   D2A83886  24.509  14.001   5.167 -0.3487 -0.0409 -0.0794
 6925POPS   C3A83887  24.140  13.825   5.365  0.0918  0.0671 -0.0876
 6925POPS   C4A83888  23.721  13.747   5.261 -0.0580  0.2536 -0.1254
 6925POPS   C1B83889  25.037  14.209   4.809  0.1263 -0.0739  0.1978
 6925POPS   C2B83890  25.095  14.128   5.241  0.1011  0.0849 -0.1550
 6925POPS   C3B83891  25.006  14.085   5.692 -0.0468 -0.2864  0.5511
 6925POPS   C4B83892  24.663  14.165   5.854  0.0597  0.0188 -0.0511
 6926POPS   CNO83893   5.105   1.882   3.566  0.1692  0.4523 -0.0482
 6926POPS   PO483894   4.918   2.143   3.780  0.0929  0.4110 -0.1893
 6926POPS   GL183895   5.134   2.283   4.207  0.0790  0.0007  0.1042
 6926POPS   GL283896   5.415   2.335   4.261 -0.2391 -0.3231 -0.2350
 6926POPS   C1A83897   5.029   2.578   4.518 -0.0205 -0.0392 -0.1009
 6926POPS   D2A83898   5.200   2.881   4.855 -0.0745 -0.3249 -0.3964
 6926POPS   C3A83899   4.942   2.876   5.298  0.0222 -0.0003  0.0653
 6926POPS   C4A83900   4.743   2.695   5.724  0.2677 -0.0386  0.0167
 6926POPS   C1B83901   5.357   2.220   4.689 -0.2935  0.4332 -0.1379
 6926POPS   C2B83902   5.593   2.249   5.059 -0.4733 -0.2602  0.2142
 6926POPS   C3B83903   5.791   2.309   5.463 -0.1144  0.0908  0.1217
 6926POPS   C4B83904   5.939   2.560   5.858  0.0463 -0.0091 -0.0367
 6927POPS   CNO83905  15.704  11.781   3.795 -0.1134  0.2494 -0.0613
 6927POPS   PO483906  15.714  12.148   3.891 -0.0920 -0.1748 -0.1883
 6927POPS   GL183907  15.674  12.238   4.313  0.1547 -0.3506 -0.0770
 6927POPS   GL283908  15.436  12.138   4.411  0.1625 -0.1687  0.0763
 6927POPS   C1A83909  15.716  12.189   4.787  0.1292  0.1743 -0.1705
 6927POPS   D2A83910  15.642  11.990   5.112  0.0372 -0.0551 -0.3274
 6927POPS   C3A83911  15.642  12.016   5.583 -0.1530  0.0981  0.2501
 6927POPS   C4A83912  15.665  12.179   6.035  0.5136 -0.1017 -0.0396
 6927POPS   C1B83913  15.262  11.981   4.796 -0.0680  0.3135  0.0871
 6927POPS   C2B83914  15.019  11.739   5.055 -0.1248 -0.1679 -0.1590
 6927POPS   C3B83915  14.660  11.553   5.378  0.1578  0.1106  0.0995
 6927POPS   C4B83916  14.169  11.434   5.425  0.1407 -0.2011 -0.1071
 6928POPS   CNO83917   7.717   2.334   3.660 -0.5359 -0.1132 -0.2056
 6928POPS   PO483918   7.455   2.557   3.786 -0.0600 -0.1153  0.0666
 6928POPS   GL183919   7.467   2.697   4.017  0.1165  0.0089 -0.1589
 6928POPS   GL283920   7.561   2.591   4.255 -0.1349 -0.2073  0.2833
 6928POPS   C1A83921   7.188   3.031   4.190 -0.1008 -0.3751  0.0874
 6928POPS   D2A83922   6.784   3.140   3.997  0.1431 -0.2045  0.1732
 6928POPS   C3A83923   6.374   3.136   4.141 -0.0120  0.0152  0.0348
 6928POPS   C4A83924   6.054   2.869   4.259  0.0925 -0.4205 -0.1924
 6928POPS   C1B83925   7.579   2.935   4.607  0.1582  0.0089 -0.0805
 6928POPS   C2B83926   7.699   2.961   5.085 -0.1866  0.1975 -0.0071
 6928POPS   C3B83927   8.009   2.851   5.412  0.1551  0.0708 -0.0076
 6928POPS   C4B83928   8.095   2.751   5.909  0.0974 -0.4208  0.2251
 6929POPS   CNO83929  30.442   0.712   3.323  0.0492 -0.0920  0.2266
 6929POPS   PO483930  30.496   0.692   3.679  0.2339 -0.0411 -0.0346
 6929POPS   GL183931  30.867   0.678   3.889  0.3079  0.4645  0.1350
 6929POPS   GL283932  30.843   0.891   4.142  0.0207 -0.1587  0.1891
 6929POPS   C1A83933  30.981   0.481   4.270 -0.0040  0.1210  0.0890
 6929POPS   D2A83934  30.906   0.445   4.694  0.2256  0.0754  0.3711
 6929POPS   C3A83935  30.766   0.894   4.802 -0.3267  0.0317 -0.3033
 6929POPS   C4A83936  30.537   1.339   4.821  0.2345  0.2544  0.0570
 6929POPS   C1B83937  30.946   1.166   4.464 -0.0171 -0.0515 -0.1164
 6929POPS   C2B83938  31.159   1.211   4.849  0.0345  0.1237 -0.0967
 6929POPS   C3B83939  31.485   1.131   5.194 -0.0577  0.1606  0.1077
 6929POPS   C4B83940  31.414   1.075   5.659 -0.0760 -0.0387 -0.0590
 6930POPS   CNO83941  17.819  14.732   3.739  0.1172  0.0222 -0.2243
 6930POPS   PO483942  17.705  14.408   3.688 -0.0736  0.1013  0.1430
 6930POPS   GL183943  17.792  14.311   4.029 -0.0429 -0.1324 -0.1234
 6930POPS   GL283944  17.949  14.526   4.163  0.1369  0.0521 -0.0290
 6930POPS   C1A83945  17.660  14.280   4.472 -0.0232  0.1166  0.1226
 6930POPS   D2A83946  17.735  14.308   4.924 -0.2182  0.1068 -0.0229
 6930POPS   C3A83947  17.878  14.759   5.061  0.1198 -0.0263  0.2847
 6930POPS   C4A83948  17.968  15.198   4.948  0.2179  0.3647 -0.1903
 6930POPS   C1B83949  18.024  14.644   4.598  0.1649  0.2022  0.0855
 6930POPS   C2B83950  18.366  14.828   4.916  0.3073  0.0257 -0.1202
 6930POPS   C3B83951  18.412  15.189   5.166 -0.3093 -0.0334 -0.0721
 6930POPS   C4B83952  18.731  15.506   5.369 -0.1093 -0.1491  0.4676
 6931POPS   CNO83953  25.125   0.056   3.536  0.1641  0.1706  0.2514
 6931POPS   PO483954  25.460   0.210   3.511 -0.0034 -0.0274 -0.4134
 6931POPS   GL183955  25.642   0.344   3.845 -0.0931  0.0854 -0.4703
 6931POPS   GL283956  25.793   0.507   4.008  0.3825  0.1051  0.0285
 6931POPS   C1A83957  25.503   0.268   4.283  0.2710  0.0075  0.1008
 6931POPS   D2A83958  25.811   0.114   4.599  0.3408  0.0186  0.0586
 6931POPS   C3A83959  25.682   0.236   4.995  0.0322 -0.0687  0.0729
 6931POPS   C4A83960  25.897   0.093   5.396 -0.2029  0.0663 -0.0443
 6931POPS   C1B83961  26.159   0.593   4.352 -0.3355 -0.1824 -0.0438
 6931POPS   C2B83962  26.065   0.487   4.779  0.0223 -0.0430 -0.2806
 6931POPS   C3B83963  26.272   0.418   5.154  0.0198 -0.0460  0.1623
 6931POPS   C4B83964  26.358   0.472   5.591  0.2768 -0.1291 -0.1473
 6932POPS   CNO83965  22.695  14.805   3.474 -0.0797  0.1721  0.0676
 6932POPS   PO483966  22.424  14.624   3.250 -0.1374  0.3224 -0.3719
 6932POPS   GL183967  22.316  14.655   3.680  0.5653  0.1935  0.1066
 6932POPS   GL283968  22.035  14.722   3.591 -0.3306 -0.1119  0.0746
 6932POPS   C1A83969  22.256  14.384   4.097  0.3676  0.2568  0.0886
 6932POPS   D2A83970  22.129  14.322   4.553  0.2181  0.2483  0.0034
 6932POPS   C3A83971  21.966  14.614   4.904  0.0431  0.1591 -0.0536
 6932POPS   C4A83972  21.971  15.022   5.141 -0.0725 -0.0355  0.0695
 6932POPS   C1B83973  21.889  14.662   4.107 -0.1324 -0.1149  0.1505
 6932POPS   C2B83974  21.658  14.581   4.494 -0.0440  0.0217 -0.0821
 6932POPS   C3B83975  21.533  14.223   4.798 -0.0103 -0.1448 -0.0620
 6932POPS   C4B83976  21.466  14.084   5.242  0.1554  0.1390  0.0740
 6933POPS   CNO83977  22.620  16.080   3.944  0.1510 -0.0614  0.2271
 6933POPS   PO483978  22.636  16.451   3.953 -0.0659  0.0359  0.2230
 6933POPS   GL183979  22.445  16.566   4.409 -0.2598  0.2579  0.0226
 6933POPS   GL283980  22.695  16.605   4.560 -0.0879  0.2327 -0.0183
 6933POPS   C1A83981  22.133  16.703   4.672 -0.1605 -0.0913 -0.0724
 6933POPS   D2A83982  21.830  16.560   5.031 -0.2074 -0.1302 -0.1472
 6933POPS   C3A83983  21.894  16.137   5.150  0.0113 -0.0095  0.2357
 6933POPS   C4A83984  21.616  15.815   5.283  0.1093  0.1904 -0.3623
 6933POPS   C1B83985  22.827  16.585   5.032 -0.1633  0.1434 -0.2400
 6933POPS   C2B83986  22.909  16.868   5.398  0.1581 -0.0992 -0.1204
 6933POPS   C3B83987  22.684  17.027   5.785 -0.1378 -0.1576 -0.0148
 6933POPS   C4B83988  22.308  17.263   6.008  0.0026 -0.0687 -0.0921
 6934POPS   CNO83989  10.962  27.039   3.150 -0.3388 -0.1658 -0.0881
 6934POPS   PO483990  11.124  27.015   3.478  0.0423  0.0763 -0.2347
 6934POPS   GL183991  11.209  26.903   3.864  0.1833  0.0690  0.2714
 6934POPS   GL283992  11.521  26.848   3.920 -0.1769  0.1042  0.0886
 6934POPS   C1A83993  11.048  27.039   4.262 -0.2970  0.3048  0.0444
 6934POPS   D2A83994  11.040  27.078   4.702  0.0851  0.0518 -0.0628
 6934POPS   C3A83995  11.198  26.794   5.085 -0.1997  0.1848  0.0546
 6934POPS   C4A83996  11.146  26.448   5.372  0.1214  0.3280  0.2189
 6934POPS   C1B83997  11.530  26.756   4.401  0.0700  0.4074  0.0663
 6934POPS   C2B83998  11.883  26.534   4.602 -0.0562  0.0647  0.1123
 6934POPS   C3B83999  12.166  26.206   4.808 -0.2367 -0.0854 -0.1614
 6934POPS   C4B84000  12.160  25.955   5.254 -0.1261  0.2514 -0.0567
 6935POPS   CNO84001  23.793   2.814   3.542  0.1718  0.2674 -0.0273
 6935POPS   PO484002  23.863   3.121   3.698  0.1301 -0.4775  0.0325
 6935POPS   GL184003  23.940   3.149   4.083 -0.2308 -0.2335 -0.1070
 6935POPS   GL284004  23.721   2.979   4.172  0.1092  0.0936  0.1698
 6935POPS   C1A84005  24.280   3.133   4.372  0.0093  0.0613 -0.1616
 6935POPS   D2A84006  24.407   2.883   4.734 -0.2742 -0.1913  0.0080
 6935POPS   C3A84007  24.408   2.915   5.214  0.1461 -0.1274  0.2652
 6935POPS   C4A84008  24.383   2.915   5.733  0.2885  0.2206  0.0785
 6935POPS   C1B84009  23.531   2.756   4.468 -0.4651  0.0507 -0.1313
 6935POPS   C2B84010  23.293   2.447   4.743 -0.0455  0.0360  0.0959
 6935POPS   C3B84011  23.396   2.345   5.197  0.2081  0.2753  0.1426
 6935POPS   C4B84012  23.776   2.378   5.489 -0.1795  0.0279  0.0747
 6936POPS   CNO84013  28.836  20.152   3.585  0.1139 -0.0761 -0.0294
 6936POPS   PO484014  28.558  20.385   3.518 -0.0816  0.1409 -0.2075
 6936POPS   GL184015  28.548  20.452   3.923 -0.5282 -0.1744  0.2103
 6936POPS   GL284016  28.807  20.562   3.947  0.1658 -0.3662  0.1137
 6936POPS   C1A84017  28.603  20.065   4.214  0.4165  0.2116 -0.0711
 6936POPS   D2A84018  28.572  19.806   4.624 -0.3102  0.1997 -0.2237
 6936POPS   C3A84019  28.514  19.536   4.971 -0.1602  0.1300 -0.0960
 6936POPS   C4A84020  28.358  19.319   5.354  0.2149  0.1896 -0.3967
 6936POPS   C1B84021  28.858  20.436   4.375 -0.2314  0.0292  0.2041
 6936POPS   C2B84022  28.896  20.623   4.808 -0.1629 -0.0920 -0.1844
 6936POPS   C3B84023  29.051  20.652   5.222 -0.1396 -0.2347  0.2828
 6936POPS   C4B84024  29.280  20.565   5.594 -0.0537  0.0823 -0.0996
 6937POPS   CNO84025  15.175  21.369   3.381 -0.0110  0.4093 -0.0138
 6937POPS   PO484026  14.992  21.041   3.423 -0.0522 -0.1941  0.1343
 6937POPS   GL184027  14.698  21.001   3.794  0.0911 -0.0683 -0.2423
 6937POPS   GL284028  14.522  20.755   3.873 -0.0450  0.0350 -0.0307
 6937POPS   C1A84029  14.348  21.189   4.097 -0.0732 -0.0645  0.0269
 6937POPS   D2A84030  14.251  21.031   4.535 -0.1557  0.0905 -0.0903
 6937POPS   C3A84031  14.217  20.628   4.752  0.2832  0.0381 -0.2299
 6937POPS   C4A84032  14.444  20.463   5.091 -0.2622  0.1656 -0.0947
 6937POPS   C1B84033  14.536  20.667   4.386 -0.4291  0.0840  0.0701
 6937POPS   C2B84034  14.754  20.665   4.827  0.1233 -0.0545  0.1820
 6937POPS   C3B84035  14.925  20.543   5.220  0.0831 -0.2562 -0.0521
 6937POPS   C4B84036  15.265  20.374   5.505 -0.0393  0.0224  0.0278
 6938POPS   CNO84037  25.189   2.783   3.400 -0.1672 -0.0670 -0.1031
 6938POPS   PO484038  25.116   2.719   3.764 -0.0533  0.1019  0.2641
 6938POPS   GL184039  25.105   2.618   4.158 -0.0455  0.1268  0.2199
 6938POPS   GL284040  24.938   2.458   4.207  0.3392 -0.2299  0.0785
 6938POPS   C1A84041  25.225   2.840   4.563  0.0754  0.1463 -0.0062
 6938POPS   D2A84042  25.360   3.135   4.899  0.3506  0.2006 -0.1344
 6938POPS   C3A84043  25.080   3.428   5.061 -0.2451 -0.1600  0.1917
 6938POPS   C4A84044  24.643   3.395   5.040  0.1128 -0.2126 -0.0375
 6938POPS   C1B84045  24.819   2.618   4.577  0.0299  0.3163 -0.0263
 6938POPS   C2B84046  24.633   2.530   4.988  0.0590 -0.0950  0.2627
 6938POPS   C3B84047  24.746   2.544   5.398  0.2905  0.3827 -0.3168
 6938POPS   C4B84048  25.081   2.557   5.698 -0.0879 -0.0201  0.0197
 6939POPS   CNO84049   4.474   0.260   3.543 -0.1573 -0.0803 -0.0643
 6939POPS   PO484050   4.354   0.364   3.883 -0.0036 -0.1315  0.2579
 6939POPS   GL184051   4.257   0.388   4.304 -0.0721 -0.4113  0.1882
 6939POPS   GL284052   4.400   0.193   4.429  0.0932 -0.1634  0.0927
 6939POPS   C1A84053   4.107   0.617   4.674 -0.1266  0.0853 -0.0300
 6939POPS   D2A84054   3.822   0.762   5.007  0.2174 -0.1694 -0.0496
 6939POPS   C3A84055   3.961   0.847   5.410 -0.2567  0.0911 -0.0593
 6939POPS   C4A84056   3.678   0.825   5.804  0.1335 -0.1234  0.2477
 6939POPS   C1B84057   4.532   0.149   4.891 -0.3070 -0.2267 -0.1118
 6939POPS   C2B84058   4.415   0.056   5.329 -0.2329  0.0690  0.0817
 6939POPS   C3B84059   4.499   0.234   5.732 -0.2406  0.2712  0.1892
 6939POPS   C4B84060   4.757   0.365   6.056 -0.1021 -0.0049 -0.1517
 6940POPS   CNO84061   0.416   5.959   3.482  0.1197 -0.3268 -0.1522
 6940POPS   PO484062   0.498   6.321   3.564  0.1102  0.0449 -0.2676
 6940POPS   GL184063   0.280   6.371   3.875 -0.0614  0.0480 -0.2323
 6940POPS   GL284064   0.170   6.632   3.851 -0.0700 -0.0063  0.0544
 6940POPS   C1A84065   0.144   6.035   4.208  0.1627 -0.1114 -0.3864
 6940POPS   D2A84066   0.223   6.002   4.641 -0.2880  0.0108 -0.1621
 6940POPS   C3A84067   0.210   5.811   5.088 -0.1438  0.1681  0.1818
 6940POPS   C4A84068   0.028   5.834   5.533 -0.2682  0.0334 -0.1155
 6940POPS   C1B84069   0.339   6.721   4.306 -0.0931  0.0474 -0.1702
 6940POPS   C2B84070   0.387   6.654   4.762  0.3253  0.0008  0.0379
 6940POPS   C3B84071   0.360   6.560   5.223 -0.1075 -0.1704  0.0811
 6940POPS   C4B84072   0.197   6.868   5.522  0.3826 -0.4655  0.1664
 6941POPS   CNO84073  20.409   9.035   3.287  0.1440 -0.0900 -0.0658
 6941POPS   PO484074  20.342   9.093   3.641  0.0831  0.0986  0.0452
 6941POPS   GL184075  20.213   9.043   3.982  0.2141 -0.5908 -0.1805
 6941POPS   GL284076  20.391   8.878   4.100 -0.0040  0.0763 -0.0872
 6941POPS   C1A84077  19.819   8.928   4.136 -0.1928  0.0608 -0.1201
 6941POPS   D2A84078  19.591   8.724   4.524 -0.2910 -0.1041  0.0044
 6941POPS   C3A84079  19.597   8.646   4.963  0.4079 -0.1134 -0.1417
 6941POPS   C4A84080  19.649   8.838   5.407 -0.1109  0.4367  0.1582
 6941POPS   C1B84081  20.236   8.978   4.585  0.0105 -0.1036 -0.0672
 6941POPS   C2B84082  20.240   9.358   4.831  0.2026 -0.2097 -0.2446
 6941POPS   C3B84083  19.936   9.610   5.106 -0.0449  0.1300  0.1266
 6941POPS   C4B84084  19.670   9.314   5.365  0.1006 -0.0036  0.1741
 6942POPS   CNO84085   5.148  22.798   3.665  0.2527 -0.0533 -0.0107
 6942POPS   PO484086   4.937  22.948   3.946  0.3288 -0.2580 -0.0624
 6942POPS   GL184087   4.881  23.005   4.328 -0.2022 -0.0867  0.4249
 6942POPS   GL284088   5.042  23.247   4.349  0.2862 -0.3090 -0.0245
 6942POPS   C1A84089   4.515  22.999   4.597  0.1616  0.1937 -0.0249
 6942POPS   D2A84090   4.293  22.862   5.060 -0.1655  0.0878 -0.0748
 6942POPS   C3A84091   4.500  23.094   5.395 -0.1155 -0.0132 -0.3910
 6942POPS   C4A84092   4.368  23.217   5.848 -0.2717 -0.1288  0.1960
 6942POPS   C1B84093   4.899  23.100   4.823 -0.2060  0.1327 -0.0591
 6942POPS   C2B84094   5.014  23.053   5.314  0.0077  0.0086 -0.0819
 6942POPS   C3B84095   4.961  23.040   5.725  0.2468 -0.0910 -0.2791
 6942POPS   C4B84096   4.806  22.879   6.172  0.1778 -0.0190  0.1097
 6943POPS   CNO84097  28.721   8.057   3.719 -0.0715  0.2295 -0.2003
 6943POPS   PO484098  28.483   8.356   3.741 -0.0797  0.0806 -0.1380
 6943POPS   GL184099  28.557   8.326   4.119 -0.2774  0.1694  0.2708
 6943POPS   GL284100  28.743   8.116   4.296  0.0082 -0.1394  0.0750
 6943POPS   C1A84101  28.379   8.459   4.514 -0.3453  0.0146  0.1279
 6943POPS   D2A84102  28.133   8.721   4.817 -0.0229  0.1314 -0.1427
 6943POPS   C3A84103  28.400   9.042   4.981 -0.0039 -0.1258  0.0976
 6943POPS   C4A84104  28.522   9.430   5.242 -0.0056 -0.0729 -0.0430
 6943POPS   C1B84105  28.793   8.162   4.716 -0.1008 -0.2490  0.0410
 6943POPS   C2B84106  28.424   8.306   4.998  0.2895  0.0320  0.0584
 6943POPS   C3B84107  28.333   8.661   5.272 -0.0451  0.2669 -0.1705
 6943POPS   C4B84108  28.348   9.064   5.507 -0.1632  0.1303 -0.1706
 6944POPS   CNO84109  10.848  12.453   4.076  0.0604  0.2050 -0.4361
 6944POPS   PO484110  10.513  12.333   3.921 -0.1379  0.1719  0.0979
 6944POPS   GL184111  10.380  12.217   4.232 -0.4067 -0.0805  0.0517
 6944POPS   GL284112  10.612  12.032   4.335 -0.1019 -0.1732  0.0026
 6944POPS   C1A84113  10.195  11.926   4.493 -0.0141 -0.3288  0.1395
 6944POPS   D2A84114  10.231  11.621   4.807  0.1096 -0.2416  0.0925
 6944POPS   C3A84115  10.345  11.614   5.275  0.1586  0.0930  0.2426
 6944POPS   C4A84116  10.208  11.569   5.740  0.2256 -0.0668  0.0793
 6944POPS   C1B84117  10.574  11.967   4.780 -0.1104 -0.1653  0.0030
 6944POPS   C2B84118  10.436  12.073   5.257  0.0010  0.1463  0.1483
 6944POPS   C3B84119  10.610  11.944   5.620  0.3439  0.0058 -0.0727
 6944POPS   C4B84120  10.589  12.056   6.080  0.1712  0.2468 -0.2266
 6945POPS   CNO84121  10.083  11.174   3.774  0.1403 -0.0712  0.4468
 6945POPS   PO484122   9.849  11.407   3.995 -0.2407  0.0301  0.0108
 6945POPS   GL184123   9.576  11.379   4.350 -0.1122 -0.0822 -0.0199
 6945POPS   GL284124   9.472  11.621   4.301  0.0920 -0.0739 -0.1206
 6945POPS   C1A84125   9.643  11.590   4.773  0.0293  0.0127  0.0293
 6945POPS   D2A84126   9.826  11.726   5.225  0.3016 -0.2201 -0.1221
 6945POPS   C3A84127  10.020  12.021   5.548  0.0265 -0.2354  0.1782
 6945POPS   C4A84128   9.835  12.216   5.901  0.1039  0.0219  0.2352
 6945POPS   C1B84129   9.161  11.294   4.466  0.0586 -0.0749  0.3554
 6945POPS   C2B84130   8.838  11.156   4.722  0.0180  0.1213  0.0102
 6945POPS   C3B84131   8.572  10.969   5.076 -0.2196 -0.0962  0.0607
 6945POPS   C4B84132   8.364  11.005   5.537  0.2938 -0.1790  0.4522
 6946POPS   CNO84133  14.885   5.438   3.397  0.0498  0.1590 -0.0455
 6946POPS   PO484134  14.648   5.185   3.536 -0.0236 -0.0965  0.2966
 6946POPS   GL184135  14.546   5.093   3.915 -0.2033 -0.1502 -0.1317
 6946POPS   GL284136  14.571   5.364   4.040 -0.1435 -0.0339  0.2177
 6946POPS   C1A84137  14.479   4.989   4.399  0.1403  0.0610  0.3157
 6946POPS   D2A84138  14.278   5.140   4.801 -0.0282 -0.0667 -0.1466
 6946POPS   C3A84139  14.087   5.525   4.941 -0.0884 -0.2111  0.0254
 6946POPS   C4A84140  14.114   5.650   5.367  0.0444 -0.2692 -0.0966
 6946POPS   C1B84141  14.821   5.532   4.413 -0.2390  0.0605 -0.0589
 6946POPS   C2B84142  15.142   5.549   4.746  0.0216  0.2161 -0.1301
 6946POPS   C3B84143  15.378   5.668   5.110  0.2998 -0.0269 -0.0960
 6946POPS   C4B84144  15.262   5.589   5.577  0.0750 -0.0936  0.1194
 6947POPS   CNO84145  15.891  20.457   3.276 -0.0390 -0.1381  0.0453
 6947POPS   PO484146  16.078  20.761   3.409 -0.0484 -0.2845  0.0437
 6947POPS   GL184147  16.229  20.738   3.814  0.3373 -0.1224 -0.1554
 6947POPS   GL284148  16.286  21.028   3.903 -0.0022 -0.0894 -0.0465
 6947POPS   C1A84149  16.019  20.615   4.224  0.1919 -0.0083  0.0362
 6947POPS   D2A84150  15.720  20.623   4.557  0.0615  0.2141 -0.2026
 6947POPS   C3A84151  15.868  20.632   5.000 -0.1692 -0.0080 -0.1336
 6947POPS   C4A84152  15.701  20.841   5.389 -0.1723 -0.1771 -0.2288
 6947POPS   C1B84153  16.476  21.133   4.333  0.0169 -0.2247 -0.3593
 6947POPS   C2B84154  16.423  21.422   4.640  0.2407  0.1435 -0.1829
 6947POPS   C3B84155  16.083  21.620   4.900  0.0230 -0.1731 -0.1740
 6947POPS   C4B84156  15.920  21.900   5.297 -0.2930 -0.0274  0.0558
 6948POPS   CNO84157   8.802  15.394   3.603  0.1428  0.2188 -0.1537
 6948POPS   PO484158   8.939  15.730   3.544 -0.3934 -0.2961 -0.1047
 6948POPS   GL184159   8.810  15.960   3.880  0.1238  0.1546 -0.1567
 6948POPS   GL284160   8.779  15.748   4.017  0.0749  0.0078 -0.0102
 6948POPS   C1A84161   8.903  16.246   4.242 -0.0772 -0.0015 -0.1201
 6948POPS   D2A84162   9.182  16.515   4.453 -0.1398  0.3328 -0.0619
 6948POPS   C3A84163   9.057  16.564   4.943  0.3686  0.1045 -0.1536
 6948POPS   C4A84164   9.191  16.463   5.379  0.0577 -0.0024 -0.1666
 6948POPS   C1B84165   8.688  15.826   4.409 -0.0008 -0.2780 -0.1255
 6948POPS   C2B84166   8.532  15.811   4.813 -0.0786  0.0060 -0.1602
 6948POPS   C3B84167   8.665  15.698   5.259  0.4296 -0.0288  0.1196
 6948POPS   C4B84168   8.490  15.529   5.620  0.2507  0.1685  0.1075
 6949POPS   CNO84169  10.707  29.518   4.198 -0.2056 -0.0097  0.1266
 6949POPS   PO484170  10.756  29.194   4.003  0.0867  0.0562  0.0830
 6949POPS   GL184171  10.704  29.104   4.407  0.1506 -0.0030  0.4077
 6949POPS   GL284172  10.610  28.840   4.419  0.3102 -0.0999 -0.0271
 6949POPS   C1A84173  11.022  29.043   4.691  0.1334  0.0878 -0.1734
 6949POPS   D2A84174  11.036  28.949   5.139 -0.0279  0.1919 -0.0632
 6949POPS   C3A84175  10.688  29.102   5.389  0.3023 -0.0677  0.0295
 6949POPS   C4A84176  10.250  28.966   5.589  0.1729  0.0532  0.1398
 6949POPS   C1B84177  10.538  28.939   4.875  0.0947 -0.3147 -0.0784
 6949POPS   C2B84178  10.237  28.717   5.141  0.2501 -0.1686 -0.1568
 6949POPS   C3B84179  10.230  28.422   5.552 -0.0890  0.1615  0.0081
 6949POPS   C4B84180   9.912  28.251   5.860  0.0473 -0.2293 -0.3038
 6950POPS   CNO84181   5.492  25.763   3.202 -0.0228  0.0096  0.3926
 6950POPS   PO484182   5.754  25.771   3.501  0.0125 -0.1227  0.1710
 6950POPS   GL184183   6.018  25.893   3.818  0.1952 -0.2663  0.0670
 6950POPS   GL284184   5.861  26.033   3.976 -0.0999 -0.0504  0.1880
 6950POPS   C1A84185   6.211  25.740   4.192  0.0501  0.1149  0.1803
 6950POPS   D2A84186   6.028  25.768   4.604  0.1679 -0.2073  0.0819
 6950POPS   C3A84187   5.968  26.179   4.755 -0.0488 -0.3672  0.0445
 6950POPS   C4A84188   5.819  26.643   4.706  0.1545 -0.0779 -0.0229
 6950POPS   C1B84189   5.717  26.256   4.341  0.2301  0.2202 -0.1825
 6950POPS   C2B84190   5.364  26.402   4.639  0.1381  0.2404 -0.2241
 6950POPS   C3B84191   5.398  26.466   5.049  0.1175  0.1123 -0.0804
 6950POPS   C4B84192   5.318  26.781   5.384  0.1618 -0.2824  0.0327
 6951POPS   CNO84193  18.269  19.690   3.503 -0.1135 -0.2643  0.4279
 6951POPS   PO484194  18.457  19.903   3.715  0.0993  0.3195 -0.0639
 6951POPS   GL184195  18.244  19.866   4.032  0.3985  0.1761 -0.0597
 6951POPS   GL284196  18.177  20.163   4.182  0.0426  0.2404  0.1968
 6951POPS   C1A84197  18.302  19.739   4.490 -0.2702  0.1548  0.2122
 6951POPS   D2A84198  18.562  19.492   4.804  0.1715  0.0363 -0.1414
 6951POPS   C3A84199  18.406  19.664   5.255 -0.1762 -0.2164 -0.2067
 6951POPS   C4A84200  18.193  19.619   5.662 -0.0389 -0.0504 -0.2076
 6951POPS   C1B84201  18.022  20.324   4.600  0.0753  0.0117 -0.0096
 6951POPS   C2B84202  18.005  20.240   5.079  0.1909  0.1727 -0.2002
 6951POPS   C3B84203  18.005  20.452   5.526  0.0684 -0.2340  0.0905
 6951POPS   C4B84204  17.728  20.646   5.875 -0.0060 -0.1368  0.1231
 6952POPS   CNO84205  28.142  24.592   3.765  0.0003 -0.0674 -0.0615
 6952POPS   PO484206  27.872  24.620   4.063 -0.0989  0.1747  0.0814
 6952POPS   GL184207  27.660  24.432   4.298  0.1576 -0.4809  0.0077
 6952POPS   GL284208  27.567  24.140   4.296  0.0814 -0.2962 -0.0323
 6952POPS   C1A84209  27.361  24.586   4.598  0.0854 -0.1842 -0.0702
 6952POPS   D2A84210  27.423  24.972   4.923 -0.0641 -0.2787  0.1646
 6952POPS   C3A84211  27.089  25.029   5.242 -0.1095 -0.0994 -0.0331
 6952POPS   C4A84212  26.738  24.913   5.595 -0.1981  0.0610  0.0207
 6952POPS   C1B84213  27.440  23.995   4.695  0.0743  0.1723  0.1454
 6952POPS   C2B84214  27.424  24.031   5.157  0.0454  0.3157  0.2412
 6952POPS   C3B84215  27.068  24.268   5.297 -0.2272 -0.0659 -0.0689
 6952POPS   C4B84216  26.897  24.634   5.149  0.3289  0.0619  0.2139
 6953POPS   CNO84217  13.954  15.473   3.262  0.0748 -0.0606 -0.1294
 6953POPS   PO484218  14.099  15.735   3.405 -0.2077  0.1903  0.2333
 6953POPS   GL184219  14.052  15.588   3.819 -0.1920  0.1208  0.0615
 6953POPS   GL284220  14.057  15.325   3.832 -0.0990 -0.2730  0.3307
 6953POPS   C1A84221  13.907  15.765   4.236  0.0290 -0.2351 -0.0387
 6953POPS   D2A84222  13.967  15.964   4.661 -0.0858 -0.0518 -0.0448
 6953POPS   C3A84223  13.936  15.752   5.015  0.0390 -0.0046  0.0689
 6953POPS   C4A84224  13.523  15.483   5.109 -0.2705  0.2442 -0.1167
 6953POPS   C1B84225  14.330  15.515   4.150  0.2150  0.3624 -0.0020
 6953POPS   C2B84226  14.626  15.622   4.433 -0.1147  0.2681 -0.1639
 6953POPS   C3B84227  14.590  15.569   4.862  0.1872 -0.1007  0.1268
 6953POPS   C4B84228  14.816  15.453   5.254 -0.0933  0.1639  0.0997
 6954POPS   CNO84229  23.943   0.869   3.300 -0.1157 -0.2934  0.0614
 6954POPS   PO484230  24.172   0.848   3.599  0.1280  0.2324 -0.0797
 6954POPS   GL184231  23.977   0.819   3.984 -0.3540 -0.4263 -0.1152
 6954POPS   GL284232  23.930   1.023   4.196  0.0145 -0.5387  0.0809
 6954POPS   C1A84233  23.977   0.498   4.299 -0.3000  0.1521  0.2228
 6954POPS   D2A84234  24.133   0.245   4.657 -0.0264 -0.1647 -0.0116
 6954POPS   C3A84235  24.443   0.353   4.981  0.0439  0.0825 -0.0773
 6954POPS   C4A84236  24.735   0.561   5.279 -0.1623  0.1150 -0.1330
 6954POPS   C1B84237  23.694   1.243   4.483  0.0605  0.0998 -0.0152
 6954POPS   C2B84238  23.467   1.364   4.839 -0.0153  0.0779  0.0056
 6954POPS   C3B84239  23.462   1.378   5.320 -0.2154  0.4351  0.1568
 6954POPS   C4B84240  23.671   1.386   5.748  0.1020 -0.1964 -0.1166
 6955POPS   CNO84241   2.682  12.866   3.698  0.2123 -0.3819  0.3029
 6955POPS   PO484242   2.747  12.883   4.094 -0.1647  0.2567  0.0427
 6955POPS   GL184243   2.716  12.671   4.374  0.2273  0.4003 -0.3072
 6955POPS   GL284244   3.055  12.626   4.391 -0.0764  0.3191 -0.0447
 6955POPS   C1A84245   2.635  12.497   4.831 -0.0411 -0.0166  0.1672
 6955POPS   D2A84246   2.483  12.411   5.254 -0.0203  0.2210 -0.0643
 6955POPS   C3A84247   2.330  12.081   5.548  0.0928 -0.1057 -0.1140
 6955POPS   C4A84248   2.547  11.784   5.785  0.0849  0.0264  0.1331
 6955POPS   C1B84249   3.122  12.717   4.831 -0.0770  0.1263  0.0667
 6955POPS   C2B84250   3.323  12.850   5.265 -0.0533  0.1592  0.0401
 6955POPS   C3B84251   3.324  13.062   5.686 -0.1384  0.2846 -0.3767
 6955POPS   C4B84252   3.519  13.144   6.099 -0.0769  0.1987  0.2678
 6956POPS   CNO84253  16.493  29.159   3.112 -0.0405  0.5455 -0.3618
 6956POPS   PO484254  16.438  29.316   3.412 -0.1663 -0.3302  0.2010
 6956POPS   GL184255  16.643  29.412   3.732 -0.1218 -0.2458  0.1218
 6956POPS   GL284256  16.585  29.657   3.886  0.1045  0.2317  0.1114
 6956POPS   C1A84257  16.738  29.301   4.174 -0.1110 -0.1173  0.2412
 6956POPS   D2A84258  16.996  29.197   4.562  0.2233  0.0611 -0.0248
 6956POPS   C3A84259  17.386  29.434   4.477  0.1152  0.1809  0.1432
 6956POPS   C4A84260  17.671  29.691   4.257 -0.1452  0.0972  0.2574
 6956POPS   C1B84261  16.355  29.657   4.287  0.0706  0.2381 -0.2220
 6956POPS   C2B84262  16.491  29.762   4.736 -0.1511 -0.1945  0.2727
 6956POPS   C3B84263  16.554  29.686   5.210 -0.2133  0.2764 -0.0194
 6956POPS   C4B84264  16.556  29.222   5.419  0.1789 -0.0919 -0.0339
 6957POPS   CNO84265  13.006   4.090   3.190 -0.1640 -0.1625  0.1239
 6957POPS   PO484266  13.165   4.363   3.433  0.0681 -0.0979  0.2201
 6957POPS   GL184267  12.921   4.340   3.761 -0.2049  0.4706 -0.1476
 6957POPS   GL284268  12.957   4.154   3.958 -0.0542 -0.3239  0.2797
 6957POPS   C1A84269  12.876   4.697   4.048  0.0705 -0.0900 -0.0827
 6957POPS   D2A84270  12.997   4.853   4.486 -0.1374 -0.0901  0.2672
 6957POPS   C3A84271  12.740   4.635   4.751 -0.2444 -0.2244 -0.1465
 6957POPS   C4A84272  12.631   4.829   5.168 -0.1009 -0.2066 -0.1310
 6957POPS   C1B84273  12.963   4.302   4.394 -0.2034 -0.2328  0.1801
 6957POPS   C2B84274  13.057   4.106   4.830 -0.1424  0.0371  0.1101
 6957POPS   C3B84275  13.315   3.895   5.110  0.1173 -0.1722 -0.1366
 6957POPS   C4B84276  13.616   3.745   5.438  0.1960  0.2762 -0.1200
 6958POPS   CNO84277  28.234   9.276   3.710 -0.0324  0.2660  0.2658
 6958POPS   PO484278  28.398   9.594   3.584  0.0215 -0.1484  0.2254
 6958POPS   GL184279  28.393   9.628   3.973 -0.3159  0.0657 -0.0369
 6958POPS   GL284280  28.505   9.560   4.268 -0.3496 -0.2501 -0.0866
 6958POPS   C1A84281  28.594  10.031   4.158 -0.1182  0.0398 -0.0772
 6958POPS   D2A84282  28.829  10.209   4.514  0.1203  0.0715 -0.2169
 6958POPS   C3A84283  28.567  10.518   4.798  0.1580 -0.0048  0.1268
 6958POPS   C4A84284  28.481  10.527   5.254 -0.1892  0.2285 -0.0463
 6958POPS   C1B84285  28.392   9.369   4.670  0.3190  0.0739  0.3458
 6958POPS   C2B84286  28.115   9.486   4.990  0.3931  0.0744 -0.3099
 6958POPS   C3B84287  28.131   9.701   5.416 -0.2561 -0.4196  0.3004
 6958POPS   C4B84288  28.447   9.605   5.717 -0.1181  0.3780  0.1519
 6959POPS   CNO84289  21.473  13.953   2.885  0.0097  0.1282 -0.1204
 6959POPS   PO484290  21.798  14.133   2.897 -0.1371 -0.1458  0.0372
 6959POPS   GL184291  21.801  14.238   3.323 -0.3967 -0.5306 -0.1518
 6959POPS   GL284292  21.566  14.210   3.406  0.1398 -0.2847  0.3141
 6959POPS   C1A84293  21.894  14.291   3.757  0.0610 -0.0126 -0.0587
 6959POPS   D2A84294  21.744  14.143   4.219 -0.3105  0.2210  0.1351
 6959POPS   C3A84295  21.368  13.957   4.300 -0.4133  0.2500 -0.0718
 6959POPS   C4A84296  20.961  14.122   4.249 -0.1253 -0.1022 -0.2732
 6959POPS   C1B84297  21.522  14.644   3.622 -0.2478  0.0510 -0.0450
 6959POPS   C2B84298  21.541  14.958   3.949 -0.0499  0.2145 -0.0367
 6959POPS   C3B84299  21.349  15.368   4.084 -0.1272 -0.2032 -0.2609
 6959POPS   C4B84300  20.917  15.518   4.019  0.1870 -0.0464 -0.1513
 6960POPS   CNO84301  12.287   7.748   3.465  0.2175  0.0871 -0.0506
 6960POPS   PO484302  12.487   8.047   3.596  0.2160  0.1314  0.2263
 6960POPS   GL184303  12.521   8.082   4.008  0.1050 -0.2154 -0.1658
 6960POPS   GL284304  12.316   7.985   4.170 -0.3090  0.0771 -0.0920
 6960POPS   C1A84305  12.883   8.150   4.313 -0.0104 -0.0337 -0.2609
 6960POPS   D2A84306  12.840   8.273   4.727  0.2232 -0.0380  0.1168
 6960POPS   C3A84307  12.725   8.567   5.124 -0.0735  0.0273  0.1965
 6960POPS   C4A84308  12.622   8.798   5.525 -0.0123 -0.2320 -0.4069
 6960POPS   C1B84309  12.464   7.987   4.607  0.0166  0.4369  0.2564
 6960POPS   C2B84310  12.617   7.828   5.044  0.1759 -0.2503  0.0350
 6960POPS   C3B84311  12.670   7.653   5.505 -0.0802  0.3058 -0.1473
 6960POPS   C4B84312  12.868   7.497   5.882  0.0126  0.0322  0.0179
 6961POPS   CNO84313  29.976  25.321   3.452 -0.1796  0.3548 -0.0407
 6961POPS   PO484314  30.141  25.037   3.644 -0.4165  0.0587 -0.2451
 6961POPS   GL184315  30.203  25.227   3.947  0.0071  0.1583 -0.3307
 6961POPS   GL284316  29.964  25.213   4.098 -0.0826 -0.2286  0.0787
 6961POPS   C1A84317  30.303  25.150   4.419  0.3238 -0.0363 -0.2959
 6961POPS   D2A84318  30.233  25.060   4.863 -0.0046  0.1351 -0.2676
 6961POPS   C3A84319  30.605  24.929   5.128  0.1237 -0.0234  0.0594
 6961POPS   C4A84320  30.906  25.056   5.461  0.0369 -0.3342 -0.1577
 6961POPS   C1B84321  29.816  25.080   4.494 -0.2867 -0.0398  0.0981
 6961POPS   C2B84322  29.783  24.863   4.897  0.1252 -0.0260 -0.1879
 6961POPS   C3B84323  29.667  24.634   5.273 -0.1910 -0.0562  0.2658
 6961POPS   C4B84324  29.636  24.610   5.738  0.2636  0.1663  0.0499
 6962POPS   CNO84325   8.248   2.451   3.393  0.1188  0.1365  0.1902
 6962POPS   PO484326   8.210   2.326   3.766 -0.0861  0.0728 -0.0746
 6962POPS   GL184327   8.151   2.327   4.081  0.0231  0.0381 -0.2098
 6962POPS   GL284328   7.906   2.220   4.170 -0.1386  0.0512 -0.3493
 6962POPS   C1A84329   8.090   2.642   4.426 -0.1007  0.2683 -0.1667
 6962POPS   D2A84330   8.147   2.728   4.881 -0.3181 -0.2045 -0.0097
 6962POPS   C3A84331   7.832   2.462   5.143  0.1355 -0.1551 -0.0371
 6962POPS   C4A84332   7.834   2.307   5.607 -0.2327  0.2049 -0.0190
 6962POPS   C1B84333   7.778   2.177   4.566  0.1053 -0.0780 -0.1496
 6962POPS   C2B84334   7.748   1.980   4.983 -0.0170 -0.0837  0.0310
 6962POPS   C3B84335   7.505   2.015   5.381 -0.1487  0.2573 -0.1301
 6962POPS   C4B84336   7.323   2.027   5.820  0.1430  0.0889 -0.2671
 6963POPS   CNO84337  15.045   2.569   3.280 -0.0971 -0.1008  0.0959
 6963POPS   PO484338  14.692   2.622   3.362  0.0760 -0.1203 -0.2835
 6963POPS   GL184339  14.471   2.545   3.692 -0.0741  0.0695  0.0141
 6963POPS   GL284340  14.210   2.610   3.799 -0.1320 -0.1873 -0.0621
 6963POPS   C1A84341  14.581   2.523   4.148 -0.0533 -0.3192  0.0390
 6963POPS   D2A84342  14.797   2.251   4.422  0.2724  0.2677  0.0654
 6963POPS   C3A84343  14.884   2.166   4.855 -0.1039  0.0470 -0.0786
 6963POPS   C4A84344  14.811   1.972   5.231  0.1227 -0.0474  0.1614
 6963POPS   C1B84345  13.753   2.623   4.005  0.0503  0.0597 -0.0326
 6963POPS   C2B84346  13.680   2.514   4.463 -0.1527 -0.2250  0.1199
 6963POPS   C3B84347  13.603   2.164   4.758 -0.0755 -0.0539 -0.1607
 6963POPS   C4B84348  13.525   1.936   5.150  0.0402 -0.3462 -0.4270
 6964POPS   CNO84349  19.124  21.532   3.595 -0.3115  0.1500 -0.1763
 6964POPS   PO484350  18.900  21.608   3.914 -0.4076  0.3570  0.1461
 6964POPS   GL184351  18.782  21.640   4.221  0.3923  0.4084  0.0441
 6964POPS   GL284352  18.853  21.876   4.334  0.0196  0.2794 -0.0874
 6964POPS   C1A84353  18.664  21.498   4.626  0.0080 -0.0998  0.2514
 6964POPS   D2A84354  18.717  21.178   4.991 -0.3179 -0.1059  0.1135
 6964POPS   C3A84355  19.067  21.290   5.304 -0.0587 -0.2935  0.4649
 6964POPS   C4A84356  19.286  21.536   5.697 -0.0215 -0.1005 -0.1644
 6964POPS   C1B84357  18.842  22.020   4.823  0.0398 -0.0778  0.1904
 6964POPS   C2B84358  18.681  22.158   5.243 -0.1175  0.0692  0.0627
 6964POPS   C3B84359  18.536  22.356   5.642  0.1936  0.1781  0.2011
 6964POPS   C4B84360  18.085  22.487   5.721 -0.1995 -0.0383 -0.2211
 6965POPS   CNO84361   9.540   2.294   3.454  0.0706  0.0321 -0.0950
 6965POPS   PO484362   9.699   2.586   3.524  0.1279  0.2179 -0.4380
 6965POPS   GL184363   9.846   2.437   3.861  0.0512  0.1234 -0.0673
 6965POPS   GL284364  10.095   2.354   3.879 -0.0653 -0.1381 -0.2437
 6965POPS   C1A84365   9.691   2.631   4.323  0.1498  0.0147  0.2119
 6965POPS   D2A84366   9.657   2.828   4.698  0.0555 -0.0154  0.1585
 6965POPS   C3A84367   9.875   3.037   5.109  0.0499  0.3522  0.1059
 6965POPS   C4A84368   9.834   3.383   5.370  0.2458 -0.2200 -0.1681
 6965POPS   C1B84369  10.068   2.368   4.352  0.1756  0.0590 -0.0737
 6965POPS   C2B84370  10.029   2.293   4.827  0.2303  0.1893 -0.1207
 6965POPS   C3B84371  10.029   2.527   5.184 -0.0133  0.1451  0.2022
 6965POPS   C4B84372  10.022   2.818   5.559  0.1049  0.2585 -0.0355
 6966POPS   CNO84373   6.754   8.760   3.807 -0.0253 -0.1295  0.0628
 6966POPS   PO484374   6.706   9.011   4.061  0.0108  0.5512 -0.1137
 6966POPS   GL184375   6.841   8.898   4.438 -0.0787 -0.0995 -0.2050
 6966POPS   GL284376   6.977   9.157   4.493  0.0117  0.0863 -0.2850
 6966POPS   C1A84377   6.815   8.948   4.913 -0.1154 -0.0195  0.0810
 6966POPS   D2A84378   6.630   9.158   5.219 -0.0937 -0.0723  0.2794
 6966POPS   C3A84379   6.416   9.528   5.388 -0.2363  0.0155  0.1209
 6966POPS   C4A84380   6.376   9.789   5.720 -0.1691 -0.2435  0.2395
 6966POPS   C1B84381   6.864   9.460   4.817 -0.0428 -0.0752  0.3584
 6966POPS   C2B84382   6.879   9.638   5.201 -0.1181  0.0846  0.1894
 6966POPS   C3B84383   6.828   9.787   5.608 -0.0251  0.0832 -0.4507
 6966POPS   C4B84384   6.698  10.207   5.742 -0.1343  0.3412 -0.1103
 6967POPS   CNO84385  13.107  29.769   3.466 -0.0128  0.0623 -0.1277
 6967POPS   PO484386  13.419  29.587   3.549 -0.1489  0.0526 -0.1792
 6967POPS   GL184387  13.391  29.522   3.879 -0.3445  0.1080  0.1100
 6967POPS   GL284388  13.211  29.482   4.115  0.1568 -0.2245  0.1625
 6967POPS   C1A84389  13.661  29.228   4.133  0.2750  0.0466  0.0708
 6967POPS   D2A84390  13.851  28.856   4.239 -0.1205 -0.2665 -0.1344
 6967POPS   C3A84391  14.242  28.702   4.377 -0.1321  0.2222 -0.1630
 6967POPS   C4A84392  14.558  28.480   4.664  0.4120 -0.1766  0.0327
 6967POPS   C1B84393  13.166  29.389   4.501  0.4592 -0.1564 -0.2409
 6967POPS   C2B84394  13.025  29.217   4.881 -0.0460 -0.1344 -0.0581
 6967POPS   C3B84395  12.876  29.057   5.278  0.1777  0.2280  0.1223
 6967POPS   C4B84396  12.996  29.033   5.742 -0.0892  0.2568 -0.0414
 6968POPS   CNO84397   8.581  31.334   3.384 -0.1005  0.0671 -0.0496
 6968POPS   PO484398   8.373  31.204   3.678 -0.3374  0.3801 -0.1814
 6968POPS   GL184399   8.413  31.108   4.046  0.0512  0.0759 -0.0798
 6968POPS   GL284400   8.552  31.296   4.241  0.4184  0.1983 -0.1215
 6968POPS   C1A84401   8.024  31.111   4.254  0.0309 -0.2748 -0.1387
 6968POPS   D2A84402   7.997  31.170   4.732 -0.4681  0.0886 -0.0672
 6968POPS   C3A84403   8.023  31.025   5.175 -0.3383 -0.1470  0.4027
 6968POPS   C4A84404   8.162  30.839   5.518 -0.0862  0.1663  0.1002
 6968POPS   C1B84405   8.759  31.280   4.689  0.3776 -0.1422 -0.2655
 6968POPS   C2B84406   8.873  31.074   5.064 -0.0932  0.0712  0.1861
 6968POPS   C3B84407   8.669  30.948   5.476 -0.2446  0.0957  0.1524
 6968POPS   C4B84408   8.498  30.869   5.884  0.0436 -0.0279  0.0226
 6969POPS   CNO84409  18.123  23.096   3.601 -0.0082  0.1935 -0.1664
 6969POPS   PO484410  18.236  22.759   3.669 -0.0700  0.1331 -0.1684
 6969POPS   GL184411  18.108  22.755   4.073 -0.3442  0.2518 -0.4325
 6969POPS   GL284412  18.231  22.716   4.398 -0.2168 -0.0996  0.2313
 6969POPS   C1A84413  17.724  22.576   4.305  0.2513 -0.0599  0.0495
 6969POPS   D2A84414  17.268  22.519   4.539 -0.2858 -0.0123  0.0369
 6969POPS   C3A84415  17.212  22.366   4.986 -0.1606 -0.0378 -0.1997
 6969POPS   C4A84416  16.778  22.240   5.150 -0.0324 -0.1865  0.2352
 6969POPS   C1B84417  18.118  22.752   4.890  0.0438 -0.2367 -0.0728
 6969POPS   C2B84418  17.964  22.904   5.286  0.2385  0.1222 -0.0195
 6969POPS   C3B84419  17.736  22.919   5.666  0.4125 -0.1317 -0.0596
 6969POPS   C4B84420  17.463  23.047   6.076  0.2390  0.2018  0.0286
 6970POPS   CNO84421  12.844  20.258   3.163  0.0914  0.2036  0.0230
 6970POPS   PO484422  12.592  20.302   3.413  0.3261  0.0147  0.0579
 6970POPS   GL184423  12.845  19.961   3.456  0.1085 -0.1830 -0.3673
 6970POPS   GL284424  12.541  19.824   3.582  0.0985 -0.1128 -0.2172
 6970POPS   C1A84425  13.086  19.679   3.691 -0.1412  0.1076 -0.2832
 6970POPS   D2A84426  13.116  19.299   3.961 -0.4582 -0.3781 -0.1879
 6970POPS   C3A84427  12.821  19.147   4.255  0.0425  0.1633  0.0003
 6970POPS   C4A84428  12.449  18.845   4.364  0.0590  0.2496  0.1374
 6970POPS   C1B84429  12.609  19.564   3.946  0.0858  0.1452  0.0787
 6970POPS   C2B84430  12.440  19.448   4.381  0.2145 -0.0462 -0.1194
 6970POPS   C3B84431  12.336  19.241   4.811 -0.1300  0.2537  0.0635
 6970POPS   C4B84432  12.287  19.233   5.248  0.0325 -0.1248 -0.0220
 6971POPS   CNO84433  31.014  18.550   3.640 -0.2746 -0.0673 -0.2408
 6971POPS   PO484434  30.991  18.871   3.880 -0.1953 -0.2309  0.2094
 6971POPS   GL184435  31.049  19.008   4.237  0.0945  0.2679 -0.2871
 6971POPS   GL284436  30.797  19.058   4.301 -0.2411  0.0659 -0.1677
 6971POPS   C1A84437  31.197  18.909   4.622 -0.6144 -0.1082  0.2811
 6971POPS   D2A84438  31.288  18.642   4.949  0.2454  0.2379  0.1231
 6971POPS   C3A84439  31.034  18.774   5.276  0.0013 -0.2557 -0.3882
 6971POPS   C4A84440  31.157  18.660   5.701 -0.1333  0.0187  0.1016
 6971POPS   C1B84441  30.890  19.324   4.558  0.5972 -0.0140  0.2747
 6971POPS   C2B84442  30.707  19.347   4.969  0.3171  0.1088 -0.0566
 6971POPS   C3B84443  30.688  19.482   5.415 -0.2688  0.1106  0.1806
 6971POPS   C4B84444  30.611  19.600   5.861 -0.2384  0.2492  0.2944
 6972POPS   CNO84445  30.858  29.436   3.797 -0.0856 -0.1048  0.0125
 6972POPS   PO484446  30.926  29.159   4.055 -0.2397  0.2663 -0.1381
 6972POPS   GL184447  30.946  29.090   4.426 -0.0489 -0.0636 -0.1935
 6972POPS   GL284448  30.988  28.807   4.508  0.0946  0.4507 -0.1730
 6972POPS   C1A84449  30.858  29.209   4.854  0.1335 -0.1119  0.4040
 6972POPS   D2A84450  30.746  29.347   5.269  0.2046 -0.1125  0.1109
 6972POPS   C3A84451  31.029  29.358   5.579 -0.0357  0.2320 -0.1030
 6972POPS   C4A84452  31.441  29.401   5.816  0.0219  0.0085 -0.1920
 6972POPS   C1B84453  31.322  28.968   4.750 -0.0850  0.0386  0.1943
 6972POPS   C2B84454  31.732  28.914   4.983  0.0515  0.3268 -0.1743
 6972POPS   C3B84455  31.938  28.734   5.385 -0.1401 -0.1829 -0.1087
 6972POPS   C4B84456  32.051  28.525   5.796 -0.1067 -0.0653  0.1618
 6973POPS   CNO84457  27.495   1.220   3.204  0.1557 -0.0149  0.1159
 6973POPS   PO484458  27.549   1.344   3.538 -0.1907 -0.1440  0.2089
 6973POPS   GL184459  27.542   1.403   3.966 -0.2542  0.3720 -0.0938
 6973POPS   GL284460  27.607   1.671   3.912 -0.3331  0.0305  0.2042
 6973POPS   C1A84461  27.998   1.438   4.114  0.1002 -0.2831  0.5001
 6973POPS   D2A84462  28.466   1.538   4.279 -0.1591  0.2879 -0.3896
 6973POPS   C3A84463  28.598   1.570   4.720 -0.1208  0.1659 -0.2333
 6973POPS   C4A84464  28.691   1.390   5.097  0.0061 -0.0373  0.0644
 6973POPS   C1B84465  27.630   1.632   4.364 -0.4005 -0.2117  0.0031
 6973POPS   C2B84466  27.700   1.379   4.772  0.0307  0.1224  0.0084
 6973POPS   C3B84467  27.658   1.399   5.263  0.0404 -0.3184 -0.0647
 6973POPS   C4B84468  27.515   1.082   5.562 -0.2177 -0.0371 -0.0868
 6974POPS   CNO84469  31.048   3.677   3.793  0.0798 -0.1343 -0.0670
 6974POPS   PO484470  31.391   3.729   3.675 -0.0465  0.0338  0.0283
 6974POPS   GL184471  31.545   3.460   3.992 -0.4230 -0.6720  0.0179
 6974POPS   GL284472  31.883   3.405   4.027 -0.1102 -0.1648 -0.0996
 6974POPS   C1A84473  31.464   3.251   4.403  0.1177 -0.0001  0.1056
 6974POPS   D2A84474  31.348   3.195   4.865 -0.0150  0.0823 -0.0872
 6974POPS   C3A84475  31.079   2.871   5.060  0.0171  0.2261  0.2946
 6974POPS   C4A84476  30.731   2.610   5.124  0.0810 -0.4679  0.1399
 6974POPS   C1B84477  31.971   3.566   4.407 -0.0810  0.4110 -0.1613
 6974POPS   C2B84478  31.858   3.433   4.866  0.0141  0.2059 -0.0412
 6974POPS   C3B84479  31.772   3.249   5.290  0.0301  0.0640 -0.1178
 6974POPS   C4B84480  31.895   3.150   5.770 -0.0736  0.0334  0.0781
 6975POPS   CNO84481   0.038  12.947   3.535 -0.0465 -0.0940  0.2380
 6975POPS   PO484482  -0.155  13.171   3.786 -0.1651  0.1452  0.1423
 6975POPS   GL184483  -0.181  13.142   4.151 -0.0951 -0.2793 -0.0784
 6975POPS   GL284484  -0.159  13.396   4.238 -0.4791 -0.0799 -0.1910
 6975POPS   C1A84485   0.062  12.938   4.496  0.0058 -0.1179  0.0732
 6975POPS   D2A84486   0.200  12.792   4.939  0.0804  0.0054 -0.1325
 6975POPS   C3A84487  -0.115  12.770   5.238 -0.2536  0.1743 -0.1312
 6975POPS   C4A84488  -0.184  12.611   5.690  0.1766  0.1391  0.1291
 6975POPS   C1B84489  -0.290  13.611   4.623  0.0619 -0.2466  0.0541
 6975POPS   C2B84490  -0.266  13.696   5.017  0.0467 -0.0588 -0.1211
 6975POPS   C3B84491  -0.060  13.600   5.434  0.2111  0.1633 -0.3479
 6975POPS   C4B84492  -0.151  13.576   5.876  0.4023 -0.1479  0.0534
 6976POPS   CNO84493   5.678  15.317   3.741  0.1508 -0.0345 -0.2210
 6976POPS   PO484494   5.342  15.140   3.842 -0.1007 -0.0965  0.3705
 6976POPS   GL184495   5.106  15.098   4.189  0.0284 -0.1173 -0.1305
 6976POPS   GL284496   4.819  15.146   4.303  0.0884  0.0441 -0.1315
 6976POPS   C1A84497   5.346  15.211   4.582  0.3893 -0.0422  0.0336
 6976POPS   D2A84498   5.227  15.206   5.053 -0.0450  0.3084 -0.1330
 6976POPS   C3A84499   5.258  15.540   5.388 -0.4133 -0.0368 -0.2832
 6976POPS   C4A84500   5.141  15.968   5.542  0.1752  0.1055 -0.2595
 6976POPS   C1B84501   4.912  15.378   4.713  0.2180  0.2032  0.0625
 6976POPS   C2B84502   4.774  15.230   5.173  0.0366 -0.2357  0.1940
 6976POPS   C3B84503   4.660  14.965   5.573 -0.3222  0.0322  0.1799
 6976POPS   C4B84504   4.415  14.945   6.005  0.2436  0.1823 -0.4014
 6977POPS   CNO84505  11.057  12.974   3.785  0.2297 -0.2857  0.3134
 6977POPS   PO484506  10.893  13.187   4.070  0.2610 -0.0520  0.0367
 6977POPS   GL184507  11.005  12.965   4.305 -0.0574 -0.3532 -0.0998
 6977POPS   GL284508  11.164  13.093   4.541  0.1926 -0.0978 -0.0155
 6977POPS   C1A84509  10.942  12.598   4.598  0.0070 -0.1617 -0.1948
 6977POPS   D2A84510  10.973  12.223   4.877  0.2323  0.0281 -0.0310
 6977POPS   C3A84511  10.960  12.312   5.351 -0.0921 -0.0068  0.0927
 6977POPS   C4A84512  10.627  12.462   5.639 -0.0891 -0.0999  0.0713
 6977POPS   C1B84513  11.388  13.456   4.762  0.0438 -0.3391  0.0903
 6977POPS   C2B84514  11.731  13.483   5.029 -0.0492  0.1627 -0.2780
 6977POPS   C3B84515  11.659  13.351   5.499 -0.0193  0.0417 -0.1729
 6977POPS   C4B84516  11.606  12.928   5.678  0.1645  0.0056  0.1917
 6978POPS   CNO84517   9.946  27.664   3.523 -0.0426  0.2945  0.0418
 6978POPS   PO484518   9.782  27.764   3.814  0.2866 -0.0984 -0.0679
 6978POPS   GL184519   9.413  27.893   4.023 -0.2508  0.0364  0.0040
 6978POPS   GL284520   9.542  28.002   4.267 -0.1622 -0.0657 -0.1534
 6978POPS   C1A84521   9.191  27.687   4.340  0.1971  0.0314  0.1618
 6978POPS   D2A84522   9.101  27.560   4.791 -0.1105 -0.2746 -0.0288
 6978POPS   C3A84523   8.940  27.247   5.082  0.1856 -0.0194 -0.2827
 6978POPS   C4A84524   8.737  26.890   5.386 -0.0323  0.0994 -0.2632
 6978POPS   C1B84525   9.347  28.007   4.736  0.3573  0.1284 -0.2518
 6978POPS   C2B84526   9.076  27.960   5.089 -0.0914  0.1499 -0.1841
 6978POPS   C3B84527   8.919  28.156   5.461 -0.0801 -0.2706  0.1344
 6978POPS   C4B84528   8.627  28.390   5.700  0.0440  0.2712 -0.0538
 6979POPS   CNO84529  20.613  10.158   3.797 -0.2392  0.1589 -0.1609
 6979POPS   PO484530  20.422  10.467   3.864 -0.0999  0.0476  0.1146
 6979POPS   GL184531  20.566  10.467   4.264 -0.0588  0.1667 -0.0630
 6979POPS   GL284532  20.886  10.509   4.212 -0.1884  0.1073  0.6832
 6979POPS   C1A84533  20.414  10.626   4.716  0.2087 -0.0885  0.0793
 6979POPS   D2A84534  20.455  10.665   5.197 -0.2698  0.0890 -0.2613
 6979POPS   C3A84535  20.459  10.578   5.630  0.1119 -0.0138  0.1612
 6979POPS   C4A84536  20.243  10.823   5.936  0.2296  0.1299 -0.1569
 6979POPS   C1B84537  21.009  10.340   4.645 -0.0062  0.2618  0.1491
 6979POPS   C2B84538  21.108  10.093   4.996  0.0681  0.5516 -0.2551
 6979POPS   C3B84539  21.048   9.876   5.391  0.0612 -0.0685  0.0949
 6979POPS   C4B84540  20.897   9.554   5.686  0.0732 -0.2005  0.0123
 6980POPS   CNO84541   3.077  24.512   3.580  0.0560 -0.2483  0.0999
 6980POPS   PO484542   3.046  24.220   3.850  0.2479  0.3727 -0.2348
 6980POPS   GL184543   2.953  24.381   4.245  0.0311 -0.2062  0.0299
 6980POPS   GL284544   2.849  24.142   4.377  0.0392  0.1367  0.0679
 6980POPS   C1A84545   3.143  24.708   4.505 -0.1057  0.0099 -0.0034
 6980POPS   D2A84546   3.146  24.822   4.936 -0.0965 -0.0728  0.0492
 6980POPS   C3A84547   2.802  25.057   5.128  0.0590 -0.3288 -0.2221
 6980POPS   C4A84548   2.572  25.343   5.435  0.2051 -0.0906  0.1101
 6980POPS   C1B84549   2.831  24.440   4.712  0.0646  0.1300 -0.0902
 6980POPS   C2B84550   2.822  24.543   5.159 -0.0040  0.0063  0.0630
 6980POPS   C3B84551   3.099  24.489   5.559  0.1790  0.0909  0.0677
 6980POPS   C4B84552   3.387  24.132   5.563  0.0379 -0.0300 -0.1549
 6981POPS   CNO84553  22.043   5.237   3.546 -0.1613 -0.0377 -0.1747
 6981POPS   PO484554  21.863   5.582   3.602 -0.0130  0.2189  0.0420
 6981POPS   GL184555  22.047   5.521   4.033  0.0328 -0.1806  0.2102
 6981POPS   GL284556  22.037   5.728   4.251 -0.0778 -0.0113  0.4743
 6981POPS   C1A84557  22.146   5.163   4.317 -0.0137  0.0797  0.0899
 6981POPS   D2A84558  22.473   4.923   4.570 -0.3646 -0.0459  0.1250
 6981POPS   C3A84559  22.407   4.973   5.023  0.1328 -0.0212  0.1954
 6981POPS   C4A84560  22.243   5.013   5.475 -0.0059  0.1396  0.1000
 6981POPS   C1B84561  21.895   5.845   4.655  0.3222  0.2585 -0.2497
 6981POPS   C2B84562  21.991   5.994   5.064 -0.1270  0.2697  0.2364
 6981POPS   C3B84563  22.107   6.065   5.470 -0.3841 -0.0644 -0.1138
 6981POPS   C4B84564  22.193   6.462   5.648 -0.1946  0.1460  0.1217
 6982POPS   CNO84565   3.815  29.564   3.374 -0.2188  0.3506 -0.0683
 6982POPS   PO484566   3.776  29.192   3.482  0.0806 -0.0041  0.1388
 6982POPS   GL184567   3.864  29.318   3.802  0.2792 -0.1341  0.0452
 6982POPS   GL284568   3.678  29.517   3.885  0.1639 -0.0685  0.1456
 6982POPS   C1A84569   3.905  29.047   4.182 -0.1049  0.0239 -0.0568
 6982POPS   D2A84570   3.968  29.166   4.621  0.0163 -0.0783 -0.1580
 6982POPS   C3A84571   3.911  29.109   5.117  0.0692 -0.1171 -0.0083
 6982POPS   C4A84572   3.846  29.073   5.556  0.0666  0.1283  0.0129
 6982POPS   C1B84573   3.832  29.540   4.295  0.0784 -0.1287  0.1925
 6982POPS   C2B84574   3.820  29.609   4.770  0.2273 -0.1963  0.1597
 6982POPS   C3B84575   3.706  29.562   5.255  0.0243  0.3530 -0.2619
 6982POPS   C4B84576   3.926  29.518   5.702 -0.1151  0.1694 -0.1077
 6983POPS   CNO84577  26.182   7.650   3.085  0.2142  0.1265  0.1312
 6983POPS   PO484578  26.379   7.466   3.365  0.0051  0.1616  0.2948
 6983POPS   GL184579  26.278   7.421   3.751 -0.2079 -0.0060  0.0566
 6983POPS   GL284580  26.321   7.602   3.956 -0.2687  0.0328 -0.1240
 6983POPS   C1A84581  26.030   7.106   3.964  0.0375  0.4210  0.2687
 6983POPS   D2A84582  25.602   6.926   4.146  0.0098 -0.0766  0.2469
 6983POPS   C3A84583  25.675   6.662   4.480  0.1057  0.2884  0.0490
 6983POPS   C4A84584  25.878   6.597   4.858  0.0042 -0.1346  0.0586
 6983POPS   C1B84585  26.335   7.457   4.409  0.0663  0.2806 -0.0350
 6983POPS   C2B84586  26.125   7.407   4.818  0.0089  0.2564 -0.1187
 6983POPS   C3B84587  26.189   7.144   5.174  0.2223  0.2523 -0.0251
 6983POPS   C4B84588  26.364   7.092   5.605 -0.0414 -0.1909 -0.2403
 6984POPS   CNO84589  25.919  15.135   3.570 -0.4080 -0.2660 -0.0537
 6984POPS   PO484590  26.216  15.346   3.622  0.2256  0.3507  0.2810
 6984POPS   GL184591  26.433  15.249   3.986 -0.6069  0.2883 -0.0943
 6984POPS   GL284592  26.436  14.961   4.032  0.0269  0.4013 -0.1890
 6984POPS   C1A84593  26.659  15.234   4.407  0.2637 -0.0311 -0.3049
 6984POPS   D2A84594  26.829  15.459   4.791 -0.0812  0.1062 -0.2143
 6984POPS   C3A84595  27.144  15.432   5.115  0.0593 -0.0687  0.2931
 6984POPS   C4A84596  27.463  15.286   5.385  0.0636 -0.2192  0.1520
 6984POPS   C1B84597  26.571  14.750   4.452  0.1085 -0.1448 -0.0533
 6984POPS   C2B84598  26.594  14.857   4.866 -0.3390  0.1364 -0.0396
 6984POPS   C3B84599  26.636  14.922   5.302 -0.1016  0.3566 -0.2014
 6984POPS   C4B84600  26.739  14.818   5.752 -0.0931 -0.3699 -0.0779
 6985POPS   CNO84601  29.860  18.180   3.582  0.1430  0.0234  0.1028
 6985POPS   PO484602  30.139  18.407   3.530 -0.0867 -0.0275 -0.3482
 6985POPS   GL184603  30.234  18.271   3.973 -0.0675 -0.2428  0.0753
 6985POPS   GL284604  30.060  18.123   4.121 -0.3442  0.0034  0.1403
 6985POPS   C1A84605  30.400  18.430   4.343  0.0205 -0.1061 -0.1745
 6985POPS   D2A84606  30.730  18.594   4.548  0.0994  0.1108 -0.1378
 6985POPS   C3A84607  30.728  18.856   4.884 -0.0147  0.3381  0.0758
 6985POPS   C4A84608  30.522  18.965   5.292 -0.4093 -0.0423  0.0419
 6985POPS   C1B84609  30.136  18.018   4.546 -0.0729  0.1788  0.1150
 6985POPS   C2B84610  30.056  17.970   5.025  0.1976  0.0240 -0.2718
 6985POPS   C3B84611  29.768  17.710   5.254  0.0148  0.0303 -0.1984
 6985POPS   C4B84612  29.462  17.304   5.243  0.1987 -0.3097 -0.0162
 6986POPS   CNO84613  13.548  13.511   3.036 -0.4600 -0.0653 -0.1287
 6986POPS   PO484614  13.504  13.613   3.396  0.1409  0.0027  0.3523
 6986POPS   GL184615  13.631  13.737   3.718 -0.1423 -0.3086 -0.1611
 6986POPS   GL284616  13.773  13.924   3.731 -0.0078  0.2842 -0.1129
 6986POPS   C1A84617  13.463  13.563   4.150 -0.1333  0.0091  0.1978
 6986POPS   D2A84618  13.247  13.665   4.595 -0.2461  0.2125 -0.0224
 6986POPS   C3A84619  13.102  13.631   5.009  0.3704  0.1197  0.2020
 6986POPS   C4A84620  13.268  13.831   5.428  0.0058 -0.2344 -0.1214
 6986POPS   C1B84621  13.580  14.182   4.057 -0.1982 -0.0493 -0.0157
 6986POPS   C2B84622  13.181  14.087   4.292  0.1070  0.1043 -0.4301
 6986POPS   C3B84623  13.011  14.073   4.727 -0.0800 -0.3571  0.1989
 6986POPS   C4B84624  12.997  14.128   5.184 -0.3810 -0.2662 -0.0733
 6987POPS   CNO84625  28.521  11.295   3.481  0.1437  0.0596 -0.0274
 6987POPS   PO484626  28.185  11.322   3.647 -0.3435 -0.2229  0.1271
 6987POPS   GL184627  27.822  11.087   3.804 -0.0006  0.1583 -0.4706
 6987POPS   GL284628  28.042  11.057   4.029  0.0290  0.0424  0.1772
 6987POPS   C1A84629  27.518  11.211   4.157  0.1118 -0.0864  0.1702
 6987POPS   D2A84630  27.169  11.186   4.476 -0.0703  0.2439  0.0112
 6987POPS   C3A84631  27.220  11.376   4.880 -0.1745  0.0154  0.1080
 6987POPS   C4A84632  27.536  11.714   5.035 -0.2516 -0.1577 -0.0898
 6987POPS   C1B84633  28.438  10.891   4.107  0.0199  0.0269 -0.0778
 6987POPS   C2B84634  28.637  10.926   4.564 -0.1431 -0.0015  0.3728
 6987POPS   C3B84635  28.858  11.119   4.951  0.0799 -0.2710  0.0313
 6987POPS   C4B84636  29.077  11.180   5.355 -0.1132 -0.1407  0.1903
 6988POPS   CNO84637   1.776   5.948   3.076  0.0229 -0.0335 -0.2405
 6988POPS   PO484638   1.604   5.799   3.405 -0.2224  0.0816  0.0781
 6988POPS   GL184639   1.521   5.956   3.806  0.2611  0.1134  0.1434
 6988POPS   GL284640   1.667   6.173   3.910  0.2538 -0.0340  0.0922
 6988POPS   C1A84641   1.401   5.815   4.249 -0.0504  0.0550  0.0220
 6988POPS   D2A84642   1.346   6.059   4.611  0.1745  0.2279 -0.0568
 6988POPS   C3A84643   1.121   6.132   4.980  0.0914 -0.1399 -0.3269
 6988POPS   C4A84644   1.236   6.336   5.395  0.0021 -0.0731  0.0801
 6988POPS   C1B84645   1.657   6.336   4.317  0.2346 -0.1872  0.1358
 6988POPS   C2B84646   1.746   6.567   4.664  0.0409  0.3345  0.2304
 6988POPS   C3B84647   1.778   6.679   5.095  0.2183 -0.1925 -0.2341
 6988POPS   C4B84648   1.575   6.620   5.497 -0.1267  0.2917  0.2856
 6989POPS   CNO84649  11.311  16.875   3.234  0.1679 -0.0828  0.0185
 6989POPS   PO484650  11.521  17.054   3.505  0.4576  0.2848 -0.2781
 6989POPS   GL184651  11.459  17.148   3.832  0.1048 -0.0962  0.2105
 6989POPS   GL284652  11.369  16.995   4.071  0.2325 -0.2395 -0.0485
 6989POPS   C1A84653  11.579  17.461   4.140 -0.1390 -0.0943 -0.1334
 6989POPS   D2A84654  11.705  17.540   4.613 -0.1847  0.0181  0.0196
 6989POPS   C3A84655  11.617  17.233   4.963 -0.0796  0.1158 -0.0004
 6989POPS   C4A84656  11.231  17.086   5.168  0.2547  0.1475 -0.0679
 6989POPS   C1B84657  11.251  17.262   4.453 -0.1157 -0.1766 -0.1157
 6989POPS   C2B84658  11.166  17.485   4.846  0.2772 -0.0121  0.1960
 6989POPS   C3B84659  11.118  17.942   4.992 -0.1926 -0.1869  0.0580
 6989POPS   C4B84660  11.336  18.318   5.169 -0.3548 -0.1404  0.1998
 6990POPS   CNO84661  13.686   3.072   3.239  0.1422  0.0333  0.1455
 6990POPS   PO484662  13.318   3.167   3.356 -0.3009  0.0212  0.2060
 6990POPS   GL184663  13.200   3.343   3.699  0.0336  0.2613  0.2276
 6990POPS   GL284664  13.333   3.260   3.957 -0.0299  0.1136  0.0623
 6990POPS   C1A84665  12.877   3.547   3.990  0.0385  0.1329 -0.1399
 6990POPS   D2A84666  12.499   3.867   3.975 -0.3079  0.0364  0.0972
 6990POPS   C3A84667  12.531   4.350   4.121 -0.2736 -0.0807 -0.1715
 6990POPS   C4A84668  12.485   4.802   4.339  0.0752 -0.1300  0.0480
 6990POPS   C1B84669  13.324   3.396   4.392 -0.0572  0.0240  0.6220
 6990POPS   C2B84670  13.372   3.665   4.700 -0.2533 -0.0174  0.1873
 6990POPS   C3B84671  13.581   4.063   4.723  0.2068 -0.2189 -0.2434
 6990POPS   C4B84672  13.796   4.432   4.867 -0.1453 -0.0937 -0.1612
 6991POPS   CNO84673  28.297  21.159   3.570 -0.1594 -0.0650  0.3754
 6991POPS   PO484674  28.586  20.911   3.629  0.2911 -0.1902 -0.5597
 6991POPS   GL184675  28.459  20.888   4.001 -0.2429 -0.1587  0.2338
 6991POPS   GL284676  28.650  20.942   4.172 -0.3517  0.1333  0.0082
 6991POPS   C1A84677  28.393  20.567   4.300  0.1960 -0.1978  0.3633
 6991POPS   D2A84678  28.464  20.296   4.674 -0.2044  0.3006  0.0497
 6991POPS   C3A84679  28.409  20.067   5.073 -0.1782 -0.0640  0.2675
 6991POPS   C4A84680  28.526  19.847   5.472 -0.2910 -0.0049  0.2159
 6991POPS   C1B84681  28.782  21.086   4.624 -0.5097 -0.0690 -0.1913
 6991POPS   C2B84682  28.976  21.191   5.001  0.1359 -0.0782  0.1611
 6991POPS   C3B84683  28.843  21.352   5.430 -0.0049  0.2302 -0.2489
 6991POPS   C4B84684  28.842  21.696   5.771 -0.0171 -0.0372 -0.1266
 6992POPS   CNO84685  10.758   6.573   3.533 -0.0537 -0.0088 -0.1584
 6992POPS   PO484686  10.663   6.810   3.767 -0.0793  0.0618 -0.0240
 6992POPS   GL184687  10.489   6.763   4.117  0.1293  0.0440  0.0815
 6992POPS   GL284688  10.323   6.581   4.265 -0.1059  0.1017  0.2337
 6992POPS   C1A84689  10.463   7.131   4.470  0.1652  0.0509  0.1302
 6992POPS   D2A84690  10.587   7.283   4.927 -0.0766 -0.0586  0.3240
 6992POPS   C3A84691  10.704   7.662   5.159 -0.0527 -0.0483 -0.2005
 6992POPS   C4A84692  11.004   7.842   5.430  0.1014 -0.0303 -0.1295
 6992POPS   C1B84693  10.246   6.607   4.747  0.1800 -0.0326 -0.1489
 6992POPS   C2B84694   9.894   6.602   5.048  0.0494 -0.1365 -0.1101
 6992POPS   C3B84695   9.624   6.571   5.457  0.1536 -0.0463 -0.1576
 6992POPS   C4B84696   9.251   6.280   5.526 -0.0086 -0.1341  0.0875
 6993POPS   CNO84697  13.694  20.118   2.948 -0.1672 -0.0355  0.1347
 6993POPS   PO484698  13.707  20.104   3.340 -0.3417  0.0619 -0.1488
 6993POPS   GL184699  13.604  20.159   3.759 -0.1837  0.0648  0.1876
 6993POPS   GL284700  13.896  20.095   3.836 -0.1150 -0.0903  0.2089
 6993POPS   C1A84701  13.357  19.947   4.125  0.0570 -0.0999  0.3253
 6993POPS   D2A84702  12.970  19.745   4.273 -0.1328 -0.1733  0.0470
 6993POPS   C3A84703  12.812  19.646   4.660 -0.1370 -0.1297  0.1274
 6993POPS   C4A84704  12.555  19.618   5.041  0.0148 -0.1087  0.2173
 6993POPS   C1B84705  13.862  19.915   4.232  0.1990 -0.2099  0.1732
 6993POPS   C2B84706  13.753  19.611   4.578  0.1562 -0.1525 -0.0714
 6993POPS   C3B84707  13.582  19.635   4.992  0.0200 -0.1090 -0.2759
 6993POPS   C4B84708  13.429  19.705   5.395  0.1495 -0.1698  0.2112
 6994POPS   CNO84709   4.078  22.918   3.679 -0.3517  0.1963 -0.0051
 6994POPS   PO484710   4.319  22.845   3.972  0.0898 -0.1477  0.1810
 6994POPS   GL184711   4.474  22.697   4.251  0.0587 -0.4066  0.3065
 6994POPS   GL284712   4.694  22.524   4.173 -0.1588  0.1438  0.0144
 6994POPS   C1A84713   4.300  22.504   4.607 -0.1319  0.0470 -0.0152
 6994POPS   D2A84714   4.101  22.410   4.984 -0.1138 -0.1320 -0.1743
 6994POPS   C3A84715   4.097  22.622   5.428 -0.2996 -0.2182  0.0751
 6994POPS   C4A84716   3.953  22.796   5.836 -0.1683 -0.0461  0.1206
 6994POPS   C1B84717   4.811  22.590   4.567  0.1073 -0.0728 -0.3024
 6994POPS   C2B84718   4.797  22.611   5.016 -0.2313 -0.0437 -0.2463
 6994POPS   C3B84719   4.696  22.616   5.451  0.0561 -0.1512  0.0235
 6994POPS   C4B84720   4.488  22.744   5.809 -0.1399 -0.1983  0.1487
 6995POPS   CNO84721  21.733   2.527   3.141  0.2636  0.1481 -0.0369
 6995POPS   PO484722  21.896   2.706   3.388  0.2587  0.2093 -0.0932
 6995POPS   GL184723  21.815   2.702   3.799 -0.0824 -0.1565  0.1288
 6995POPS   GL284724  21.607   2.947   3.868 -0.0750 -0.1430 -0.0425
 6995POPS   C1A84725  21.541   2.435   4.067 -0.1808 -0.0542  0.1967
 6995POPS   D2A84726  21.370   2.410   4.498 -0.1794  0.3732  0.1198
 6995POPS   C3A84727  21.580   2.241   4.850  0.3614 -0.2626  0.2943
 6995POPS   C4A84728  21.524   2.250   5.295 -0.0211 -0.1948  0.1538
 6995POPS   C1B84729  21.720   2.846   4.301  0.3804  0.1269 -0.1918
 6995POPS   C2B84730  21.583   2.760   4.731 -0.0144 -0.1510  0.0242
 6995POPS   C3B84731  21.639   2.806   5.183  0.1348  0.1523  0.0991
 6995POPS   C4B84732  21.359   2.830   5.508  0.3596  0.1410  0.0821
 6996POPS   CNO84733  10.166  20.343   3.427  0.1824 -0.0536  0.1566
 6996POPS   PO484734   9.956  20.176   3.678  0.1618 -0.2604  0.2870
 6996POPS   GL184735   9.914  20.486   3.948 -0.2423  0.2970 -0.0632
 6996POPS   GL284736   9.737  20.315   4.170  0.0507 -0.2366  0.2796
 6996POPS   C1A84737  10.139  20.546   4.356  0.0315 -0.0140 -0.0232
 6996POPS   D2A84738  10.245  20.435   4.819 -0.0232  0.0465  0.0163
 6996POPS   C3A84739  10.299  20.356   5.268  0.1312  0.0409 -0.1015
 6996POPS   C4A84740  10.175  20.096   5.597  0.0914  0.2277 -0.1432
 6996POPS   C1B84741   9.802  20.280   4.599 -0.0658  0.1785  0.0423
 6996POPS   C2B84742   9.826  20.520   5.004  0.0771 -0.1798  0.0849
 6996POPS   C3B84743   9.802  20.533   5.454  0.0385 -0.1867  0.3251
 6996POPS   C4B84744   9.868  20.377   5.853 -0.0278 -0.0349  0.1334
 6997POPS   CNO84745  10.011  14.795   3.789  0.2414  0.0742 -0.4116
 6997POPS   PO484746  10.070  14.453   3.760  0.0244 -0.1818 -0.1697
 6997POPS   GL184747  10.104  14.572   4.140  0.0542  0.0425 -0.0063
 6997POPS   GL284748   9.830  14.724   4.218 -0.0759 -0.0944 -0.0446
 6997POPS   C1A84749  10.353  14.853   4.387  0.1740  0.0031  0.0064
 6997POPS   D2A84750  10.650  15.003   4.630 -0.1386  0.1204 -0.0753
 6997POPS   C3A84751  11.063  15.240   4.599  0.0511 -0.1607 -0.1317
 6997POPS   C4A84752  11.497  15.339   4.597  0.0956  0.0546 -0.0676
 6997POPS   C1B84753   9.723  14.669   4.665  0.1182  0.2358  0.0674
 6997POPS   C2B84754   9.699  14.872   5.094  0.2241 -0.1530  0.0388
 6997POPS   C3B84755  10.094  15.058   5.330 -0.1493 -0.2606 -0.2317
 6997POPS   C4B84756  10.403  15.400   5.461  0.1576  0.1400 -0.0204
 6998POPS   CNO84757  16.848   7.414   3.014 -0.5322  0.0222  0.2328
 6998POPS   PO484758  17.089   7.408   3.331  0.0878  0.0259 -0.0325
 6998POPS   GL184759  17.234   7.114   3.461  0.1184  0.3087  0.1533
 6998POPS   GL284760  17.260   7.192   3.777 -0.0030  0.2281  0.0758
 6998POPS   C1A84761  17.420   6.717   3.596 -0.3209  0.2410 -0.0756
 6998POPS   D2A84762  17.531   6.297   3.484 -0.0317  0.0422 -0.3385
 6998POPS   C3A84763  17.358   5.875   3.597  0.1785 -0.1166 -0.1975
 6998POPS   C4A84764  17.322   5.472   3.829  0.0666 -0.0666  0.1326
 6998POPS   C1B84765  17.607   6.956   4.042  0.1781 -0.3423  0.3580
 6998POPS   C2B84766  17.759   6.709   4.388  0.0679 -0.1927  0.1120
 6998POPS   C3B84767  17.926   6.496   4.749  0.1288 -0.2766 -0.2683
 6998POPS   C4B84768  17.826   6.223   5.109 -0.0098 -0.4203 -0.2242
 6999POPS   CNO84769  17.808   8.011   3.477 -0.1063  0.1332  0.3969
 6999POPS   PO484770  17.926   8.045   3.842  0.1990  0.0269  0.0232
 6999POPS   GL184771  17.953   8.083   4.233 -0.2483  0.1303 -0.0178
 6999POPS   GL284772  17.775   7.864   4.319  0.1417  0.4727  0.1537
 6999POPS   C1A84773  17.743   8.239   4.668 -0.0835  0.1866  0.1424
 6999POPS   D2A84774  17.797   8.145   5.134  0.2149  0.0996  0.1044
 6999POPS   C3A84775  17.461   8.288   5.429 -0.0366 -0.0389  0.1317
 6999POPS   C4A84776  17.247   8.713   5.476  0.0560 -0.0929 -0.3545
 6999POPS   C1B84777  17.651   7.651   4.758 -0.2149 -0.1820 -0.1041
 6999POPS   C2B84778  17.507   7.388   5.114 -0.3975  0.2190  0.1282
 6999POPS   C3B84779  17.242   7.290   5.458  0.1411 -0.2524  0.1094
 6999POPS   C4B84780  16.982   7.167   5.790  0.1662  0.3016  0.2037
 7000POPS   CNO84781  10.403  22.825   3.768 -0.0885  0.2405 -0.1335
 7000POPS   PO484782  10.216  23.067   3.975 -0.1247  0.1319  0.2915
 7000POPS   GL184783  10.047  23.016   4.388 -0.0813  0.1345 -0.0562
 7000POPS   GL284784   9.879  22.777   4.371 -0.0150 -0.1573 -0.0085
 7000POPS   C1A84785   9.761  23.041   4.776 -0.0441 -0.0465 -0.2795
 7000POPS   D2A84786   9.393  23.276   4.928 -0.1111  0.1708  0.3249
 7000POPS   C3A84787   9.376  23.146   5.442 -0.1392 -0.1088  0.0750
 7000POPS   C4A84788   9.186  22.763   5.684 -0.1991 -0.0134  0.2033
 7000POPS   C1B84789   9.719  22.541   4.734  0.0724  0.3244 -0.0449
 7000POPS   C2B84790   9.745  22.234   5.077  0.2339  0.2129 -0.1423
 7000POPS   C3B84791   9.720  22.388   5.498  0.2727 -0.0751 -0.0829
 7000POPS   C4B84792   9.698  22.831   5.623  0.0436  0.2114 -0.0875
 7001POPS   CNO84793  16.097  23.621   3.193  0.2090  0.0820 -0.1963
 7001POPS   PO484794  16.306  23.655   3.488  0.0868 -0.0233 -0.0405
 7001POPS   GL184795  16.018  23.530   3.758 -0.1467 -0.2940  0.1823
 7001POPS   GL284796  16.128  23.588   3.985  0.1887 -0.0240 -0.1342
 7001POPS   C1A84797  15.583  23.733   3.904 -0.0287 -0.2239 -0.1821
 7001POPS   D2A84798  15.384  23.804   4.343 -0.0786 -0.1976  0.2057
 7001POPS   C3A84799  15.433  23.766   4.742  0.0970 -0.0936  0.4252
 7001POPS   C4A84800  15.362  24.011   5.043  0.2484 -0.0570 -0.5266
 7001POPS   C1B84801  16.006  23.653   4.457 -0.2657 -0.0997  0.1043
 7001POPS   C2B84802  15.905  23.836   4.854 -0.3970  0.1883 -0.1154
 7001POPS   C3B84803  15.832  23.717   5.304 -0.0931 -0.2252 -0.3346
 7001POPS   C4B84804  16.102  23.515   5.641  0.1366 -0.1438 -0.1761
 7002POPS   CNO84805   4.278   9.683   3.614  0.0779 -0.0473  0.1489
 7002POPS   PO484806   4.249   9.378   3.805 -0.1554  0.1572  0.1127
 7002POPS   GL184807   4.346   9.670   4.094 -0.1755 -0.1901  0.3086
 7002POPS   GL284808   4.209   9.495   4.300  0.0892  0.3027  0.0676
 7002POPS   C1A84809   4.351   9.982   4.430 -0.0864  0.0304  0.0036
 7002POPS   D2A84810   4.406   9.957   4.888 -0.1218 -0.1684 -0.0785
 7002POPS   C3A84811   4.179   9.999   5.305 -0.3003 -0.0255  0.0166
 7002POPS   C4A84812   3.858   9.939   5.626 -0.2622 -0.3077 -0.1388
 7002POPS   C1B84813   4.006   9.089   4.350 -0.3849 -0.2650 -0.1792
 7002POPS   C2B84814   3.888   8.831   4.702  0.1931  0.0774 -0.0076
 7002POPS   C3B84815   3.888   8.923   5.185 -0.1885  0.0102  0.0795
 7002POPS   C4B84816   3.802   9.334   5.405  0.0542  0.1144 -0.0763
 7003POPS   CNO84817  22.603  17.741   3.597 -0.1170 -0.1316 -0.0727
 7003POPS   PO484818  22.453  17.670   3.227  0.1707 -0.3742  0.0168
 7003POPS   GL184819  22.132  17.606   3.412  0.2736 -0.1036 -0.3029
 7003POPS   GL284820  21.958  17.524   3.251 -0.1461  0.2623 -0.1857
 7003POPS   C1A84821  21.955  17.722   3.811 -0.3137  0.3321 -0.0410
 7003POPS   D2A84822  21.945  17.648   4.339 -0.0765 -0.0088  0.2570
 7003POPS   C3A84823  21.723  17.927   4.662 -0.2509 -0.0274 -0.0930
 7003POPS   C4A84824  21.382  17.876   4.926  0.2181  0.0084 -0.1075
 7003POPS   C1B84825  21.636  17.612   2.887  0.0389 -0.1306 -0.1361
 7003POPS   C2B84826  21.194  17.698   2.838  0.0099 -0.3546  0.2792
 7003POPS   C3B84827  20.871  17.419   2.583 -0.1306 -0.0181  0.0440
 7003POPS   C4B84828  20.588  17.260   2.279  0.2944  0.0470 -0.2027
 7004POPS   CNO84829   8.377  28.914   3.219 -0.1153 -0.0442 -0.0069
 7004POPS   PO484830   8.500  28.864   3.584 -0.0797  0.0734 -0.0367
 7004POPS   GL184831   8.646  28.933   3.890  0.2891 -0.1173  0.2497
 7004POPS   GL284832   8.705  29.178   3.977 -0.0165  0.4297  0.0104
 7004POPS   C1A84833   8.604  28.674   4.294  0.1388  0.2299  0.1106
 7004POPS   D2A84834   8.405  28.308   4.560 -0.1290 -0.4728  0.0232
 7004POPS   C3A84835   7.939  28.287   4.460 -0.0521 -0.4216  0.2376
 7004POPS   C4A84836   7.574  28.118   4.218 -0.1482 -0.0672 -0.1673
 7004POPS   C1B84837   8.394  29.128   4.326 -0.0560  0.2276  0.2339
 7004POPS   C2B84838   8.286  29.188   4.747  0.1717  0.0145  0.2327
 7004POPS   C3B84839   8.339  29.043   5.204 -0.0307 -0.0053  0.0673
 7004POPS   C4B84840   8.094  29.107   5.617 -0.2123  0.1457  0.1280
 7005POPS   CNO84841  19.053   6.566   4.246  0.0360  0.3100  0.0288
 7005POPS   PO484842  18.897   6.660   3.909 -0.0136 -0.0060  0.0671
 7005POPS   GL184843  18.569   6.473   3.873 -0.0508  0.2822 -0.1898
 7005POPS   GL284844  18.440   6.505   3.591  0.2321 -0.3254  0.0195
 7005POPS   C1A84845  18.381   6.056   3.878 -0.2095  0.0052  0.3075
 7005POPS   D2A84846  18.268   5.757   4.072  0.2296 -0.2686 -0.0079
 7005POPS   C3A84847  17.947   5.970   4.343 -0.2976 -0.2344  0.2017
 7005POPS   C4A84848  17.798   5.872   4.721  0.2958  0.0370  0.1628
 7005POPS   C1B84849  18.390   6.122   3.372  0.0440 -0.0292  0.0878
 7005POPS   C2B84850  18.113   5.799   3.206 -0.3336  0.0367  0.1522
 7005POPS   C3B84851  17.684   5.936   3.116 -0.0619  0.2574 -0.0814
 7005POPS   C4B84852  17.233   6.032   3.152  0.1739  0.1644 -0.1639
 7006POPS   CNO84853  31.166  15.397   3.145  0.0137 -0.2002  0.2851
 7006POPS   PO484854  31.487  15.312   3.389  0.1107  0.0399  0.0223
 7006POPS   GL184855  31.591  15.036   3.696  0.1692 -0.2684 -0.3350
 7006POPS   GL284856  31.369  14.952   3.902  0.2109 -0.1146 -0.0383
 7006POPS   C1A84857  31.799  15.177   4.098 -0.1347 -0.1470  0.1451
 7006POPS   D2A84858  32.008  15.606   4.302 -0.2204  0.1934 -0.4005
 7006POPS   C3A84859  32.269  15.639   4.653 -0.0840 -0.1212 -0.0801
 7006POPS   C4A84860  32.458  15.914   4.969 -0.2316  0.1001  0.3009
 7006POPS   C1B84861  31.404  14.938   4.403 -0.1438  0.0878 -0.1420
 7006POPS   C2B84862  31.478  15.117   4.801  0.0919  0.2999  0.1748
 7006POPS   C3B84863  31.362  14.996   5.188 -0.0491  0.2727  0.0449
 7006POPS   C4B84864  31.606  14.808   5.589  0.2671 -0.0415  0.2238
 7007POPS   CNO84865  13.953   7.250   3.530 -0.0047  0.0613 -0.2698
 7007POPS   PO484866  14.140   6.923   3.652  0.0377  0.1544 -0.0353
 7007POPS   GL184867  14.222   6.756   4.013  0.1672 -0.0514  0.0995
 7007POPS   GL284868  14.006   6.510   3.982 -0.0066  0.0776  0.0772
 7007POPS   C1A84869  14.466   6.848   4.444 -0.2006 -0.2052  0.0366
 7007POPS   D2A84870  14.754   6.655   4.771  0.1891  0.1377  0.0704
 7007POPS   C3A84871  14.758   6.309   5.042  0.0681 -0.2245  0.1727
 7007POPS   C4A84872  14.884   5.884   5.091 -0.1295 -0.0063 -0.1208
 7007POPS   C1B84873  13.796   6.272   4.325  0.1152 -0.0502  0.2715
 7007POPS   C2B84874  13.561   6.188   4.728 -0.0647  0.2519  0.0413
 7007POPS   C3B84875  13.655   5.885   5.103  0.1220 -0.0177 -0.0662
 7007POPS   C4B84876  13.450   5.974   5.518 -0.2347  0.1351 -0.0652
 7008POPS   CNO84877  26.542  16.094   3.377  0.0802  0.2740  0.5271
 7008POPS   PO484878  26.920  16.061   3.471  0.0010  0.1006  0.1247
 7008POPS   GL184879  26.853  15.944   3.939 -0.0328 -0.0698  0.1103
 7008POPS   GL284880  27.073  15.964   4.096  0.0822 -0.0195 -0.1975
 7008POPS   C1A84881  26.685  15.797   4.351  0.0003 -0.0195  0.0544
 7008POPS   D2A84882  26.320  15.603   4.559 -0.0268 -0.0180 -0.0861
 7008POPS   C3A84883  26.127  15.901   4.866 -0.1931 -0.2740 -0.1683
 7008POPS   C4A84884  25.910  16.327   4.827 -0.0730 -0.0498 -0.1929
 7008POPS   C1B84885  27.191  15.861   4.544  0.0286 -0.1736 -0.2672
 7008POPS   C2B84886  27.234  15.928   5.022 -0.0326 -0.2890 -0.0654
 7008POPS   C3B84887  27.168  16.269   5.362  0.0046  0.0379 -0.2395
 7008POPS   C4B84888  27.377  16.443   5.706  0.1007 -0.1990  0.0678
 7009SAP2    C184889  16.458  21.234   3.368  0.0462 -0.2432 -0.2944
 7009SAP2    C284890  16.682  21.212   3.206  0.2383  0.2426 -0.1115
 7009SAP2    C384891  16.415  21.406   3.143  0.0307 -0.0472 -0.1435
 7009SAP2    C484892  16.518  21.284   3.239 -0.0007 -0.0007  0.6972
 7009SAP2   PO484893  16.572  21.320   3.646 -0.0008 -0.2164 -0.1356
 7009SAP2    P484894  16.426  21.502   2.864  0.1613 -0.2393 -0.0154
 7009SAP2    P584895  16.810  21.292   2.894  0.1907  0.0086 -0.1364
 7009SAP2   GL184896  16.302  21.530   3.748 -0.1064 -0.0771  0.2358
 7009SAP2   GL284897  16.269  21.686   3.514 -0.1327 -0.1519 -0.3554
 7009SAP2   D1A84898  16.585  21.554   4.119  0.2288 -0.0267 -0.3267
 7009SAP2   D2A84899  16.575  21.998   3.828 -0.1142  0.2602  0.1278
 7009SAP2   D3A84900  16.386  22.363   3.922 -0.2065 -0.1111 -0.1542
 7009SAP2   D4A84901  16.498  22.228   4.360  0.0409  0.0351  0.0851
 7009SAP2   C5A84902  16.199  21.899   4.363  0.1926 -0.1949  0.3323
 7009SAP2   C1B84903  15.935  21.705   3.871 -0.1588 -0.3028 -0.2150
 7009SAP2   C2B84904  15.723  22.074   4.027  0.1612  0.1140  0.1993
 7009SAP2   C3B84905  15.787  22.344   4.449 -0.0574  0.0780  0.0801
 7009SAP2   C4B84906  15.776  22.175   4.837 -0.1144 -0.2917  0.0380
 7010SAP2    C184907   1.023  29.248   3.366  0.0320 -0.1708 -0.0014
 7010SAP2    C284908   1.043  29.324   3.100  0.0557  0.0374  0.0580
 7010SAP2    C384909   1.283  29.169   3.276  0.0934  0.0277 -0.0016
 7010SAP2    C484910   1.116  29.247   3.248 -0.0007 -0.0007  0.6972
 7010SAP2   PO484911   0.705  29.180   3.460  0.0411  0.1251 -0.1099
 7010SAP2    P484912   1.517  29.081   3.058  0.1070 -0.1246 -0.0790
 7010SAP2    P584913   1.209  29.369   2.831 -0.0675  0.0849  0.1698
 7010SAP2   GL184914   0.771  28.948   3.731 -0.1327 -0.0158 -0.0595
 7010SAP2   GL284915   0.936  28.769   3.586 -0.1531  0.1949 -0.0633
 7010SAP2   D1A84916   0.814  28.932   4.165 -0.1640  0.0762  0.0872
 7010SAP2   D2A84917   0.877  29.340   4.014  0.0037 -0.0901 -0.0180
 7010SAP2   D3A84918   1.154  29.288   4.317  0.3592 -0.1182 -0.3228
 7010SAP2   D4A84919   1.018  29.726   4.405  0.2044  0.2804 -0.1559
 7010SAP2   C5A84920   0.902  29.478   4.826 -0.1426  0.0097  0.0550
 7010SAP2   C1B84921   1.249  28.637   3.906 -0.1266 -0.0818  0.2922
 7010SAP2   C2B84922   1.376  28.815   4.315 -0.1431  0.0418  0.5003
 7010SAP2   C3B84923   1.688  29.115   4.471 -0.0881  0.1659  0.1492
 7010SAP2   C4B84924   1.809  29.140   4.928 -0.1103  0.1640  0.1244
 7011SAP2    C184925   4.980   8.107   3.666  0.0072  0.0185  0.2400
 7011SAP2    C284926   4.837   8.156   3.434  0.2754  0.3188  0.1312
 7011SAP2    C384927   5.097   7.945   3.461  0.0910  0.1000  0.2225
 7011SAP2    C484928   4.971   8.070   3.520 -0.0007 -0.0007  0.6972
 7011SAP2   PO484929   4.763   8.139   3.909 -0.1538  0.1040  0.1303
 7011SAP2    P484930   5.109   7.882   3.140 -0.2177  0.0809  0.0211
 7011SAP2    P584931   4.899   8.339   3.167 -0.1769  0.0694 -0.1308
 7011SAP2   GL184932   4.979   8.033   4.156  0.3263 -0.2730 -0.2781
 7011SAP2   GL284933   5.175   8.163   4.289  0.1182 -0.0998  0.2483
 7011SAP2   D1A84934   4.723   8.010   4.563  0.0616 -0.1043 -0.0048
 7011SAP2   D2A84935   4.833   8.195   4.948  0.0569 -0.1969  0.1026
 7011SAP2   D3A84936   4.524   8.270   5.211  0.1558  0.3459  0.1210
 7011SAP2   D4A84937   4.832   8.033   5.444 -0.0101 -0.3117  0.3198
 7011SAP2   C5A84938   4.625   8.272   5.783 -0.1007 -0.3383  0.1672
 7011SAP2   C1B84939   5.222   7.802   4.578 -0.0958  0.3880 -0.0369
 7011SAP2   C2B84940   5.016   7.665   4.977  0.0489 -0.0927 -0.0401
 7011SAP2   C3B84941   4.946   7.479   5.408 -0.1742 -0.3280  0.0606
 7011SAP2   C4B84942   4.761   7.183   5.767  0.0641  0.0175  0.0750
 7012SAP2    C184943   7.972  25.306   3.369 -0.0202 -0.0510  0.1346
 7012SAP2    C284944   8.068  25.393   3.124 -0.3254 -0.0699  0.0043
 7012SAP2    C384945   7.970  25.079   3.194 -0.1702 -0.0817  0.1746
 7012SAP2    C484946   8.003  25.259   3.229 -0.0007 -0.0007  0.6972
 7012SAP2   PO484947   7.767  25.479   3.521  0.1576 -0.1469  0.3132
 7012SAP2    P484948   7.917  24.840   2.997  0.1605  0.2126  0.1964
 7012SAP2    P584949   8.119  25.231   2.789  0.2397 -0.0499  0.0519
 7012SAP2   GL184950   8.000  25.494   3.743 -0.2191 -0.0206 -0.1959
 7012SAP2   GL284951   8.032  25.171   3.796 -0.6419 -0.0115  0.0880
 7012SAP2   D1A84952   8.166  25.669   4.177  0.4054  0.2435  0.0765
 7012SAP2   D2A84953   7.891  25.538   4.570 -0.2805  0.0379 -0.1015
 7012SAP2   D3A84954   7.592  25.872   4.430 -0.2725 -0.1451  0.0094
 7012SAP2   D4A84955   7.508  25.734   4.841 -0.1096  0.1446 -0.3161
 7012SAP2   C5A84956   7.287  25.741   5.262  0.0582  0.0111 -0.3453
 7012SAP2   C1B84957   7.901  25.190   4.217  0.1695  0.0635  0.1940
 7012SAP2   C2B84958   7.688  25.062   4.608  0.0171 -0.2512  0.0844
 7012SAP2   C3B84959   7.550  25.169   5.057 -0.0536  0.0725  0.3314
 7012SAP2   C4B84960   7.539  25.296   5.509 -0.1408 -0.0418  0.0297
 7013SAP2    C184961  19.284  16.012   2.184 -0.1143 -0.1185  0.0813
 7013SAP2    C284962  19.404  15.762   2.174 -0.0583 -0.0982  0.2284
 7013SAP2    C384963  19.393  15.982   1.921 -0.1236 -0.2566  0.0920
 7013SAP2    C484964  19.361  15.919   2.093 -0.0007 -0.0007  0.6972
 7013SAP2   PO484965  19.338  16.052   2.499 -0.0259 -0.0492  0.1414
 7013SAP2    P484966  19.501  15.786   1.668  0.2493  0.0141 -0.0654
 7013SAP2    P584967  19.242  15.564   2.015 -0.3160 -0.0871  0.0144
 7013SAP2   GL184968  19.711  15.980   2.480  0.4540 -0.0009 -0.2611
 7013SAP2   GL284969  19.894  16.220   2.575  0.1833  0.0696 -0.0237
 7013SAP2   D1A84970  20.112  15.779   2.700  0.1204 -0.0124 -0.0135
 7013SAP2   D2A84971  20.457  15.901   2.979 -0.0761  0.1731  0.1440
 7013SAP2   D3A84972  20.102  16.110   3.062  0.1274 -0.1878  0.0720
 7013SAP2   D4A84973  20.253  16.525   3.191  0.0961 -0.1791  0.2386
 7013SAP2   C5A84974  20.536  16.708   3.463 -0.0238  0.0948 -0.0560
 7013SAP2   C1B84975  20.355  16.271   2.643 -0.0426 -0.3999  0.1632
 7013SAP2   C2B84976  20.793  16.382   2.627  0.2421  0.1603  0.1482
 7013SAP2   C3B84977  21.227  16.512   2.496 -0.1469  0.1879 -0.2325
 7013SAP2   C4B84978  21.573  16.297   2.609 -0.1915 -0.0729 -0.0158
 7014SAP2    C184979  22.975  31.141   2.997  0.1043 -0.2505  0.2531
 7014SAP2    C284980  23.179  31.043   2.837  0.0435  0.2668 -0.1692
 7014SAP2    C384981  22.851  30.998   2.782  0.0244  0.2904 -0.0775
 7014SAP2    C484982  23.002  31.061   2.872 -0.0007 -0.0007  0.6972
 7014SAP2   PO484983  23.032  31.451   3.151 -0.0760 -0.1623 -0.2101
 7014SAP2    P484984  22.854  30.884   2.529  0.2093  0.0156 -0.2950
 7014SAP2    P584985  23.275  30.762   2.616 -0.1161  0.1302  0.0364
 7014SAP2   GL184986  22.910  31.345   3.470  0.3733 -0.1164  0.0021
 7014SAP2   GL284987  22.934  31.107   3.425  0.1871 -0.3285  0.3172
 7014SAP2   D1A84988  22.521  31.442   3.316  0.0989  0.0497 -0.1924
 7014SAP2   D2A84989  22.099  31.254   3.457  0.1399  0.4823  0.1279
 7014SAP2   D3A84990  22.193  31.608   3.675 -0.1541 -0.2082 -0.0948
 7014SAP2   D4A84991  22.657  31.605   3.820 -0.1715 -0.1715  0.3269
 7014SAP2   C5A84992  22.424  31.571   4.225  0.2102 -0.1935 -0.4970
 7014SAP2   C1B84993  22.546  31.029   3.605 -0.4145  0.0108  0.0041
 7014SAP2   C2B84994  22.285  31.175   3.925  0.0144 -0.0674 -0.2121
 7014SAP2   C3B84995  22.242  31.123   4.370  0.2089  0.1594  0.1663
 7014SAP2   C4B84996  22.332  30.893   4.733 -0.3090 -0.1481  0.0118
 7015SAP2    C184997  26.503  12.144   3.090 -0.0912  0.2024 -0.3059
 7015SAP2    C284998  26.708  12.154   2.904  0.0769  0.1786 -0.1255
 7015SAP2    C384999  26.405  12.293   2.866  0.0668  0.0736 -0.4641
 7015SAP2    C485000  26.539  12.197   2.953 -0.0007 -0.0007  0.6972
 7015SAP2   PO485001  26.599  12.126   3.391 -0.0711  0.0331 -0.1753
 7015SAP2    P485002  26.312  12.398   2.581 -0.0483 -0.2869 -0.1120
 7015SAP2    P585003  26.678  11.962   2.694 -0.1605 -0.1973  0.0149
 7015SAP2   GL185004  26.459  12.158   3.701  0.1049  0.0147  0.0205
 7015SAP2   GL285005  26.470  12.392   3.848  0.1165 -0.0528 -0.2531
 7015SAP2   D1A85006  26.205  12.034   4.090 -0.1790 -0.1288  0.0304
 7015SAP2   D2A85007  25.891  11.732   4.016 -0.2418 -0.2765 -0.0358
 7015SAP2   D3A85008  26.169  11.431   3.872  0.3007 -0.0617 -0.1694
 7015SAP2   D4A85009  26.549  11.596   4.134  0.0612  0.0285  0.4878
 7015SAP2   C5A85010  26.724  11.992   4.097  0.1306  0.0598 -0.0589
 7015SAP2   C1B85011  26.519  12.511   4.315 -0.0707  0.0094 -0.4244
 7015SAP2   C2B85012  26.644  12.680   4.714 -0.1247 -0.1856 -0.4777
 7015SAP2   C3B85013  26.994  12.760   4.985  0.0626 -0.2075  0.0881
 7015SAP2   C4B85014  27.111  12.544   5.404 -0.1114  0.1335  0.3210
 7016SAP2    C185015  12.512  22.874   3.628  0.2030 -0.5217  0.0080
 7016SAP2    C285016  12.450  22.761   3.383  0.1960 -0.1782 -0.1541
 7016SAP2    C385017  12.671  23.009   3.431 -0.0297 -0.0286  0.1430
 7016SAP2    C485018  12.545  22.881   3.481 -0.0007 -0.0007  0.6972
 7016SAP2   PO485019  12.498  22.639   3.822 -0.0188 -0.0535 -0.3295
 7016SAP2    P485020  12.770  22.990   3.112  0.0684 -0.0646 -0.3123
 7016SAP2    P585021  12.348  22.907   3.097 -0.1633 -0.3400 -0.0161
 7016SAP2   GL185022  12.671  22.683   4.068 -0.2266 -0.0606  0.2109
 7016SAP2   GL285023  12.614  22.792   4.315 -0.1752  0.2012 -0.0683
 7016SAP2   D1A85024  12.497  22.222   4.183 -0.0782 -0.0906  0.0764
 7016SAP2   D2A85025  12.631  22.325   4.571  0.0052  0.1557  0.2085
 7016SAP2   D3A85026  13.062  22.518   4.502 -0.0084  0.0401  0.4731
 7016SAP2   D4A85027  13.101  22.429   4.954  0.1433  0.1601  0.0830
 7016SAP2   C5A85028  13.326  22.060   5.194  0.3363  0.1691  0.1356
 7016SAP2   C1B85029  12.731  22.789   4.769 -0.1203 -0.1751 -0.2257
 7016SAP2   C2B85030  12.488  22.623   5.135 -0.0143 -0.0817 -0.1077
 7016SAP2   C3B85031  12.338  22.270   5.423  0.1455 -0.0928 -0.2531
 7016SAP2   C4B85032  12.488  22.002   5.767  0.0096  0.3721 -0.0742
 7017SAP2    C185033  13.070  19.797   2.597  0.2199  0.0193 -0.1375
 7017SAP2    C285034  13.021  20.038   2.470 -0.0607  0.0354 -0.0066
 7017SAP2    C385035  13.079  19.745   2.315 -0.2436  0.0845 -0.1714
 7017SAP2    C485036  13.057  19.860   2.461 -0.0007 -0.0007  0.6972
 7017SAP2   PO485037  12.868  19.792   2.849 -0.0916 -0.1918 -0.5312
 7017SAP2    P485038  13.074  19.927   2.031  0.3272  0.0389 -0.4875
 7017SAP2    P585039  13.296  20.150   2.403 -0.0709 -0.0267  0.0450
 7017SAP2   GL185040  12.784  19.467   2.953  0.0027 -0.2601 -0.1092
 7017SAP2   GL285041  12.752  19.476   3.261 -0.1696 -0.0829 -0.0435
 7017SAP2   D1A85042  12.363  19.389   2.878  0.0019 -0.4183 -0.1673
 7017SAP2   D2A85043  12.279  19.477   3.296  0.2807  0.0374 -0.2092
 7017SAP2   D3A85044  12.062  19.847   3.362 -0.0139  0.1204 -0.1484
 7017SAP2   D4A85045  11.786  19.512   3.138 -0.0351  0.2236 -0.0544
 7017SAP2   C5A85046  11.454  19.339   3.331  0.1189 -0.1449 -0.1506
 7017SAP2   C1B85047  12.823  19.223   3.637 -0.0935 -0.1361  0.0903
 7017SAP2   C2B85048  12.620  18.932   3.819  0.3095  0.0524  0.0884
 7017SAP2   C3B85049  12.371  18.537   3.788 -0.2686 -0.0077 -0.0304
 7017SAP2   C4B85050  11.993  18.370   3.585 -0.2243 -0.3824 -0.2597
 7018SAP2    C185051  27.833  29.340   3.080  0.1543  0.1200 -0.3429
 7018SAP2    C285052  27.951  29.397   2.836  0.6548  0.1055 -0.1164
 7018SAP2    C385053  28.009  29.122   3.021  0.0121 -0.0562 -0.1323
 7018SAP2    C485054  27.931  29.287   2.979 -0.0007 -0.0007  0.6972
 7018SAP2   PO485055  27.467  29.407   3.058 -0.1697 -0.1603  0.1375
 7018SAP2    P485056  28.153  28.977   2.832 -0.0065  0.4997  0.2797
 7018SAP2    P585057  28.174  29.408   2.567 -0.3947 -0.2615 -0.0064
 7018SAP2   GL185058  27.445  29.610   3.381 -0.0080  0.1256  0.0566
 7018SAP2   GL285059  27.620  29.752   3.340  0.2374  0.1407  0.1509
 7018SAP2   D1A85060  27.300  29.577   3.849  0.0037  0.1606  0.5092
 7018SAP2   D2A85061  27.181  29.154   3.850  0.0305 -0.3553 -0.0588
 7018SAP2   D3A85062  27.558  29.083   3.974 -0.1167 -0.2505 -0.1462
 7018SAP2   D4A85063  27.787  29.499   3.858 -0.0698 -0.2092  0.1096
 7018SAP2   C5A85064  27.793  29.522   4.349 -0.2774 -0.0904 -0.0611
 7018SAP2   C1B85065  27.663  30.081   3.608 -0.4378  0.1016 -0.1141
 7018SAP2   C2B85066  27.738  30.400   3.937 -0.0758  0.0495 -0.0344
 7018SAP2   C3B85067  28.063  30.502   4.222  0.0196 -0.1294 -0.2086
 7018SAP2   C4B85068  28.043  30.829   4.554 -0.0996 -0.1523 -0.2106
 7019SAP2    C185069  29.905   3.944   2.901  0.0643  0.4191 -0.0735
 7019SAP2    C285070  30.034   3.792   2.709 -0.0386 -0.0802  0.2333
 7019SAP2    C385071  29.741   3.950   2.666  0.0778  0.0552 -0.0977
 7019SAP2    C485072  29.893   3.895   2.759 -0.0007 -0.0007  0.6972
 7019SAP2   PO485073  30.194   4.078   3.010 -0.2009  0.0001  0.5892
 7019SAP2    P485074  29.640   4.034   2.397 -0.1850 -0.4609 -0.0053
 7019SAP2    P585075  30.012   3.649   2.388 -0.0344  0.1383 -0.0694
 7019SAP2   GL185076  29.949   4.311   3.123  0.1196 -0.0940 -0.1404
 7019SAP2   GL285077  29.824   4.244   3.359 -0.0113 -0.1385  0.1099
 7019SAP2   D1A85078  29.697   4.723   3.017 -0.3293  0.3003 -0.2047
 7019SAP2   D2A85079  29.353   4.758   3.351  0.1726 -0.0370 -0.0112
 7019SAP2   D3A85080  29.005   5.053   3.310  0.1657 -0.0882 -0.3288
 7019SAP2   D4A85081  29.120   5.357   3.654 -0.2270  0.3037  0.1918
 7019SAP2   C5A85082  29.252   5.002   3.818  0.2382 -0.0065 -0.0220
 7019SAP2   C1B85083  29.542   4.152   3.679  0.0691  0.1169  0.1570
 7019SAP2   C2B85084  29.241   4.315   4.010 -0.2587 -0.0370 -0.1799
 7019SAP2   C3B85085  29.188   4.378   4.508  0.4130  0.0190 -0.2849
 7019SAP2   C4B85086  29.135   4.487   4.976 -0.3074  0.1089  0.1052
 7020SAP2    C185087  26.485  25.934   2.744  0.2351  0.2743  0.2608
 7020SAP2    C285088  26.593  25.681   2.713 -0.2553  0.0668  0.1425
 7020SAP2    C385089  26.765  25.956   2.800  0.2875 -0.3013  0.2903
 7020SAP2    C485090  26.614  25.857   2.752 -0.0007 -0.0007  0.6972
 7020SAP2   PO485091  26.213  25.922   2.889  0.0598 -0.2912 -0.2067
 7020SAP2    P485092  26.998  25.891   2.885  0.2027  0.2697  0.0075
 7020SAP2    P585093  26.751  25.660   2.447  0.0367  0.1835 -0.2595
 7020SAP2   GL185094  26.158  25.847   3.240 -0.0763 -0.2396  0.0597
 7020SAP2   GL285095  26.331  25.935   3.493 -0.2408 -0.0826  0.1118
 7020SAP2   D1A85096  25.928  26.216   3.373 -0.2001 -0.5446  0.0520
 7020SAP2   D2A85097  26.056  26.476   3.726 -0.0887 -0.0672 -0.2311
 7020SAP2   D3A85098  26.471  26.286   3.785 -0.1512  0.3693 -0.0031
 7020SAP2   D4A85099  26.114  26.215   4.145  0.0426 -0.1332  0.0058
 7020SAP2   C5A85100  26.363  26.068   4.546 -0.0891 -0.2298 -0.0452
 7020SAP2   C1B85101  26.380  25.817   3.938 -0.2881  0.1621 -0.3155
 7020SAP2   C2B85102  26.577  25.689   4.335 -0.0676 -0.3481 -0.4080
 7020SAP2   C3B85103  26.535  25.653   4.824 -0.1348 -0.0563 -0.0833
 7020SAP2   C4B85104  26.234  25.669   5.222 -0.2069  0.1177 -0.0864
 7021SAP2    C185105  13.310  30.877   3.068 -0.0912  0.0088  0.0688
 7021SAP2    C285106  13.180  30.990   2.852  0.1546  0.3570  0.0948
 7021SAP2    C385107  13.499  30.884   2.853  0.0377 -0.0062  0.1797
 7021SAP2    C485108  13.330  30.917   2.924 -0.0007 -0.0007  0.6972
 7021SAP2   PO485109  13.054  30.721   3.205 -0.1533  0.0942 -0.0996
 7021SAP2    P485110  13.559  31.031   2.553 -0.0468 -0.1528  0.2477
 7021SAP2    P585111  13.071  31.258   2.709 -0.1976 -0.2815 -0.2252
 7021SAP2   GL185112  13.063  30.937   3.409  0.0400 -0.1745  0.0849
 7021SAP2   GL285113  13.335  31.071   3.530 -0.0835 -0.0127  0.2922
 7021SAP2   D1A85114  12.659  31.116   3.604  0.0264 -0.0975 -0.1616
 7021SAP2   D2A85115  12.409  31.357   3.357 -0.0372  0.0045 -0.0459
 7021SAP2   D3A85116  12.152  31.109   3.688 -0.0134 -0.3433 -0.1458
 7021SAP2   D4A85117  12.391  30.839   3.934 -0.0742  0.1538 -0.2274
 7021SAP2   C5A85118  12.425  31.095   4.374 -0.0966  0.2024 -0.0070
 7021SAP2   C1B85119  13.416  31.069   3.986  0.1009  0.0017 -0.1118
 7021SAP2   C2B85120  13.242  31.142   4.428  0.2633 -0.1268  0.1834
 7021SAP2   C3B85121  13.006  31.326   4.827 -0.1331  0.2610  0.0439
 7021SAP2   C4B85122  13.317  31.397   5.121 -0.2669 -0.2910 -0.0169
 7022SAP2    C185123   7.610   7.980   3.408 -0.0310  0.1626  0.2945
 7022SAP2    C285124   7.526   8.162   3.217  0.1296 -0.0021  0.0620
 7022SAP2    C385125   7.406   7.850   3.256  0.2983 -0.0716  0.0364
 7022SAP2    C485126   7.514   7.997   3.293 -0.0007 -0.0007  0.6972
 7022SAP2   PO485127   7.740   8.180   3.665 -0.2876  0.1170  0.0628
 7022SAP2    P485128   7.115   7.825   3.124  0.1073 -0.1630 -0.3182
 7022SAP2    P585129   7.546   8.105   2.877  0.1715 -0.2931 -0.2609
 7022SAP2   GL185130   7.523   8.320   3.869 -0.4428 -0.0092  0.1073
 7022SAP2   GL285131   7.696   8.556   3.944  0.0394  0.1046 -0.0541
 7022SAP2   D1A85132   7.313   7.903   3.991 -0.0477 -0.0403  0.1625
 7022SAP2   D2A85133   7.722   7.713   4.128 -0.0123  0.0087  0.1606
 7022SAP2   D3A85134   7.955   7.547   4.488  0.0634 -0.1475 -0.3006
 7022SAP2   D4A85135   8.131   7.421   4.090 -0.0728 -0.2443  0.0614
 7022SAP2   C5A85136   8.454   7.202   4.274 -0.1147 -0.1102  0.4143
 7022SAP2   C1B85137   7.935   8.456   4.401 -0.0349 -0.0067 -0.0604
 7022SAP2   C2B85138   7.983   8.362   4.866 -0.1988  0.0460 -0.1556
 7022SAP2   C3B85139   8.070   8.122   5.284 -0.2413 -0.0033 -0.0404
 7022SAP2   C4B85140   7.822   7.898   5.535  0.1079  0.1799 -0.2093
 7023SAP2    C185141  29.554  18.700   2.643  0.0208 -0.0418  0.2534
 7023SAP2    C285142  29.734  18.511   2.734  0.0560 -0.1079  0.0515
 7023SAP2    C385143  29.799  18.745   2.502 -0.0780 -0.0425  0.0790
 7023SAP2    C485144  29.696  18.652   2.627 -0.0007 -0.0007  0.6972
 7023SAP2   PO485145  29.345  18.736   2.916 -0.2297  0.1376 -0.1190
 7023SAP2    P485146  30.055  18.693   2.449  0.0189  0.0327 -0.1073
 7023SAP2    P585147  29.865  18.228   2.667 -0.2027 -0.1231 -0.0485
 7023SAP2   GL185148  29.188  18.504   3.207 -0.2203  0.2944 -0.0617
 7023SAP2   GL285149  29.390  18.432   3.338 -0.1133 -0.0287  0.0336
 7023SAP2   D1A85150  28.859  18.215   3.337  0.0384  0.0419  0.1485
 7023SAP2   D2A85151  29.267  17.951   3.268  0.3170 -0.2550 -0.0563
 7023SAP2   D3A85152  29.216  17.758   3.742  0.0924 -0.1888 -0.0112
 7023SAP2   D4A85153  29.574  17.950   3.959 -0.1573  0.0698  0.2170
 7023SAP2   C5A85154  29.776  17.617   4.155 -0.0348  0.1961  0.0704
 7023SAP2   C1B85155  29.269  18.321   3.746  0.0535 -0.0028 -0.0789
 7023SAP2   C2B85156  29.172  18.192   4.180 -0.1894 -0.0153  0.0773
 7023SAP2   C3B85157  29.246  17.948   4.583 -0.1559  0.0386  0.1644
 7023SAP2   C4B85158  29.174  17.497   4.761  0.1261  0.1196  0.1561
 7024SAP2    C185159  14.450  26.543   3.669 -0.0797 -0.1430  0.1614
 7024SAP2    C285160  14.533  26.281   3.632  0.1809 -0.0370 -0.0296
 7024SAP2    C385161  14.295  26.437   3.452 -0.0157 -0.1565  0.1222
 7024SAP2    C485162  14.426  26.420   3.584 -0.0007 -0.0007  0.6972
 7024SAP2   PO485163  14.727  26.758   3.826  0.0232 -0.0553  0.3269
 7024SAP2    P485164  14.219  26.262   3.203 -0.0686 -0.4107 -0.0288
 7024SAP2    P585165  14.577  26.061   3.420 -0.0022  0.1950 -0.1826
 7024SAP2   GL185166  14.983  26.667   4.099 -0.0708  0.0345  0.0267
 7024SAP2   GL285167  14.748  26.732   4.282  0.1878 -0.2420  0.0741
 7024SAP2   D1A85168  15.080  27.113   4.208  0.0567 -0.0727 -0.0604
 7024SAP2   D2A85169  15.047  27.079   4.678 -0.5531 -0.1329  0.3054
 7024SAP2   D3A85170  14.764  27.166   5.029 -0.0797  0.0445  0.0897
 7024SAP2   D4A85171  14.743  26.708   5.070 -0.2136  0.1240  0.1725
 7024SAP2   C5A85172  14.860  26.950   5.476 -0.2030  0.1630  0.1317
 7024SAP2   C1B85173  14.447  26.607   4.580 -0.1384  0.2005  0.0126
 7024SAP2   C2B85174  14.226  26.662   4.947  0.1539  0.5529  0.1474
 7024SAP2   C3B85175  14.231  26.468   5.379 -0.2215 -0.4564  0.2499
 7024SAP2   C4B85176  14.338  26.127   5.670 -0.1753  0.0771 -0.2120
 7025SAP2    C185177  28.740   8.379   3.354  0.0594  0.0418 -0.1773
 7025SAP2    C285178  28.730   8.442   3.084 -0.2375  0.2048 -0.1328
 7025SAP2    C385179  28.544   8.586   3.324  0.1510  0.1884  0.1885
 7025SAP2    C485180  28.671   8.469   3.254 -0.0007 -0.0007  0.6972
 7025SAP2   PO485181  29.036   8.307   3.449  0.1337  0.0902  0.1592
 7025SAP2    P485182  28.406   8.759   3.089  0.3548 -0.0336  0.0062
 7025SAP2    P585183  28.568   8.361   2.846 -0.4075 -0.2183  0.0064
 7025SAP2   GL185184  29.100   8.322   3.705  0.0388  0.1378 -0.1874
 7025SAP2   GL285185  28.988   8.393   3.955  0.0925 -0.2117 -0.0451
 7025SAP2   D1A85186  29.538   8.261   3.872 -0.1200 -0.0884 -0.1083
 7025SAP2   D2A85187  29.640   7.822   4.001  0.1740  0.0185 -0.1656
 7025SAP2   D3A85188  30.070   7.705   3.968 -0.2563  0.0775 -0.2028
 7025SAP2   D4A85189  30.045   7.947   4.289  0.2439  0.0342  0.1745
 7025SAP2   C5A85190  29.623   8.152   4.380 -0.2049 -0.3240 -0.2841
 7025SAP2   C1B85191  29.077   8.488   4.412 -0.3217  0.2743  0.0570
 7025SAP2   C2B85192  29.286   8.403   4.792 -0.2841  0.2867 -0.1657
 7025SAP2   C3B85193  29.301   8.304   5.206 -0.1161 -0.1204  0.0156
 7025SAP2   C4B85194  29.524   7.988   5.460  0.2630 -0.1701  0.2393
 7026SAP2    C185195   1.398   7.529   2.964  0.2228 -0.0172  0.0507
 7026SAP2    C285196   1.547   7.558   2.733  0.4102 -0.1770  0.1487
 7026SAP2    C385197   1.343   7.300   2.801  0.1666 -0.0107  0.0604
 7026SAP2    C485198   1.429   7.463   2.832 -0.0007 -0.0007  0.6972
 7026SAP2   PO485199   1.271   7.823   2.978 -0.1942 -0.0036  0.2700
 7026SAP2    P485200   1.300   7.240   2.531  0.1919  0.0261 -0.0638
 7026SAP2    P585201   1.738   7.385   2.563  0.1739 -0.3033  0.0452
 7026SAP2   GL185202   1.155   8.073   3.243 -0.1670 -0.0877 -0.2203
 7026SAP2   GL285203   1.326   7.926   3.471 -0.3322  0.0606  0.0787
 7026SAP2   D1A85204   1.145   8.486   3.016 -0.2536 -0.1472 -0.4735
 7026SAP2   D2A85205   1.149   8.517   3.463  0.0198  0.1287 -0.1834
 7026SAP2   D3A85206   1.328   8.883   3.697 -0.1466  0.1561 -0.1943
 7026SAP2   D4A85207   1.226   9.259   3.895 -0.0243 -0.0554 -0.0349
 7026SAP2   C5A85208   1.115   9.155   4.307  0.0968  0.0085 -0.0880
 7026SAP2   C1B85209   1.367   8.012   3.964  0.2013 -0.0235 -0.0544
 7026SAP2   C2B85210   1.362   8.104   4.395 -0.0013  0.2652 -0.2043
 7026SAP2   C3B85211   1.255   8.209   4.790  0.3173 -0.2780 -0.1037
 7026SAP2   C4B85212   1.128   8.147   5.283  0.0737 -0.1388  0.3725
 7027SAP2    C185213   0.581  25.594   2.654  0.3423 -0.3238  0.0560
 7027SAP2    C285214   0.857  25.605   2.684  0.3651 -0.2564 -0.1579
 7027SAP2    C385215   0.671  25.827   2.513  0.0950  0.0721  0.5213
 7027SAP2    C485216   0.703  25.676   2.617 -0.0007 -0.0007  0.6972
 7027SAP2   PO485217   0.447  25.488   2.888 -0.0190 -0.1202  0.2660
 7027SAP2    P485218   0.873  25.983   2.328  0.0983  0.2108 -0.1183
 7027SAP2    P585219   1.159  25.700   2.610 -0.1363  0.2431 -0.0487
 7027SAP2   GL185220   0.509  25.264   3.081  0.3494 -0.0157 -0.2815
 7027SAP2   GL285221   0.435  25.162   3.348  0.1097 -0.2375 -0.2057
 7027SAP2   D1A85222   0.195  25.571   3.362  0.1615 -0.0547 -0.2463
 7027SAP2   D2A85223   0.301  25.556   3.814  0.2666 -0.4461  0.0588
 7027SAP2   D3A85224   0.715  25.538   3.567 -0.1275 -0.2341 -0.2370
 7027SAP2   D4A85225   0.753  25.160   3.813  0.0976  0.1382 -0.2332
 7027SAP2   C5A85226   0.450  25.203   4.154  0.0780  0.2307 -0.0694
 7027SAP2   C1B85227   0.275  24.976   3.732  0.1167  0.1448 -0.1757
 7027SAP2   C2B85228   0.134  24.803   4.173 -0.1242  0.1183  0.0466
 7027SAP2   C3B85229   0.169  24.608   4.613  0.1367 -0.1419 -0.1191
 7027SAP2   C4B85230   0.279  24.553   5.052 -0.0205 -0.0466  0.2789
 7028SAP2    C185231   5.530  29.966   2.908  0.2482 -0.2455  0.1174
 7028SAP2    C285232   5.604  29.707   2.843 -0.1131 -0.2844 -0.1705
 7028SAP2    C385233   5.786  29.983   2.780  0.0526 -0.4241 -0.3175
 7028SAP2    C485234   5.640  29.885   2.844 -0.0007 -0.0007  0.6972
 7028SAP2   PO485235   5.343  29.927   3.166 -0.1502  0.4462  0.2072
 7028SAP2    P485236   6.025  29.886   2.623 -0.0478  0.1516  0.1582
 7028SAP2    P585237   5.576  29.625   2.547  0.0776 -0.4146 -0.1613
 7028SAP2   GL185238   5.694  29.939   3.301 -0.0379  0.0154  0.0058
 7028SAP2   GL285239   5.549  29.980   3.558 -0.0436 -0.0563  0.0766
 7028SAP2   D1A85240   6.114  29.947   3.238 -0.0127 -0.0674  0.2659
 7028SAP2   D2A85241   6.534  29.930   3.473  0.1197  0.0145  0.0003
 7028SAP2   D3A85242   6.403  30.356   3.363  0.3801 -0.2586 -0.0591
 7028SAP2   D4A85243   6.530  30.767   3.596 -0.6000  0.1709 -0.0401
 7028SAP2   C5A85244   6.340  30.760   3.995 -0.1027 -0.0683  0.0479
 7028SAP2   C1B85245   5.639  30.212   3.940  0.0453  0.0090  0.1127
 7028SAP2   C2B85246   5.896  30.593   4.102  0.2562  0.1669  0.0072
 7028SAP2   C3B85247   5.737  31.050   4.247  0.3791  0.0914  0.0345
 7028SAP2   C4B85248   5.457  31.372   4.403  0.1823  0.2869  0.1237
 7029SAP2    C185249   4.577  12.144   2.767  0.1153  0.0154  0.0548
 7029SAP2    C285250   4.628  12.417   2.764 -0.2793  0.0971  0.2022
 7029SAP2    C385251   4.372  12.265   2.607 -0.0445 -0.1963  0.0953
 7029SAP2    C485252   4.526  12.275   2.713 -0.0007 -0.0007  0.6972
 7029SAP2   PO485253   4.623  11.958   2.989  0.1968 -0.1160  0.0815
 7029SAP2    P485254   4.222  12.502   2.470  0.0590 -0.0602  0.0768
 7029SAP2    P585255   4.725  12.610   2.568  0.0192 -0.0293  0.3154
 7029SAP2   GL185256   4.908  11.804   3.055 -0.2576 -0.4342 -0.0491
 7029SAP2   GL285257   4.970  11.529   2.923  0.1530 -0.0294 -0.0520
 7029SAP2   D1A85258   4.866  11.967   3.468  0.1675  0.2189  0.0479
 7029SAP2   D2A85259   4.645  11.601   3.403 -0.1375  0.0864  0.1156
 7029SAP2   D3A85260   4.930  11.264   3.505 -0.1346 -0.2657 -0.1483
 7029SAP2   D4A85261   4.676  11.119   3.143 -0.0233 -0.0016  0.0410
 7029SAP2   C5A85262   5.051  10.856   3.012  0.0784 -0.4504  0.0707
 7029SAP2   C1B85263   5.353  11.214   2.867  0.1360  0.1635 -0.3159
 7029SAP2   C2B85264   5.808  11.075   2.846 -0.2415  0.1828  0.0272
 7029SAP2   C3B85265   6.233  11.004   2.776 -0.0343  0.1966 -0.0458
 7029SAP2   C4B85266   6.637  11.239   2.751 -0.3732 -0.0037  0.0483
 7030SAP2    C185267  11.909  25.247   3.360  0.4859 -0.1049 -0.0763
 7030SAP2    C285268  11.831  25.137   3.118 -0.1742 -0.0767  0.1058
 7030SAP2    C385269  11.995  25.428   3.155 -0.0366 -0.0964 -0.3020
 7030SAP2    C485270  11.912  25.271   3.211 -0.0007 -0.0007  0.6972
 7030SAP2   PO485271  11.935  24.970   3.523 -0.0509  0.0877  0.2150
 7030SAP2    P485272  11.968  25.546   2.856 -0.1746 -0.0661 -0.0498
 7030SAP2    P585273  11.669  25.148   2.894 -0.1611 -0.0359  0.0627
 7030SAP2   GL185274  12.034  25.206   3.841 -0.0369 -0.4327  0.0862
 7030SAP2   GL285275  11.696  25.255   3.778 -0.2526  0.3202  0.1842
 7030SAP2   D1A85276  12.289  24.967   4.139 -0.0753  0.3573 -0.1115
 7030SAP2   D2A85277  12.458  25.348   4.002 -0.1524 -0.0727  0.0225
 7030SAP2   D3A85278  12.386  25.681   4.277 -0.0973 -0.0068  0.0033
 7030SAP2   D4A85279  12.238  26.136   4.191  0.1671  0.2502  0.0317
 7030SAP2   C5A85280  11.812  26.294   4.187 -0.0555  0.1685  0.0921
 7030SAP2   C1B85281  11.768  24.932   4.134  0.3972  0.0943  0.0833
 7030SAP2   C2B85282  11.576  24.915   4.576 -0.0013 -0.1746 -0.4359
 7030SAP2   C3B85283  11.716  24.705   4.954  0.2592  0.3385 -0.0288
 7030SAP2   C4B85284  11.815  24.383   5.314  0.1477 -0.2609 -0.2339
 7031SAP2    C185285   5.494  10.194   1.584 -0.0401  0.2175 -0.1851
 7031SAP2    C285286   5.702  10.114   1.419 -0.1589 -0.1644 -0.1601
 7031SAP2    C385287   5.496  10.373   1.360  0.5136  0.4343 -0.0239
 7031SAP2    C485288   5.564  10.227   1.454 -0.0007 -0.0007  0.6972
 7031SAP2   PO485289   5.623  10.225   1.913  0.1967  0.1295  0.2190
 7031SAP2    P485290   5.510  10.480   1.084 -0.2640 -0.0349 -0.1283
 7031SAP2    P585291   5.689  10.028   1.088  0.2009 -0.1567 -0.1578
 7031SAP2   GL185292   5.541  10.524   2.105  0.0306 -0.3766  0.2207
 7031SAP2   GL285293   5.628  10.419   2.338  0.3813  0.2541  0.1299
 7031SAP2   D1A85294   5.965  10.614   2.063 -0.3897 -0.5230 -0.0600
 7031SAP2   D2A85295   5.880  11.026   2.344  0.1467  0.0533 -0.4405
 7031SAP2   D3A85296   6.128  11.436   2.419 -0.1085 -0.1422 -0.2458
 7031SAP2   D4A85297   5.839  11.764   2.354  0.0441 -0.2106 -0.1114
 7031SAP2   C5A85298   5.491  11.619   2.597 -0.0147 -0.0249  0.0107
 7031SAP2   C1B85299   5.974  10.500   2.650  0.2695 -0.3042  0.2679
 7031SAP2   C2B85300   5.982  10.676   3.093  0.1585  0.1438 -0.0416
 7031SAP2   C3B85301   6.330  10.840   3.348 -0.4529  0.5027 -0.0937
 7031SAP2   C4B85302   6.603  10.617   3.660 -0.3527 -0.2192 -0.1973
 7032SAP2    C185303   2.275  21.896   3.005 -0.0865  0.1372  0.1460
 7032SAP2    C285304   2.390  21.997   2.774 -0.0609 -0.0205  0.0888
 7032SAP2    C385305   2.082  21.866   2.796 -0.1251  0.1432  0.1807
 7032SAP2    C485306   2.249  21.920   2.858 -0.0007 -0.0007  0.6972
 7032SAP2   PO485307   2.405  22.129   3.202 -0.1271  0.0880 -0.1285
 7032SAP2    P485308   2.080  21.885   2.479  0.0153 -0.0201  0.5296
 7032SAP2    P585309   2.543  21.908   2.544 -0.0161  0.0255  0.1079
 7032SAP2   GL185310   2.132  22.077   3.412  0.2070 -0.2759 -0.3134
 7032SAP2   GL285311   2.288  22.289   3.431 -0.2198 -0.0193  0.1709
 7032SAP2   D1A85312   1.863  21.906   3.760  0.0661 -0.0427  0.2836
 7032SAP2   D2A85313   2.033  21.482   3.807  0.0752  0.0341  0.2046
 7032SAP2   D3A85314   1.782  21.545   4.143 -0.1044 -0.1126 -0.3716
 7032SAP2   D4A85315   1.459  21.848   4.083  0.2335  0.1442 -0.2235
 7032SAP2   C5A85316   1.192  21.676   4.429 -0.1238  0.1992 -0.0006
 7032SAP2   C1B85317   2.120  22.254   3.886 -0.2864 -0.1374 -0.1947
 7032SAP2   C2B85318   2.026  22.209   4.352  0.0486 -0.0740  0.2002
 7032SAP2   C3B85319   1.879  22.282   4.783  0.0677 -0.2019 -0.0681
 7032SAP2   C4B85320   2.005  22.353   5.210 -0.2533  0.1006 -0.2009
 7033SAP2    C185321  22.236  16.658   1.584 -0.2488  0.0555  0.0577
 7033SAP2    C285322  22.246  16.651   1.307 -0.0796  0.2281  0.0575
 7033SAP2    C385323  22.390  16.427   1.512  0.0271  0.2499  0.0071
 7033SAP2    C485324  22.291  16.578   1.468 -0.0007 -0.0007  0.6972
 7033SAP2   PO485325  21.955  16.760   1.652  0.0972 -0.0226  0.1116
 7033SAP2    P485326  22.424  16.223   1.330  0.3340  0.1038 -0.1723
 7033SAP2    P585327  22.411  16.703   1.078  0.0653  0.2849 -0.0479
 7033SAP2   GL185328  21.839  16.694   1.976  0.3437 -0.2549  0.2237
 7033SAP2   GL285329  21.782  16.381   1.886 -0.5092  0.1734 -0.2335
 7033SAP2   D1A85330  21.728  16.751   2.422 -0.1571 -0.0994 -0.0860
 7033SAP2   D2A85331  21.692  17.116   2.135  0.1479  0.1273 -0.1642
 7033SAP2   D3A85332  21.227  17.070   2.228 -0.2964 -0.1199  0.1795
 7033SAP2   D4A85333  21.157  17.482   2.123  0.1707 -0.2916  0.1814
 7033SAP2   C5A85334  21.480  17.586   2.411  0.0218  0.2335  0.0554
 7033SAP2   C1B85335  21.485  16.092   2.106  0.1172  0.1988 -0.5900
 7033SAP2   C2B85336  21.204  15.719   2.201  0.0490  0.0446  0.2027
 7033SAP2   C3B85337  20.910  15.460   2.413  0.0396  0.0798  0.1784
 7033SAP2   C4B85338  20.465  15.436   2.608  0.4075  0.0117 -0.0436
 7034SAP2    C185339  14.141   5.639   3.012  0.2954 -0.2835  0.1364
 7034SAP2    C285340  14.037   5.429   2.865  0.2369 -0.0680 -0.1387
 7034SAP2    C385341  14.332   5.579   2.807  0.3272 -0.1383  0.1225
 7034SAP2    C485342  14.170   5.549   2.895 -0.0007 -0.0007  0.6972
 7034SAP2   PO485343  14.037   5.662   3.305  0.1753  0.1291  0.0997
 7034SAP2    P485344  14.445   5.377   2.579 -0.0051  0.1093  0.0291
 7034SAP2    P585345  13.888   5.338   2.675 -0.2783 -0.1027 -0.2138
 7034SAP2   GL185346  13.962   5.930   3.549 -0.3354  0.0318 -0.1449
 7034SAP2   GL285347  14.107   5.835   3.805 -0.2519  0.0508  0.1247
 7034SAP2   D1A85348  13.663   6.037   3.885 -0.2233 -0.0246 -0.2447
 7034SAP2   D2A85349  13.307   5.621   3.985  0.3676  0.0459 -0.0400
 7034SAP2   D3A85350  13.711   5.435   4.205 -0.2531  0.3799 -0.3474
 7034SAP2   D4A85351  13.979   5.127   4.434  0.0499  0.0240 -0.1177
 7034SAP2   C5A85352  14.306   5.443   4.420  0.0249 -0.0345  0.2416
 7034SAP2   C1B85353  13.998   5.820   4.256 -0.0935  0.0306  0.1373
 7034SAP2   C2B85354  13.978   5.920   4.717  0.1849  0.3545 -0.0532
 7034SAP2   C3B85355  14.283   6.033   5.030  0.0173  0.0187 -0.3722
 7034SAP2   C4B85356  14.529   6.066   5.396  0.0406 -0.0558  0.0577
 7035SAP2    C185357  28.948  22.536   3.155 -0.0932  0.0867 -0.0674
 7035SAP2    C285358  28.895  22.566   2.884 -0.3491  0.0204 -0.0281
 7035SAP2    C385359  28.720  22.372   3.096 -0.1206  0.0330  0.1771
 7035SAP2    C485360  28.854  22.492   3.045 -0.0007 -0.0007  0.6972
 7035SAP2   PO485361  29.079  22.839   3.238  0.1375 -0.2259 -0.2731
 7035SAP2    P485362  28.538  22.220   2.862 -0.1982 -0.4060 -0.0938
 7035SAP2    P585363  28.862  22.454   2.589 -0.1509 -0.1350  0.1623
 7035SAP2   GL185364  29.125  22.681   3.546 -0.0241  0.1585  0.0419
 7035SAP2   GL285365  29.014  22.698   3.814 -0.2594 -0.2148 -0.0714
 7035SAP2   D1A85366  29.446  22.399   3.770  0.0826  0.1112  0.3333
 7035SAP2   D2A85367  29.903  22.394   3.723 -0.4321  0.4380  0.1453
 7035SAP2   D3A85368  29.690  22.163   4.094 -0.0150  0.0364 -0.1068
 7035SAP2   D4A85369  29.311  22.251   4.314 -0.2684  0.1214  0.2576
 7035SAP2   C5A85370  29.042  22.034   4.686 -0.2462  0.1877  0.0053
 7035SAP2   C1B85371  29.288  22.780   4.206 -0.0659  0.0071  0.0901
 7035SAP2   C2B85372  29.429  22.703   4.653 -0.1589  0.3141 -0.2002
 7035SAP2   C3B85373  29.416  23.051   4.982 -0.0413 -0.0025  0.0979
 7035SAP2   C4B85374  29.201  23.257   5.354  0.1909  0.0790  0.2211
 7036SAP2    C185375   3.558  18.393   2.935 -0.1609 -0.0330 -0.1656
 7036SAP2    C285376   3.808  18.317   2.843 -0.0118  0.1042  0.1152
 7036SAP2    C385377   3.527  18.324   2.658  0.1686 -0.1483 -0.1776
 7036SAP2    C485378   3.631  18.345   2.812 -0.0007 -0.0007  0.6972
 7036SAP2   PO485379   3.680  18.633   3.131  0.0522 -0.0215  0.0172
 7036SAP2    P485380   3.595  18.120   2.432  0.0533  0.1020  0.1920
 7036SAP2    P585381   3.940  18.020   2.756  0.2103  0.0155 -0.2337
 7036SAP2   GL185382   3.430  18.697   3.341  0.0408  0.0490  0.2498
 7036SAP2   GL285383   3.566  18.943   3.509 -0.2712 -0.1310  0.0100
 7036SAP2   D1A85384   3.720  18.475   3.649 -0.1435 -0.0200 -0.0271
 7036SAP2   D2A85385   3.452  18.621   3.961 -0.0943  0.1890 -0.1152
 7036SAP2   D3A85386   3.101  18.715   3.688  0.1355 -0.1602  0.1072
 7036SAP2   D4A85387   2.835  18.613   4.043  0.1230 -0.0820 -0.2245
 7036SAP2   C5A85388   2.812  18.428   4.456 -0.1753 -0.2854  0.1560
 7036SAP2   C1B85389   3.929  18.969   3.807  0.1960  0.2895 -0.2345
 7036SAP2   C2B85390   4.317  18.935   4.019  0.0037 -0.1743 -0.0200
 7036SAP2   C3B85391   4.546  19.333   4.072 -0.4948 -0.3834  0.2026
 7036SAP2   C4B85392   4.732  19.753   4.083  0.1183 -0.1007 -0.0140
 7037SAP2    C185393  30.457  25.743   3.046 -0.0115 -0.1592 -0.0939
 7037SAP2    C285394  30.341  25.531   2.911 -0.1005  0.0025 -0.2767
 7037SAP2    C385395  30.323  25.853   2.818 -0.2295  0.1293  0.1652
 7037SAP2    C485396  30.374  25.709   2.925 -0.0007 -0.0007  0.6972
 7037SAP2   PO485397  30.788  25.663   3.114 -0.0898 -0.0014 -0.0533
 7037SAP2    P485398  30.108  25.810   2.637 -0.0080 -0.3258 -0.2512
 7037SAP2    P585399  30.042  25.527   2.990 -0.1972 -0.1129  0.0053
 7037SAP2   GL185400  30.911  25.652   3.511 -0.0634  0.0777 -0.1456
 7037SAP2   GL285401  31.031  25.471   3.489 -0.0814 -0.1747  0.1341
 7037SAP2   D1A85402  31.260  25.940   3.617  0.3018  0.0257 -0.0016
 7037SAP2   D2A85403  31.496  25.683   3.875 -0.1445 -0.2047 -0.1512
 7037SAP2   D3A85404  31.783  25.811   4.266  0.2469  0.0133  0.0024
 7037SAP2   D4A85405  32.276  25.759   4.207  0.0579  0.0685 -0.0798
 7037SAP2   C5A85406  32.384  25.937   3.768  0.0996  0.2078  0.2098
 7037SAP2   C1B85407  31.042  25.505   3.955 -0.1559  0.0612 -0.0402
 7037SAP2   C2B85408  31.296  25.348   4.282 -0.2624 -0.0715  0.0568
 7037SAP2   C3B85409  31.397  25.230   4.684 -0.2101  0.1824  0.0825
 7037SAP2   C4B85410  31.661  25.016   4.934  0.0758  0.4366 -0.2599
 7038SAP2    C185411  16.192   5.412   2.247 -0.2895 -0.2384 -0.1434
 7038SAP2    C285412  16.262   5.582   2.040  0.1803 -0.1124  0.1047
 7038SAP2    C385413  16.077   5.667   2.308  0.1204 -0.0920  0.0569
 7038SAP2    C485414  16.177   5.554   2.199 -0.0007 -0.0007  0.6972
 7038SAP2   PO485415  16.507   5.258   2.260  0.1332 -0.1911  0.2523
 7038SAP2    P485416  15.980   5.948   2.255 -0.1832  0.1130  0.0016
 7038SAP2    P585417  16.104   5.704   1.792 -0.4667  0.1448 -0.2425
 7038SAP2   GL185418  16.482   5.028   2.505  0.4466 -0.1924  0.0033
 7038SAP2   GL285419  16.469   4.772   2.494 -0.3062 -0.1971 -0.1818
 7038SAP2   D1A85420  16.897   4.996   2.372 -0.2107  0.1396 -0.1433
 7038SAP2   D2A85421  17.364   4.966   2.368  0.0882 -0.0287 -0.3329
 7038SAP2   D3A85422  17.233   4.874   1.918 -0.4406 -0.0483  0.1060
 7038SAP2   D4A85423  16.836   4.680   2.017 -0.1010  0.0320  0.1960
 7038SAP2   C5A85424  16.995   4.480   2.417 -0.0323  0.1994  0.2285
 7038SAP2   C1B85425  16.798   4.808   2.848 -0.0530  0.0830  0.2369
 7038SAP2   C2B85426  17.061   4.811   3.225  0.1429  0.0124  0.2785
 7038SAP2   C3B85427  17.425   5.061   3.494  0.1605 -0.1139  0.0643
 7038SAP2   C4B85428  17.720   5.157   3.834  0.1447 -0.2938  0.0284
 7039SAP2    C185429   2.679   1.652   3.301  0.0183 -0.0515  0.0051
 7039SAP2    C285430   2.458   1.579   3.152 -0.0592 -0.0948  0.1396
 7039SAP2    C385431   2.768   1.457   3.111 -0.0653 -0.0556 -0.0303
 7039SAP2    C485432   2.635   1.563   3.188 -0.0007 -0.0007  0.6972
 7039SAP2   PO485433   2.553   1.652   3.586 -0.0122 -0.1248 -0.1161
 7039SAP2    P485434   2.747   1.327   2.843 -0.2583 -0.1511  0.1456
 7039SAP2    P585435   2.342   1.590   2.894 -0.0976  0.1800  0.1568
 7039SAP2   GL185436   2.576   1.534   4.010 -0.0226 -0.0659  0.6253
 7039SAP2   GL285437   2.849   1.367   3.983 -0.0930 -0.0959 -0.2150
 7039SAP2   D1A85438   2.603   1.787   4.390  0.1865  0.0820 -0.1631
 7039SAP2   D2A85439   2.345   1.622   4.773 -0.0479  0.1742  0.3139
 7039SAP2   D3A85440   2.065   1.301   5.012  0.0562 -0.0438 -0.0624
 7039SAP2   D4A85441   2.263   0.876   5.018  0.0359  0.0430  0.0125
 7039SAP2   C5A85442   2.633   0.797   4.727  0.1194  0.3778  0.0044
 7039SAP2   C1B85443   2.634   1.283   4.420  0.1753  0.0553 -0.2801
 7039SAP2   C2B85444   2.784   1.357   4.805 -0.3145  0.0236  0.1403
 7039SAP2   C3B85445   2.580   1.173   5.206 -0.3117  0.0645 -0.1962
 7039SAP2   C4B85446   2.183   1.181   5.477  0.1974  0.0183 -0.0382
 7040SAP2    C185447   0.664   0.187   3.023  0.0745  0.0437  0.0388
 7040SAP2    C285448   0.693   0.066   2.776  0.0282 -0.0259  0.0672
 7040SAP2    C385449   0.492   0.326   2.841  0.3284  0.2432 -0.0550
 7040SAP2    C485450   0.616   0.193   2.880 -0.0007 -0.0007  0.6972
 7040SAP2   PO485451   0.933   0.205   3.241  0.0261 -0.2764  0.1529
 7040SAP2    P485452   0.301   0.429   2.650 -0.0673  0.1699 -0.1939
 7040SAP2    P585453   0.442  -0.019   2.509 -0.1567  0.2922 -0.0873
 7040SAP2   GL185454   0.792   0.508   3.380  0.3010  0.1108 -0.0123
 7040SAP2   GL285455   1.087   0.499   3.593 -0.4939 -0.2753  0.2061
 7040SAP2   D1A85456   0.766   0.219   3.760 -0.1526  0.0480  0.0746
 7040SAP2   D2A85457   0.645  -0.139   3.974 -0.3788  0.0288 -0.1482
 7040SAP2   D3A85458   0.948  -0.481   3.937 -0.0714  0.0663  0.4589
 7040SAP2   D4A85459   1.201  -0.715   3.631 -0.1449 -0.0826  0.3028
 7040SAP2   C5A85460   1.603  -0.954   3.860 -0.0635 -0.2325  0.1675
 7040SAP2   C1B85461   1.117   0.540   4.030 -0.0069 -0.2636 -0.1102
 7040SAP2   C2B85462   1.283   0.462   4.470 -0.1154  0.0473  0.3416
 7040SAP2   C3B85463   1.418   0.620   4.875  0.1190 -0.1776 -0.0683
 7040SAP2   C4B85464   1.194   0.879   5.093  0.1609  0.0665  0.1758
 7041SAP2    C185465  12.768  17.622   2.116 -0.1849 -0.1702 -0.2956
 7041SAP2    C285466  12.924  17.413   2.023 -0.1022 -0.1215 -0.2675
 7041SAP2    C385467  13.015  17.737   2.027  0.1829 -0.1879  0.5983
 7041SAP2    C485468  12.902  17.591   2.055 -0.0007 -0.0007  0.6972
 7041SAP2   PO485469  12.584  17.632   2.383 -0.1224 -0.0679  0.4190
 7041SAP2    P485470  13.191  17.779   1.745  0.2035  0.0499  0.0216
 7041SAP2    P585471  12.808  17.426   1.680 -0.0937  0.2815 -0.1089
 7041SAP2   GL185472  12.607  17.683   2.788  0.0007  0.1001  0.1852
 7041SAP2   GL285473  12.752  17.456   2.804  0.3731 -0.1193  0.0686
 7041SAP2   D1A85474  12.542  18.162   2.747 -0.0473  0.2195  0.0158
 7041SAP2   D2A85475  12.930  18.011   2.952  0.0214 -0.1245 -0.0680
 7041SAP2   D3A85476  13.027  18.394   3.192  0.0229  0.0967 -0.1327
 7041SAP2   D4A85477  12.865  18.532   2.717 -0.1449 -0.2016 -0.0055
 7041SAP2   C5A85478  13.295  18.468   2.774 -0.0327 -0.2056 -0.0800
 7041SAP2   C1B85479  12.493  17.582   3.243 -0.2429  0.1512  0.2760
 7041SAP2   C2B85480  12.297  17.454   3.627 -0.1394 -0.0602 -0.1968
 7041SAP2   C3B85481  12.052  17.127   3.878 -0.1265 -0.2441  0.1546
 7041SAP2   C4B85482  11.822  16.844   4.116  0.1203 -0.1679 -0.1220
 7042SAP2    C185483  15.649   4.865   2.574  0.3408  0.5904  0.1909
 7042SAP2    C285484  15.765   4.909   2.327 -0.2060  0.2051 -0.1599
 7042SAP2    C385485  15.444   4.971   2.404 -0.1317  0.0022  0.3547
 7042SAP2    C485486  15.619   4.915   2.435 -0.0007 -0.0007  0.6972
 7042SAP2   PO485487  15.903   4.838   2.782  0.0526  0.1861  0.3455
 7042SAP2    P485488  15.421   5.193   2.153 -0.1352 -0.5762  0.0713
 7042SAP2    P585489  15.829   4.752   2.041  0.0382 -0.2487  0.0830
 7042SAP2   GL185490  15.971   5.062   3.098 -0.0410 -0.0384  0.1624
 7042SAP2   GL285491  16.260   5.023   2.997  0.0690  0.0323  0.0183
 7042SAP2   D1A85492  16.205   5.381   3.328 -0.1882 -0.1803  0.0214
 7042SAP2   D2A85493  16.450   5.280   3.669  0.0266 -0.1147 -0.3143
 7042SAP2   D3A85494  16.777   5.161   4.064 -0.0184 -0.0793 -0.1660
 7042SAP2   D4A85495  16.930   4.891   4.400  0.0728  0.3337 -0.1681
 7042SAP2   C5A85496  17.063   4.761   4.822  0.5268 -0.1514 -0.0221
 7042SAP2   C1B85497  16.619   5.207   3.202 -0.0382 -0.0683  0.2516
 7042SAP2   C2B85498  16.923   5.326   3.539 -0.2798  0.2047  0.0773
 7042SAP2   C3B85499  16.910   5.729   3.715 -0.0894 -0.2013  0.0160
 7042SAP2   C4B85500  16.676   6.073   3.869  0.1325 -0.3043 -0.1154
 7043SAP2    C185501  13.588  19.328   2.422 -0.0153  0.1246 -0.0497
 7043SAP2    C285502  13.539  19.070   2.334 -0.1668  0.0922  0.1236
 7043SAP2    C385503  13.713  19.302   2.166  0.1225 -0.1761  0.0430
 7043SAP2    C485504  13.613  19.233   2.307 -0.0007 -0.0007  0.6972
 7043SAP2   PO485505  13.670  19.305   2.702 -0.3377 -0.1128 -0.3360
 7043SAP2    P485506  13.778  19.073   1.937  0.1207 -0.2546  0.0836
 7043SAP2    P585507  13.500  18.866   2.161 -0.0138  0.0766  0.2213
 7043SAP2   GL185508  13.422  19.280   2.943  0.1854  0.1016 -0.5021
 7043SAP2   GL285509  13.229  19.439   2.945  0.1509 -0.0583  0.0259
 7043SAP2   D1A85510  13.749  19.045   3.221  0.1045 -0.1421 -0.0106
 7043SAP2   D2A85511  13.521  18.662   3.326 -0.0862  0.1215  0.1070
 7043SAP2   D3A85512  13.458  18.187   3.307 -0.0791 -0.0340  0.1772
 7043SAP2   D4A85513  13.717  18.028   3.668 -0.0354  0.1172  0.0928
 7043SAP2   C5A85514  13.365  18.013   4.016 -0.0706 -0.0343  0.1588
 7043SAP2   C1B85515  13.347  19.389   3.387 -0.0255  0.1212 -0.0884
 7043SAP2   C2B85516  13.264  18.990   3.508  0.0077 -0.1194  0.2383
 7043SAP2   C3B85517  13.073  18.831   3.855  0.0238  0.4724  0.0733
 7043SAP2   C4B85518  12.807  18.575   4.073  0.0921 -0.1135 -0.2160
 7044SAP2    C185519   4.479  22.336   3.462  0.1756  0.1879 -0.0651
 7044SAP2    C285520   4.365  22.588   3.447  0.1691  0.1849 -0.0669
 7044SAP2    C385521   4.291  22.329   3.246 -0.1647  0.0460  0.2260
 7044SAP2    C485522   4.378  22.418   3.385 -0.0007 -0.0007  0.6972
 7044SAP2   PO485523   4.494  22.267   3.774  0.2660 -0.0875  0.2250
 7044SAP2    P485524   4.047  22.352   3.057 -0.1836 -0.0051 -0.1328
 7044SAP2    P585525   4.366  22.785   3.157 -0.0716 -0.0862  0.4580
 7044SAP2   GL185526   4.505  21.996   4.071 -0.0901 -0.1481  0.0110
 7044SAP2   GL285527   4.667  22.085   4.339 -0.1343  0.1236  0.0911
 7044SAP2   D1A85528   4.397  21.606   4.243 -0.5261  0.2632  0.3121
 7044SAP2   D2A85529   4.247  22.021   4.495 -0.2240  0.2283 -0.3594
 7044SAP2   D3A85530   3.807  22.181   4.533  0.1442  0.4400  0.1913
 7044SAP2   D4A85531   3.646  21.882   4.212  0.0100  0.0083 -0.2055
 7044SAP2   C5A85532   3.641  21.696   4.638 -0.0329  0.3516  0.0032
 7044SAP2   C1B85533   4.607  22.186   4.802  0.0983  0.0496 -0.2496
 7044SAP2   C2B85534   4.594  22.056   5.233  0.5028  0.1963  0.3520
 7044SAP2   C3B85535   4.851  22.089   5.647  0.3104 -0.3251  0.0595
 7044SAP2   C4B85536   4.852  22.325   6.084 -0.5116  0.2059  0.0169
 7045SAP2    C185537   6.068  18.329   3.392  0.3608 -0.0642 -0.0361
 7045SAP2    C285538   6.130  18.079   3.292  0.1389 -0.0537 -0.2074
 7045SAP2    C385539   6.114  18.362   3.112 -0.0360  0.0070 -0.0995
 7045SAP2    C485540   6.104  18.257   3.265 -0.0007 -0.0007  0.6972
 7045SAP2   PO485541   6.221  18.338   3.697 -0.2187  0.1345  0.4937
 7045SAP2    P485542   6.215  18.383   2.809  0.1045  0.2184 -0.0875
 7045SAP2    P585543   5.905  17.996   3.055  0.4484  0.1359 -0.1087
 7045SAP2   GL185544   6.185  18.618   3.904  0.3609 -0.3560 -0.1377
 7045SAP2   GL285545   6.312  18.890   3.900  0.1693  0.2091  0.2500
 7045SAP2   D1A85546   6.512  18.351   4.088 -0.0629  0.1507 -0.3685
 7045SAP2   D2A85547   6.492  17.972   4.343 -0.2434 -0.2674  0.3503
 7045SAP2   D3A85548   6.237  17.760   4.670  0.1493 -0.0012  0.0827
 7045SAP2   D4A85549   5.823  17.904   4.702  0.3816  0.2897 -0.1090
 7045SAP2   C5A85550   5.676  17.708   5.080  0.2330 -0.1298  0.0711
 7045SAP2   C1B85551   6.322  18.791   4.340 -0.2079 -0.1927  0.0280
 7045SAP2   C2B85552   6.285  18.930   4.821 -0.0219 -0.2124 -0.1702
 7045SAP2   C3B85553   6.295  18.985   5.271  0.0281 -0.0492 -0.0339
 7045SAP2   C4B85554   6.255  19.378   5.504  0.0853 -0.0488  0.2394
 7046SAP2    C185555  13.119  10.663   2.813 -0.0394  0.1668  0.1935
 7046SAP2    C285556  13.156  10.730   2.546 -0.1768  0.0739  0.1500
 7046SAP2    C385557  12.918  10.856   2.747 -0.1199  0.0889  0.2085
 7046SAP2    C485558  13.065  10.750   2.702 -0.0007 -0.0007  0.6972
 7046SAP2   PO485559  13.365  10.695   2.975 -0.1510 -0.2869  0.2143
 7046SAP2    P485560  12.789  11.023   2.501  0.1069  0.2002  0.0695
 7046SAP2    P585561  13.038  10.823   2.284  0.3126  0.1116 -0.1017
 7046SAP2   GL185562  13.565  10.519   3.055  0.2174 -0.0471 -0.0808
 7046SAP2   GL285563  13.559  10.476   3.342  0.0835 -0.1450 -0.1979
 7046SAP2   D1A85564  13.920  10.210   3.032  0.1738  0.0506  0.0565
 7046SAP2   D2A85565  14.019  10.142   3.448 -0.0254  0.1420 -0.5008
 7046SAP2   D3A85566  13.590   9.943   3.391 -0.0304  0.1146  0.1016
 7046SAP2   D4A85567  13.800   9.755   3.703 -0.1043  0.3343 -0.1620
 7046SAP2   C5A85568  13.636   9.904   4.084 -0.1740 -0.0393  0.0193
 7046SAP2   C1B85569  14.029  10.627   3.390 -0.1439 -0.2475  0.2078
 7046SAP2   C2B85570  14.245  10.741   3.669 -0.2236  0.2751 -0.0465
 7046SAP2   C3B85571  14.299  10.661   4.102  0.0786 -0.0422  0.1105
 7046SAP2   C4B85572  14.062  10.703   4.519  0.0101  0.0683  0.1865
 7047SAP2    C185573   2.722  16.316   2.959  0.3165  0.0561  0.2465
 7047SAP2    C285574   2.773  16.044   2.978  0.0336 -0.0172  0.0165
 7047SAP2    C385575   2.959  16.266   2.807  0.0442 -0.1368 -0.1291
 7047SAP2    C485576   2.818  16.209   2.915 -0.0007 -0.0007  0.6972
 7047SAP2   PO485577   2.568  16.420   3.249 -0.2034  0.0715 -0.2655
 7047SAP2    P485578   3.251  16.187   2.783  0.4390  0.2874  0.2687
 7047SAP2    P585579   2.883  15.845   2.766  0.0052  0.0931  0.1865
 7047SAP2   GL185580   2.633  16.164   3.463 -0.1307  0.2841 -0.0350
 7047SAP2   GL285581   2.394  16.064   3.390  0.3080 -0.1119 -0.0423
 7047SAP2   D1A85582   2.642  16.403   3.821  0.0262 -0.0737  0.0132
 7047SAP2   D2A85583   2.307  16.534   4.034  0.1194  0.1525 -0.0304
 7047SAP2   D3A85584   1.894  16.650   3.936  0.0502  0.0163  0.2409
 7047SAP2   D4A85585   1.488  16.503   3.849 -0.0433 -0.0566  0.0243
 7047SAP2   C5A85586   1.456  16.738   4.280 -0.1950 -0.0458  0.1145
 7047SAP2   C1B85587   2.207  16.129   3.832 -0.0313  0.0774 -0.2032
 7047SAP2   C2B85588   1.969  16.225   4.190 -0.3888  0.2196  0.0960
 7047SAP2   C3B85589   1.548  16.254   4.413 -0.0943 -0.1539 -0.0746
 7047SAP2   C4B85590   1.351  16.001   4.757  0.1249 -0.0692  0.0675
 7048SAP2    C185591  30.423   5.301   3.134  0.0345  0.1363 -0.0315
 7048SAP2    C285592  30.342   5.420   2.898  0.0796  0.2200 -0.0052
 7048SAP2    C385593  30.660   5.396   3.003  0.1052 -0.2049 -0.1620
 7048SAP2    C485594  30.475   5.372   3.012 -0.0007 -0.0007  0.6972
 7048SAP2   PO485595  30.223   5.080   3.159  0.1183  0.2992  0.0545
 7048SAP2    P485596  30.876   5.508   2.856  0.0832 -0.1095  0.1225
 7048SAP2    P585597  30.429   5.545   2.602 -0.1527  0.0519  0.1884
 7048SAP2   GL185598  30.311   5.165   3.497 -0.3472 -0.0920 -0.1312
 7048SAP2   GL285599  30.544   5.083   3.630 -0.0907  0.2829  0.1028
 7048SAP2   D1A85600  29.851   5.133   3.598 -0.1440 -0.1853 -0.1721
 7048SAP2   D2A85601  30.051   4.711   3.475  0.0884  0.2903  0.2081
 7048SAP2   D3A85602  30.294   4.712   3.809 -0.0989  0.0669  0.0869
 7048SAP2   D4A85603  30.045   4.341   3.814  0.2898  0.1817 -0.0271
 7048SAP2   C5A85604  29.665   4.612   3.796  0.0971  0.1025 -0.1224
 7048SAP2   C1B85605  30.637   5.288   4.058 -0.0480  0.0015 -0.0860
 7048SAP2   C2B85606  30.526   5.225   4.497 -0.0904 -0.0910  0.2895
 7048SAP2   C3B85607  30.649   5.361   4.869 -0.0551 -0.2370 -0.0768
 7048SAP2   C4B85608  30.752   5.402   5.295 -0.3745  0.0654 -0.0050
 7049SAP2    C185609  22.748  25.395   2.938 -0.1258 -0.0283  0.1437
 7049SAP2    C285610  22.837  25.639   2.842 -0.0310 -0.1771 -0.1626
 7049SAP2    C385611  22.516  25.542   2.855 -0.0769 -0.0057  0.0439
 7049SAP2    C485612  22.700  25.525   2.878 -0.0007 -0.0007  0.6972
 7049SAP2   PO485613  22.887  25.326   3.213 -0.0895  0.2493 -0.0522
 7049SAP2    P485614  22.359  25.766   2.720  0.2378  0.0704  0.0355
 7049SAP2    P585615  22.879  25.650   2.521 -0.0477  0.0055  0.0171
 7049SAP2   GL185616  23.078  25.572   3.329  0.2048  0.1207 -0.0066
 7049SAP2   GL285617  23.360  25.626   3.307 -0.1800 -0.0408 -0.2903
 7049SAP2   D1A85618  23.189  25.276   3.687  0.0642  0.1762 -0.0986
 7049SAP2   D2A85619  23.071  24.810   3.545 -0.1235  0.0929 -0.2305
 7049SAP2   D3A85620  23.487  24.857   3.773 -0.2362 -0.0336 -0.0132
 7049SAP2   D4A85621  23.793  24.490   3.805  0.1343  0.0173  0.0468
 7049SAP2   C5A85622  24.216  24.701   3.866  0.2350 -0.1836  0.2889
 7049SAP2   C1B85623  23.666  25.453   3.575 -0.2530  0.1334 -0.1777
 7049SAP2   C2B85624  23.918  25.181   3.929  0.0018  0.3789 -0.2936
 7049SAP2   C3B85625  24.177  24.998   4.264 -0.0961  0.1595 -0.1382
 7049SAP2   C4B85626  24.211  25.111   4.739 -0.0310  0.2249  0.3336
 7050SAP2    C185627  10.469  29.913   3.487  0.2815  0.1399  0.2677
 7050SAP2    C285628  10.584  29.972   3.242  0.0488 -0.0985  0.0958
 7050SAP2    C385629  10.276  30.064   3.340  0.0124 -0.2865  0.1634
 7050SAP2    C485630  10.443  29.983   3.356 -0.0007 -0.0007  0.6972
 7050SAP2   PO485631  10.635  29.968   3.741 -0.0787  0.1718  0.0892
 7050SAP2    P485632  10.252  30.261   3.040  0.1699 -0.0728  0.1962
 7050SAP2    P585633  10.512  29.801   3.008 -0.1825  0.2417 -0.0325
 7050SAP2   GL185634  10.543  29.856   3.999  0.0289 -0.2589  0.0289
 7050SAP2   GL285635  10.386  29.963   4.149  0.1746 -0.1978  0.1880
 7050SAP2   D1A85636  10.876  29.947   4.315 -0.1170  0.1996  0.1529
 7050SAP2   D2A85637  10.670  29.790   4.715  0.0554 -0.0126 -0.0945
 7050SAP2   D3A85638  10.751  29.418   4.853  0.0243  0.4355  0.0255
 7050SAP2   D4A85639  10.930  29.565   5.253  0.0719 -0.1846  0.3486
 7050SAP2   C5A85640  10.829  29.543   5.742  0.1522  0.1255  0.0470
 7050SAP2   C1B85641  10.259  30.049   4.577  0.0931 -0.2468  0.0907
 7050SAP2   C2B85642  10.080  30.101   4.996 -0.0269  0.1311 -0.0557
 7050SAP2   C3B85643   9.901  30.108   5.380 -0.0027 -0.1058  0.1174
 7050SAP2   C4B85644   9.893  30.313   5.822  0.1288 -0.0298  0.1090
 7051SAP2    C185645  10.542   1.528   3.640 -0.2771  0.3631 -0.1382
 7051SAP2    C285646  10.395   1.376   3.461  0.1560 -0.4073  0.1146
 7051SAP2    C385647  10.705   1.495   3.407 -0.1281  0.3185 -0.0295
 7051SAP2    C485648  10.548   1.466   3.503 -0.0007 -0.0007  0.6972
 7051SAP2   PO485649  10.483   1.414   3.922 -0.1931  0.0247  0.3080
 7051SAP2    P485650  10.664   1.453   3.112 -0.0129  0.3722 -0.1364
 7051SAP2    P585651  10.186   1.369   3.265  0.0909 -0.1998  0.0101
 7051SAP2   GL185652  10.494   1.568   4.279  0.0587  0.1339  0.1922
 7051SAP2   GL285653  10.633   1.387   4.327  0.0691  0.0110 -0.0046
 7051SAP2   D1A85654  10.266   1.948   4.397 -0.1170 -0.1363 -0.2159
 7051SAP2   D2A85655  10.514   2.075   4.704 -0.0432  0.0869 -0.1835
 7051SAP2   D3A85656  10.514   2.354   5.050  0.1909  0.3340  0.0230
 7051SAP2   D4A85657  10.918   2.275   5.179 -0.4429 -0.1318 -0.0852
 7051SAP2   C5A85658  11.142   2.337   5.612 -0.3174  0.2796 -0.1555
 7051SAP2   C1B85659  10.887   1.427   4.746  0.3328  0.1690 -0.1187
 7051SAP2   C2B85660  10.830   1.363   5.205 -0.2459  0.0461 -0.2779
 7051SAP2   C3B85661  10.765   1.526   5.664  0.0341  0.0077 -0.2257
 7051SAP2   C4B85662  10.659   1.492   6.087  0.1978 -0.1712 -0.0478
 7052SAP2    C185663  16.473  30.436   2.931  0.2362 -0.1392  0.1054
 7052SAP2    C285664  16.424  30.702   2.868  0.0366 -0.1140  0.3502
 7052SAP2    C385665  16.256  30.438   2.744 -0.0254 -0.0985  0.4006
 7052SAP2    C485666  16.384  30.525   2.848 -0.0007 -0.0007  0.6972
 7052SAP2   PO485667  16.482  30.490   3.249  0.0299 -0.0179 -0.1811
 7052SAP2    P485668  16.050  30.625   2.543  0.0154 -0.0544 -0.3027
 7052SAP2    P585669  16.563  30.876   2.614  0.2050 -0.0493 -0.2576
 7052SAP2   GL185670  16.528  30.295   3.559 -0.6001 -0.2627 -0.3235
 7052SAP2   GL285671  16.455  30.510   3.680  0.0448  0.0819 -0.0583
 7052SAP2   D1A85672  16.424  30.161   4.021 -0.1269  0.2222 -0.0097
 7052SAP2   D2A85673  16.671  30.049   4.336 -0.0613  0.1175  0.2558
 7052SAP2   D3A85674  16.859  30.127   4.787  0.1582  0.1767 -0.0540
 7052SAP2   D4A85675  16.530  30.268   5.125  0.2327 -0.1206  0.2037
 7052SAP2   C5A85676  16.978  30.105   5.263  0.1808  0.0281  0.2609
 7052SAP2   C1B85677  16.408  30.685   4.095  0.0360 -0.2682  0.2162
 7052SAP2   C2B85678  16.470  30.945   4.443  0.1370 -0.0645 -0.2011
 7052SAP2   C3B85679  16.382  31.147   4.879 -0.0266 -0.2229  0.0710
 7052SAP2   C4B85680  16.300  31.111   5.317  0.1794  0.3762  0.1867
  31.73734  31.73734  22.99090
